 Entering Gaussian System, Link 0=/home/michal/g09/g09
 Input=JOB2-gau_m1-9-2.com
 Output=JOB2-gau_m1-9-2.log
 Initial command:
 /home/michal/g09/l1.exe "/home/michal/gauss_scratch/Gau-31023.inp" -scrdir="/home/michal/gauss_scratch/"
 Entering Link 1 = /home/michal/g09/l1.exe PID=     31024.
  
 Copyright (c) 1988,1990,1992,1993,1995,1998,2003,2009,2013,
            Gaussian, Inc.  All Rights Reserved.
  
 This is part of the Gaussian(R) 09 program.  It is based on
 the Gaussian(R) 03 system (copyright 2003, Gaussian, Inc.),
 the Gaussian(R) 98 system (copyright 1998, Gaussian, Inc.),
 the Gaussian(R) 94 system (copyright 1995, Gaussian, Inc.),
 the Gaussian 92(TM) system (copyright 1992, Gaussian, Inc.),
 the Gaussian 90(TM) system (copyright 1990, Gaussian, Inc.),
 the Gaussian 88(TM) system (copyright 1988, Gaussian, Inc.),
 the Gaussian 86(TM) system (copyright 1986, Carnegie Mellon
 University), and the Gaussian 82(TM) system (copyright 1983,
 Carnegie Mellon University). Gaussian is a federally registered
 trademark of Gaussian, Inc.
  
 This software contains proprietary and confidential information,
 including trade secrets, belonging to Gaussian, Inc.
  
 This software is provided under written license and may be
 used, copied, transmitted, or stored only in accord with that
 written license.
  
 The following legend is applicable only to US Government
 contracts under FAR:
  
                    RESTRICTED RIGHTS LEGEND
  
 Use, reproduction and disclosure by the US Government is
 subject to restrictions as set forth in subparagraphs (a)
 and (c) of the Commercial Computer Software - Restricted
 Rights clause in FAR 52.227-19.
  
 Gaussian, Inc.
 340 Quinnipiac St., Bldg. 40, Wallingford CT 06492
  
  
 ---------------------------------------------------------------
 Warning -- This program may not be used in any manner that
 competes with the business of Gaussian, Inc. or will provide
 assistance to any competitor of Gaussian, Inc.  The licensee
 of this program is prohibited from giving any competitor of
 Gaussian, Inc. access to this program.  By using this program,
 the user acknowledges that Gaussian, Inc. is engaged in the
 business of creating and licensing software in the field of
 computational chemistry and represents and warrants to the
 licensee that it is not a competitor of Gaussian, Inc. and that
 it will not use this program in any manner prohibited above.
 ---------------------------------------------------------------
  

 Cite this work as:
 Gaussian 09, Revision D.01,
 M. J. Frisch, G. W. Trucks, H. B. Schlegel, G. E. Scuseria, 
 M. A. Robb, J. R. Cheeseman, G. Scalmani, V. Barone, B. Mennucci, 
 G. A. Petersson, H. Nakatsuji, M. Caricato, X. Li, H. P. Hratchian, 
 A. F. Izmaylov, J. Bloino, G. Zheng, J. L. Sonnenberg, M. Hada, 
 M. Ehara, K. Toyota, R. Fukuda, J. Hasegawa, M. Ishida, T. Nakajima, 
 Y. Honda, O. Kitao, H. Nakai, T. Vreven, J. A. Montgomery, Jr., 
 J. E. Peralta, F. Ogliaro, M. Bearpark, J. J. Heyd, E. Brothers, 
 K. N. Kudin, V. N. Staroverov, T. Keith, R. Kobayashi, J. Normand, 
 K. Raghavachari, A. Rendell, J. C. Burant, S. S. Iyengar, J. Tomasi, 
 M. Cossi, N. Rega, J. M. Millam, M. Klene, J. E. Knox, J. B. Cross, 
 V. Bakken, C. Adamo, J. Jaramillo, R. Gomperts, R. E. Stratmann, 
 O. Yazyev, A. J. Austin, R. Cammi, C. Pomelli, J. W. Ochterski, 
 R. L. Martin, K. Morokuma, V. G. Zakrzewski, G. A. Voth, 
 P. Salvador, J. J. Dannenberg, S. Dapprich, A. D. Daniels, 
 O. Farkas, J. B. Foresman, J. V. Ortiz, J. Cioslowski, 
 and D. J. Fox, Gaussian, Inc., Wallingford CT, 2013.
 
 ******************************************
 Gaussian 09:  EM64L-G09RevD.01 24-Apr-2013
                27-Apr-2017 
 ******************************************
 %Mem=256MB
 %NProc=12
 Will use up to   12 processors via shared memory.
 ----------------------------------------------------------------------
 #P HF/6-31G* SCF(Conver=6) NoSymm Test Pop=mk IOp(6/33=2) GFInput GFPr
 int
 ----------------------------------------------------------------------
 1/38=1/1;
 2/12=2,15=1,17=6,18=5,40=1/2;
 3/5=1,6=6,7=1,11=9,16=1,24=110,25=1,30=1/1,2,3;
 4//1;
 5/5=2,6=6,38=5/2;
 6/7=2,8=2,9=2,10=2,15=8,20=1,28=1,33=2/1,2;
 99/5=1,9=1/99;
 Leave Link    1 at Thu Apr 27 15:29:16 2017, MaxMem=    33554432 cpu:         0.6
 (Enter /home/michal/g09/l101.exe)
 ----------------------------------------------
 MEP - Input generated by R.E.D.-III.x MOLECULE
 ----------------------------------------------
 Symbolic Z-matrix:
 Charge =  0 Multiplicity = 1
 C                     7.5199    2.21459   0.0641 
 H                     7.35664   2.18261   1.14834 
 C                     6.82671   1.00693  -0.58169 
 H                     7.20814   0.08038  -0.14195 
 H                     7.10938   0.99053  -1.64701 
 C                     5.31552   1.06215  -0.45812 
 C                     4.62456   2.35868  -0.89229 
 C                     5.41182   3.56485  -0.29152 
 H                     5.20903   3.60463   0.78783 
 H                     5.02807   4.49941  -0.71416 
 C                     6.93411   3.51162  -0.49311 
 H                     7.1838    3.58697  -1.56184 
 H                     7.40651   4.36882   0. 
 C                     4.64008   0.        0. 
 H                     5.18101  -0.89337   0.30398 
 C                     3.14693  -0.10244   0.10284 
 H                     2.84627  -0.2085    1.15679 
 C                     2.38305   1.06117  -0.55027 
 H                     2.32815   0.8393   -1.62394 
 C                     3.16022   2.39156  -0.33481 
 H                     3.26306   2.50355   0.75695 
 C                     2.34323   3.60731  -0.83208 
 H                     2.29347   3.59794  -1.92612 
 H                     2.86368   4.53208  -0.56085 
 C                     0.9101    3.67208  -0.26997 
 H                     0.95444   3.83352   0.8163 
 H                     0.40338   4.54536  -0.69719 
 C                     0.12595   2.377    -0.55227 
 C                     0.96452   1.2008    0.03246 
 H                     1.11169   1.45403   1.09599 
 C                     0.        0.        0. 
 H                     0.26426  -0.7607    0.74118 
 H                     0.02895  -0.49373  -0.97649 
 C                    -1.39367   0.63202   0.27546 
 H                    -2.11346   0.32647  -0.49056 
 H                    -1.81032   0.30416   1.23432 
 C                    -1.1897    2.17965   0.27792 
 H                    -0.90241   2.44303   1.30511 
 C                    -0.10666   2.21587  -2.07257 
 H                     0.8268    2.04716  -2.61539 
 H                    -0.76784   1.37702  -2.30399 
 H                    -0.56072   3.11867  -2.49087 
 C                    -2.50909   2.9652    0.02373 
 H                    -3.20919   2.53252   0.75739 
 C                    -3.17541   2.77771  -1.35448 
 H                    -2.68103   3.36528  -2.13348 
 H                    -4.21669   3.11606  -1.30736 
 H                    -3.18803   1.73393  -1.68107 
 C                     4.65183   2.43857  -2.44214 
 H                     4.3062    3.4143   -2.79767 
 H                     5.66269   2.29342  -2.83201 
 H                     4.0215    1.66456  -2.88996 
 O                     2.68695  -1.28848  -0.59323 
 O                     3.16214  -2.45264   0.14783 
 H                     2.31607  -2.82091   0.45126 
 O                     8.94189   2.15112  -0.07702 
 H                     9.16044   2.16884  -1.01942 
 C                    -2.43841   4.47673   0.34788 
 H                    -1.71872   4.96695  -0.32102 
 H                    -3.41655   4.91138   0.09669 
 C                    -2.11841   4.84428   1.80489 
 H                    -2.81664   4.31463   2.47045 
 H                    -1.11516   4.49319   2.06939 
 C                    -2.22122   6.35416   2.06943 
 H                    -3.21398   6.69841   1.74591 
 H                    -1.49496   6.88558   1.43521 
 C                    -2.01063   6.78648   3.5349 
 H                    -2.71711   6.21285   4.1548 
 C                    -0.59002   6.48816   4.04126 
 H                     0.15697   7.01874   3.43637 
 H                    -0.468     6.81574   5.07997 
 H                    -0.35348   5.42007   4.00361 
 C                    -2.34003   8.27763   3.70924 
 H                    -1.66459   8.89979   3.10799 
 H                    -2.23468   8.5891    4.7547 
 H                    -3.36593   8.50019   3.39418 
 
 NAtoms=     76 NQM=       76 NQMF=       0 NMMI=      0 NMMIF=      0
                NMic=       0 NMicF=      0.
                    Isotopes and Nuclear Properties:
 (Nuclear quadrupole moments (NQMom) in fm**2, nuclear magnetic moments (NMagM)
  in nuclear magnetons)

  Atom         1           2           3           4           5           6           7           8           9          10
 IAtWgt=          12           1          12           1           1          12          12          12           1           1
 AtmWgt=  12.0000000   1.0078250  12.0000000   1.0078250   1.0078250  12.0000000  12.0000000  12.0000000   1.0078250   1.0078250
 NucSpn=           0           1           0           1           1           0           0           0           1           1
 AtZEff=   0.0000000   0.0000000   0.0000000   0.0000000   0.0000000   0.0000000   0.0000000   0.0000000   0.0000000   0.0000000
 NQMom=    0.0000000   0.0000000   0.0000000   0.0000000   0.0000000   0.0000000   0.0000000   0.0000000   0.0000000   0.0000000
 NMagM=    0.0000000   2.7928460   0.0000000   2.7928460   2.7928460   0.0000000   0.0000000   0.0000000   2.7928460   2.7928460
 AtZNuc=   6.0000000   1.0000000   6.0000000   1.0000000   1.0000000   6.0000000   6.0000000   6.0000000   1.0000000   1.0000000

  Atom        11          12          13          14          15          16          17          18          19          20
 IAtWgt=          12           1           1          12           1          12           1          12           1          12
 AtmWgt=  12.0000000   1.0078250   1.0078250  12.0000000   1.0078250  12.0000000   1.0078250  12.0000000   1.0078250  12.0000000
 NucSpn=           0           1           1           0           1           0           1           0           1           0
 AtZEff=   0.0000000   0.0000000   0.0000000   0.0000000   0.0000000   0.0000000   0.0000000   0.0000000   0.0000000   0.0000000
 NQMom=    0.0000000   0.0000000   0.0000000   0.0000000   0.0000000   0.0000000   0.0000000   0.0000000   0.0000000   0.0000000
 NMagM=    0.0000000   2.7928460   2.7928460   0.0000000   2.7928460   0.0000000   2.7928460   0.0000000   2.7928460   0.0000000
 AtZNuc=   6.0000000   1.0000000   1.0000000   6.0000000   1.0000000   6.0000000   1.0000000   6.0000000   1.0000000   6.0000000

  Atom        21          22          23          24          25          26          27          28          29          30
 IAtWgt=           1          12           1           1          12           1           1          12          12           1
 AtmWgt=   1.0078250  12.0000000   1.0078250   1.0078250  12.0000000   1.0078250   1.0078250  12.0000000  12.0000000   1.0078250
 NucSpn=           1           0           1           1           0           1           1           0           0           1
 AtZEff=   0.0000000   0.0000000   0.0000000   0.0000000   0.0000000   0.0000000   0.0000000   0.0000000   0.0000000   0.0000000
 NQMom=    0.0000000   0.0000000   0.0000000   0.0000000   0.0000000   0.0000000   0.0000000   0.0000000   0.0000000   0.0000000
 NMagM=    2.7928460   0.0000000   2.7928460   2.7928460   0.0000000   2.7928460   2.7928460   0.0000000   0.0000000   2.7928460
 AtZNuc=   1.0000000   6.0000000   1.0000000   1.0000000   6.0000000   1.0000000   1.0000000   6.0000000   6.0000000   1.0000000

  Atom        31          32          33          34          35          36          37          38          39          40
 IAtWgt=          12           1           1          12           1           1          12           1          12           1
 AtmWgt=  12.0000000   1.0078250   1.0078250  12.0000000   1.0078250   1.0078250  12.0000000   1.0078250  12.0000000   1.0078250
 NucSpn=           0           1           1           0           1           1           0           1           0           1
 AtZEff=   0.0000000   0.0000000   0.0000000   0.0000000   0.0000000   0.0000000   0.0000000   0.0000000   0.0000000   0.0000000
 NQMom=    0.0000000   0.0000000   0.0000000   0.0000000   0.0000000   0.0000000   0.0000000   0.0000000   0.0000000   0.0000000
 NMagM=    0.0000000   2.7928460   2.7928460   0.0000000   2.7928460   2.7928460   0.0000000   2.7928460   0.0000000   2.7928460
 AtZNuc=   6.0000000   1.0000000   1.0000000   6.0000000   1.0000000   1.0000000   6.0000000   1.0000000   6.0000000   1.0000000

  Atom        41          42          43          44          45          46          47          48          49          50
 IAtWgt=           1           1          12           1          12           1           1           1          12           1
 AtmWgt=   1.0078250   1.0078250  12.0000000   1.0078250  12.0000000   1.0078250   1.0078250   1.0078250  12.0000000   1.0078250
 NucSpn=           1           1           0           1           0           1           1           1           0           1
 AtZEff=   0.0000000   0.0000000   0.0000000   0.0000000   0.0000000   0.0000000   0.0000000   0.0000000   0.0000000   0.0000000
 NQMom=    0.0000000   0.0000000   0.0000000   0.0000000   0.0000000   0.0000000   0.0000000   0.0000000   0.0000000   0.0000000
 NMagM=    2.7928460   2.7928460   0.0000000   2.7928460   0.0000000   2.7928460   2.7928460   2.7928460   0.0000000   2.7928460
 AtZNuc=   1.0000000   1.0000000   6.0000000   1.0000000   6.0000000   1.0000000   1.0000000   1.0000000   6.0000000   1.0000000

  Atom        51          52          53          54          55          56          57          58          59          60
 IAtWgt=           1           1          16          16           1          16           1          12           1           1
 AtmWgt=   1.0078250   1.0078250  15.9949146  15.9949146   1.0078250  15.9949146   1.0078250  12.0000000   1.0078250   1.0078250
 NucSpn=           1           1           0           0           1           0           1           0           1           1
 AtZEff=   0.0000000   0.0000000   0.0000000   0.0000000   0.0000000   0.0000000   0.0000000   0.0000000   0.0000000   0.0000000
 NQMom=    0.0000000   0.0000000   0.0000000   0.0000000   0.0000000   0.0000000   0.0000000   0.0000000   0.0000000   0.0000000
 NMagM=    2.7928460   2.7928460   0.0000000   0.0000000   2.7928460   0.0000000   2.7928460   0.0000000   2.7928460   2.7928460
 AtZNuc=   1.0000000   1.0000000   8.0000000   8.0000000   1.0000000   8.0000000   1.0000000   6.0000000   1.0000000   1.0000000

  Atom        61          62          63          64          65          66          67          68          69          70
 IAtWgt=          12           1           1          12           1           1          12           1          12           1
 AtmWgt=  12.0000000   1.0078250   1.0078250  12.0000000   1.0078250   1.0078250  12.0000000   1.0078250  12.0000000   1.0078250
 NucSpn=           0           1           1           0           1           1           0           1           0           1
 AtZEff=   0.0000000   0.0000000   0.0000000   0.0000000   0.0000000   0.0000000   0.0000000   0.0000000   0.0000000   0.0000000
 NQMom=    0.0000000   0.0000000   0.0000000   0.0000000   0.0000000   0.0000000   0.0000000   0.0000000   0.0000000   0.0000000
 NMagM=    0.0000000   2.7928460   2.7928460   0.0000000   2.7928460   2.7928460   0.0000000   2.7928460   0.0000000   2.7928460
 AtZNuc=   6.0000000   1.0000000   1.0000000   6.0000000   1.0000000   1.0000000   6.0000000   1.0000000   6.0000000   1.0000000

  Atom        71          72          73          74          75          76
 IAtWgt=           1           1          12           1           1           1
 AtmWgt=   1.0078250   1.0078250  12.0000000   1.0078250   1.0078250   1.0078250
 NucSpn=           1           1           0           1           1           1
 AtZEff=   0.0000000   0.0000000   0.0000000   0.0000000   0.0000000   0.0000000
 NQMom=    0.0000000   0.0000000   0.0000000   0.0000000   0.0000000   0.0000000
 NMagM=    2.7928460   2.7928460   0.0000000   2.7928460   2.7928460   2.7928460
 AtZNuc=   1.0000000   1.0000000   6.0000000   1.0000000   1.0000000   1.0000000
 Leave Link  101 at Thu Apr 27 15:29:16 2017, MaxMem=    33554432 cpu:         1.0
 (Enter /home/michal/g09/l202.exe)
 Symmetry turned off by external request.
 Stoichiometry    C27H46O3
 Framework group  C1[X(C27H46O3)]
 Deg. of freedom   222
 Full point group                 C1      NOp   1
                          Input orientation:                          
 ---------------------------------------------------------------------
 Center     Atomic      Atomic             Coordinates (Angstroms)
 Number     Number       Type             X           Y           Z
 ---------------------------------------------------------------------
      1          6           0        7.519899    2.214589    0.064102
      2          1           0        7.356638    2.182608    1.148336
      3          6           0        6.826713    1.006933   -0.581691
      4          1           0        7.208144    0.080381   -0.141955
      5          1           0        7.109378    0.990533   -1.647011
      6          6           0        5.315525    1.062146   -0.458119
      7          6           0        4.624556    2.358679   -0.892292
      8          6           0        5.411823    3.564850   -0.291518
      9          1           0        5.209032    3.604635    0.787825
     10          1           0        5.028067    4.499414   -0.714161
     11          6           0        6.934111    3.511621   -0.493107
     12          1           0        7.183803    3.586971   -1.561845
     13          1           0        7.406511    4.368820    0.000000
     14          6           0        4.640079    0.000000    0.000000
     15          1           0        5.181006   -0.893368    0.303981
     16          6           0        3.146928   -0.102444    0.102835
     17          1           0        2.846266   -0.208500    1.156789
     18          6           0        2.383051    1.061174   -0.550274
     19          1           0        2.328155    0.839298   -1.623937
     20          6           0        3.160222    2.391557   -0.334807
     21          1           0        3.263060    2.503550    0.756947
     22          6           0        2.343230    3.607306   -0.832079
     23          1           0        2.293473    3.597939   -1.926118
     24          1           0        2.863684    4.532084   -0.560851
     25          6           0        0.910096    3.672080   -0.269967
     26          1           0        0.954437    3.833521    0.816297
     27          1           0        0.403383    4.545358   -0.697187
     28          6           0        0.125948    2.377001   -0.552267
     29          6           0        0.964518    1.200796    0.032456
     30          1           0        1.111691    1.454030    1.095988
     31          6           0        0.000000    0.000000    0.000000
     32          1           0        0.264262   -0.760704    0.741183
     33          1           0        0.028953   -0.493731   -0.976487
     34          6           0       -1.393665    0.632021    0.275465
     35          1           0       -2.113462    0.326475   -0.490558
     36          1           0       -1.810318    0.304159    1.234325
     37          6           0       -1.189704    2.179650    0.277924
     38          1           0       -0.902407    2.443031    1.305114
     39          6           0       -0.106664    2.215873   -2.072565
     40          1           0        0.826798    2.047158   -2.615393
     41          1           0       -0.767838    1.377022   -2.303985
     42          1           0       -0.560719    3.118669   -2.490874
     43          6           0       -2.509086    2.965201    0.023726
     44          1           0       -3.209187    2.532520    0.757392
     45          6           0       -3.175415    2.777710   -1.354477
     46          1           0       -2.681031    3.365284   -2.133476
     47          1           0       -4.216692    3.116062   -1.307356
     48          1           0       -3.188031    1.733935   -1.681066
     49          6           0        4.651834    2.438571   -2.442143
     50          1           0        4.306202    3.414296   -2.797673
     51          1           0        5.662692    2.293416   -2.832007
     52          1           0        4.021502    1.664559   -2.889960
     53          8           0        2.686952   -1.288484   -0.593233
     54          8           0        3.162139   -2.452636    0.147831
     55          1           0        2.316065   -2.820910    0.451261
     56          8           0        8.941886    2.151116   -0.077023
     57          1           0        9.160435    2.168844   -1.019420
     58          6           0       -2.438412    4.476733    0.347879
     59          1           0       -1.718717    4.966948   -0.321020
     60          1           0       -3.416552    4.911380    0.096689
     61          6           0       -2.118412    4.844276    1.804893
     62          1           0       -2.816641    4.314629    2.470448
     63          1           0       -1.115161    4.493191    2.069386
     64          6           0       -2.221225    6.354164    2.069428
     65          1           0       -3.213985    6.698411    1.745908
     66          1           0       -1.494955    6.885576    1.435212
     67          6           0       -2.010627    6.786484    3.534900
     68          1           0       -2.717110    6.212846    4.154795
     69          6           0       -0.590024    6.488159    4.041255
     70          1           0        0.156967    7.018738    3.436365
     71          1           0       -0.467995    6.815737    5.079970
     72          1           0       -0.353478    5.420074    4.003609
     73          6           0       -2.340032    8.277631    3.709238
     74          1           0       -1.664591    8.899788    3.107989
     75          1           0       -2.234677    8.589097    4.754705
     76          1           0       -3.365929    8.500192    3.394185
 ---------------------------------------------------------------------
 Rotational constants (GHZ):      0.1998749      0.0769790      0.0627528
 Leave Link  202 at Thu Apr 27 15:29:16 2017, MaxMem=    33554432 cpu:         0.0
 (Enter /home/michal/g09/l301.exe)
 Standard basis: 6-31G(d) (6D, 7F)
 Ernie: Thresh=  0.10000D-02 Tol=  0.10000D-05 Strict=F.
 AO basis set in the form of general basis input (Overlap normalization):
      1 0
 S   6 1.00       0.000000000000
      0.3047524880D+04  0.1834737132D-02
      0.4573695180D+03  0.1403732281D-01
      0.1039486850D+03  0.6884262226D-01
      0.2921015530D+02  0.2321844432D+00
      0.9286662960D+01  0.4679413484D+00
      0.3163926960D+01  0.3623119853D+00
 SP   3 1.00       0.000000000000
      0.7868272350D+01 -0.1193324198D+00  0.6899906659D-01
      0.1881288540D+01 -0.1608541517D+00  0.3164239610D+00
      0.5442492580D+00  0.1143456438D+01  0.7443082909D+00
 SP   1 1.00       0.000000000000
      0.1687144782D+00  0.1000000000D+01  0.1000000000D+01
 D   1 1.00       0.000000000000
      0.8000000000D+00  0.1000000000D+01
 ****
      2 0
 S   3 1.00       0.000000000000
      0.1873113696D+02  0.3349460434D-01
      0.2825394365D+01  0.2347269535D+00
      0.6401216923D+00  0.8137573261D+00
 S   1 1.00       0.000000000000
      0.1612777588D+00  0.1000000000D+01
 ****
      3 0
 S   6 1.00       0.000000000000
      0.3047524880D+04  0.1834737132D-02
      0.4573695180D+03  0.1403732281D-01
      0.1039486850D+03  0.6884262226D-01
      0.2921015530D+02  0.2321844432D+00
      0.9286662960D+01  0.4679413484D+00
      0.3163926960D+01  0.3623119853D+00
 SP   3 1.00       0.000000000000
      0.7868272350D+01 -0.1193324198D+00  0.6899906659D-01
      0.1881288540D+01 -0.1608541517D+00  0.3164239610D+00
      0.5442492580D+00  0.1143456438D+01  0.7443082909D+00
 SP   1 1.00       0.000000000000
      0.1687144782D+00  0.1000000000D+01  0.1000000000D+01
 D   1 1.00       0.000000000000
      0.8000000000D+00  0.1000000000D+01
 ****
      4 0
 S   3 1.00       0.000000000000
      0.1873113696D+02  0.3349460434D-01
      0.2825394365D+01  0.2347269535D+00
      0.6401216923D+00  0.8137573261D+00
 S   1 1.00       0.000000000000
      0.1612777588D+00  0.1000000000D+01
 ****
      5 0
 S   3 1.00       0.000000000000
      0.1873113696D+02  0.3349460434D-01
      0.2825394365D+01  0.2347269535D+00
      0.6401216923D+00  0.8137573261D+00
 S   1 1.00       0.000000000000
      0.1612777588D+00  0.1000000000D+01
 ****
      6 0
 S   6 1.00       0.000000000000
      0.3047524880D+04  0.1834737132D-02
      0.4573695180D+03  0.1403732281D-01
      0.1039486850D+03  0.6884262226D-01
      0.2921015530D+02  0.2321844432D+00
      0.9286662960D+01  0.4679413484D+00
      0.3163926960D+01  0.3623119853D+00
 SP   3 1.00       0.000000000000
      0.7868272350D+01 -0.1193324198D+00  0.6899906659D-01
      0.1881288540D+01 -0.1608541517D+00  0.3164239610D+00
      0.5442492580D+00  0.1143456438D+01  0.7443082909D+00
 SP   1 1.00       0.000000000000
      0.1687144782D+00  0.1000000000D+01  0.1000000000D+01
 D   1 1.00       0.000000000000
      0.8000000000D+00  0.1000000000D+01
 ****
      7 0
 S   6 1.00       0.000000000000
      0.3047524880D+04  0.1834737132D-02
      0.4573695180D+03  0.1403732281D-01
      0.1039486850D+03  0.6884262226D-01
      0.2921015530D+02  0.2321844432D+00
      0.9286662960D+01  0.4679413484D+00
      0.3163926960D+01  0.3623119853D+00
 SP   3 1.00       0.000000000000
      0.7868272350D+01 -0.1193324198D+00  0.6899906659D-01
      0.1881288540D+01 -0.1608541517D+00  0.3164239610D+00
      0.5442492580D+00  0.1143456438D+01  0.7443082909D+00
 SP   1 1.00       0.000000000000
      0.1687144782D+00  0.1000000000D+01  0.1000000000D+01
 D   1 1.00       0.000000000000
      0.8000000000D+00  0.1000000000D+01
 ****
      8 0
 S   6 1.00       0.000000000000
      0.3047524880D+04  0.1834737132D-02
      0.4573695180D+03  0.1403732281D-01
      0.1039486850D+03  0.6884262226D-01
      0.2921015530D+02  0.2321844432D+00
      0.9286662960D+01  0.4679413484D+00
      0.3163926960D+01  0.3623119853D+00
 SP   3 1.00       0.000000000000
      0.7868272350D+01 -0.1193324198D+00  0.6899906659D-01
      0.1881288540D+01 -0.1608541517D+00  0.3164239610D+00
      0.5442492580D+00  0.1143456438D+01  0.7443082909D+00
 SP   1 1.00       0.000000000000
      0.1687144782D+00  0.1000000000D+01  0.1000000000D+01
 D   1 1.00       0.000000000000
      0.8000000000D+00  0.1000000000D+01
 ****
      9 0
 S   3 1.00       0.000000000000
      0.1873113696D+02  0.3349460434D-01
      0.2825394365D+01  0.2347269535D+00
      0.6401216923D+00  0.8137573261D+00
 S   1 1.00       0.000000000000
      0.1612777588D+00  0.1000000000D+01
 ****
     10 0
 S   3 1.00       0.000000000000
      0.1873113696D+02  0.3349460434D-01
      0.2825394365D+01  0.2347269535D+00
      0.6401216923D+00  0.8137573261D+00
 S   1 1.00       0.000000000000
      0.1612777588D+00  0.1000000000D+01
 ****
     11 0
 S   6 1.00       0.000000000000
      0.3047524880D+04  0.1834737132D-02
      0.4573695180D+03  0.1403732281D-01
      0.1039486850D+03  0.6884262226D-01
      0.2921015530D+02  0.2321844432D+00
      0.9286662960D+01  0.4679413484D+00
      0.3163926960D+01  0.3623119853D+00
 SP   3 1.00       0.000000000000
      0.7868272350D+01 -0.1193324198D+00  0.6899906659D-01
      0.1881288540D+01 -0.1608541517D+00  0.3164239610D+00
      0.5442492580D+00  0.1143456438D+01  0.7443082909D+00
 SP   1 1.00       0.000000000000
      0.1687144782D+00  0.1000000000D+01  0.1000000000D+01
 D   1 1.00       0.000000000000
      0.8000000000D+00  0.1000000000D+01
 ****
     12 0
 S   3 1.00       0.000000000000
      0.1873113696D+02  0.3349460434D-01
      0.2825394365D+01  0.2347269535D+00
      0.6401216923D+00  0.8137573261D+00
 S   1 1.00       0.000000000000
      0.1612777588D+00  0.1000000000D+01
 ****
     13 0
 S   3 1.00       0.000000000000
      0.1873113696D+02  0.3349460434D-01
      0.2825394365D+01  0.2347269535D+00
      0.6401216923D+00  0.8137573261D+00
 S   1 1.00       0.000000000000
      0.1612777588D+00  0.1000000000D+01
 ****
     14 0
 S   6 1.00       0.000000000000
      0.3047524880D+04  0.1834737132D-02
      0.4573695180D+03  0.1403732281D-01
      0.1039486850D+03  0.6884262226D-01
      0.2921015530D+02  0.2321844432D+00
      0.9286662960D+01  0.4679413484D+00
      0.3163926960D+01  0.3623119853D+00
 SP   3 1.00       0.000000000000
      0.7868272350D+01 -0.1193324198D+00  0.6899906659D-01
      0.1881288540D+01 -0.1608541517D+00  0.3164239610D+00
      0.5442492580D+00  0.1143456438D+01  0.7443082909D+00
 SP   1 1.00       0.000000000000
      0.1687144782D+00  0.1000000000D+01  0.1000000000D+01
 D   1 1.00       0.000000000000
      0.8000000000D+00  0.1000000000D+01
 ****
     15 0
 S   3 1.00       0.000000000000
      0.1873113696D+02  0.3349460434D-01
      0.2825394365D+01  0.2347269535D+00
      0.6401216923D+00  0.8137573261D+00
 S   1 1.00       0.000000000000
      0.1612777588D+00  0.1000000000D+01
 ****
     16 0
 S   6 1.00       0.000000000000
      0.3047524880D+04  0.1834737132D-02
      0.4573695180D+03  0.1403732281D-01
      0.1039486850D+03  0.6884262226D-01
      0.2921015530D+02  0.2321844432D+00
      0.9286662960D+01  0.4679413484D+00
      0.3163926960D+01  0.3623119853D+00
 SP   3 1.00       0.000000000000
      0.7868272350D+01 -0.1193324198D+00  0.6899906659D-01
      0.1881288540D+01 -0.1608541517D+00  0.3164239610D+00
      0.5442492580D+00  0.1143456438D+01  0.7443082909D+00
 SP   1 1.00       0.000000000000
      0.1687144782D+00  0.1000000000D+01  0.1000000000D+01
 D   1 1.00       0.000000000000
      0.8000000000D+00  0.1000000000D+01
 ****
     17 0
 S   3 1.00       0.000000000000
      0.1873113696D+02  0.3349460434D-01
      0.2825394365D+01  0.2347269535D+00
      0.6401216923D+00  0.8137573261D+00
 S   1 1.00       0.000000000000
      0.1612777588D+00  0.1000000000D+01
 ****
     18 0
 S   6 1.00       0.000000000000
      0.3047524880D+04  0.1834737132D-02
      0.4573695180D+03  0.1403732281D-01
      0.1039486850D+03  0.6884262226D-01
      0.2921015530D+02  0.2321844432D+00
      0.9286662960D+01  0.4679413484D+00
      0.3163926960D+01  0.3623119853D+00
 SP   3 1.00       0.000000000000
      0.7868272350D+01 -0.1193324198D+00  0.6899906659D-01
      0.1881288540D+01 -0.1608541517D+00  0.3164239610D+00
      0.5442492580D+00  0.1143456438D+01  0.7443082909D+00
 SP   1 1.00       0.000000000000
      0.1687144782D+00  0.1000000000D+01  0.1000000000D+01
 D   1 1.00       0.000000000000
      0.8000000000D+00  0.1000000000D+01
 ****
     19 0
 S   3 1.00       0.000000000000
      0.1873113696D+02  0.3349460434D-01
      0.2825394365D+01  0.2347269535D+00
      0.6401216923D+00  0.8137573261D+00
 S   1 1.00       0.000000000000
      0.1612777588D+00  0.1000000000D+01
 ****
     20 0
 S   6 1.00       0.000000000000
      0.3047524880D+04  0.1834737132D-02
      0.4573695180D+03  0.1403732281D-01
      0.1039486850D+03  0.6884262226D-01
      0.2921015530D+02  0.2321844432D+00
      0.9286662960D+01  0.4679413484D+00
      0.3163926960D+01  0.3623119853D+00
 SP   3 1.00       0.000000000000
      0.7868272350D+01 -0.1193324198D+00  0.6899906659D-01
      0.1881288540D+01 -0.1608541517D+00  0.3164239610D+00
      0.5442492580D+00  0.1143456438D+01  0.7443082909D+00
 SP   1 1.00       0.000000000000
      0.1687144782D+00  0.1000000000D+01  0.1000000000D+01
 D   1 1.00       0.000000000000
      0.8000000000D+00  0.1000000000D+01
 ****
     21 0
 S   3 1.00       0.000000000000
      0.1873113696D+02  0.3349460434D-01
      0.2825394365D+01  0.2347269535D+00
      0.6401216923D+00  0.8137573261D+00
 S   1 1.00       0.000000000000
      0.1612777588D+00  0.1000000000D+01
 ****
     22 0
 S   6 1.00       0.000000000000
      0.3047524880D+04  0.1834737132D-02
      0.4573695180D+03  0.1403732281D-01
      0.1039486850D+03  0.6884262226D-01
      0.2921015530D+02  0.2321844432D+00
      0.9286662960D+01  0.4679413484D+00
      0.3163926960D+01  0.3623119853D+00
 SP   3 1.00       0.000000000000
      0.7868272350D+01 -0.1193324198D+00  0.6899906659D-01
      0.1881288540D+01 -0.1608541517D+00  0.3164239610D+00
      0.5442492580D+00  0.1143456438D+01  0.7443082909D+00
 SP   1 1.00       0.000000000000
      0.1687144782D+00  0.1000000000D+01  0.1000000000D+01
 D   1 1.00       0.000000000000
      0.8000000000D+00  0.1000000000D+01
 ****
     23 0
 S   3 1.00       0.000000000000
      0.1873113696D+02  0.3349460434D-01
      0.2825394365D+01  0.2347269535D+00
      0.6401216923D+00  0.8137573261D+00
 S   1 1.00       0.000000000000
      0.1612777588D+00  0.1000000000D+01
 ****
     24 0
 S   3 1.00       0.000000000000
      0.1873113696D+02  0.3349460434D-01
      0.2825394365D+01  0.2347269535D+00
      0.6401216923D+00  0.8137573261D+00
 S   1 1.00       0.000000000000
      0.1612777588D+00  0.1000000000D+01
 ****
     25 0
 S   6 1.00       0.000000000000
      0.3047524880D+04  0.1834737132D-02
      0.4573695180D+03  0.1403732281D-01
      0.1039486850D+03  0.6884262226D-01
      0.2921015530D+02  0.2321844432D+00
      0.9286662960D+01  0.4679413484D+00
      0.3163926960D+01  0.3623119853D+00
 SP   3 1.00       0.000000000000
      0.7868272350D+01 -0.1193324198D+00  0.6899906659D-01
      0.1881288540D+01 -0.1608541517D+00  0.3164239610D+00
      0.5442492580D+00  0.1143456438D+01  0.7443082909D+00
 SP   1 1.00       0.000000000000
      0.1687144782D+00  0.1000000000D+01  0.1000000000D+01
 D   1 1.00       0.000000000000
      0.8000000000D+00  0.1000000000D+01
 ****
     26 0
 S   3 1.00       0.000000000000
      0.1873113696D+02  0.3349460434D-01
      0.2825394365D+01  0.2347269535D+00
      0.6401216923D+00  0.8137573261D+00
 S   1 1.00       0.000000000000
      0.1612777588D+00  0.1000000000D+01
 ****
     27 0
 S   3 1.00       0.000000000000
      0.1873113696D+02  0.3349460434D-01
      0.2825394365D+01  0.2347269535D+00
      0.6401216923D+00  0.8137573261D+00
 S   1 1.00       0.000000000000
      0.1612777588D+00  0.1000000000D+01
 ****
     28 0
 S   6 1.00       0.000000000000
      0.3047524880D+04  0.1834737132D-02
      0.4573695180D+03  0.1403732281D-01
      0.1039486850D+03  0.6884262226D-01
      0.2921015530D+02  0.2321844432D+00
      0.9286662960D+01  0.4679413484D+00
      0.3163926960D+01  0.3623119853D+00
 SP   3 1.00       0.000000000000
      0.7868272350D+01 -0.1193324198D+00  0.6899906659D-01
      0.1881288540D+01 -0.1608541517D+00  0.3164239610D+00
      0.5442492580D+00  0.1143456438D+01  0.7443082909D+00
 SP   1 1.00       0.000000000000
      0.1687144782D+00  0.1000000000D+01  0.1000000000D+01
 D   1 1.00       0.000000000000
      0.8000000000D+00  0.1000000000D+01
 ****
     29 0
 S   6 1.00       0.000000000000
      0.3047524880D+04  0.1834737132D-02
      0.4573695180D+03  0.1403732281D-01
      0.1039486850D+03  0.6884262226D-01
      0.2921015530D+02  0.2321844432D+00
      0.9286662960D+01  0.4679413484D+00
      0.3163926960D+01  0.3623119853D+00
 SP   3 1.00       0.000000000000
      0.7868272350D+01 -0.1193324198D+00  0.6899906659D-01
      0.1881288540D+01 -0.1608541517D+00  0.3164239610D+00
      0.5442492580D+00  0.1143456438D+01  0.7443082909D+00
 SP   1 1.00       0.000000000000
      0.1687144782D+00  0.1000000000D+01  0.1000000000D+01
 D   1 1.00       0.000000000000
      0.8000000000D+00  0.1000000000D+01
 ****
     30 0
 S   3 1.00       0.000000000000
      0.1873113696D+02  0.3349460434D-01
      0.2825394365D+01  0.2347269535D+00
      0.6401216923D+00  0.8137573261D+00
 S   1 1.00       0.000000000000
      0.1612777588D+00  0.1000000000D+01
 ****
     31 0
 S   6 1.00       0.000000000000
      0.3047524880D+04  0.1834737132D-02
      0.4573695180D+03  0.1403732281D-01
      0.1039486850D+03  0.6884262226D-01
      0.2921015530D+02  0.2321844432D+00
      0.9286662960D+01  0.4679413484D+00
      0.3163926960D+01  0.3623119853D+00
 SP   3 1.00       0.000000000000
      0.7868272350D+01 -0.1193324198D+00  0.6899906659D-01
      0.1881288540D+01 -0.1608541517D+00  0.3164239610D+00
      0.5442492580D+00  0.1143456438D+01  0.7443082909D+00
 SP   1 1.00       0.000000000000
      0.1687144782D+00  0.1000000000D+01  0.1000000000D+01
 D   1 1.00       0.000000000000
      0.8000000000D+00  0.1000000000D+01
 ****
     32 0
 S   3 1.00       0.000000000000
      0.1873113696D+02  0.3349460434D-01
      0.2825394365D+01  0.2347269535D+00
      0.6401216923D+00  0.8137573261D+00
 S   1 1.00       0.000000000000
      0.1612777588D+00  0.1000000000D+01
 ****
     33 0
 S   3 1.00       0.000000000000
      0.1873113696D+02  0.3349460434D-01
      0.2825394365D+01  0.2347269535D+00
      0.6401216923D+00  0.8137573261D+00
 S   1 1.00       0.000000000000
      0.1612777588D+00  0.1000000000D+01
 ****
     34 0
 S   6 1.00       0.000000000000
      0.3047524880D+04  0.1834737132D-02
      0.4573695180D+03  0.1403732281D-01
      0.1039486850D+03  0.6884262226D-01
      0.2921015530D+02  0.2321844432D+00
      0.9286662960D+01  0.4679413484D+00
      0.3163926960D+01  0.3623119853D+00
 SP   3 1.00       0.000000000000
      0.7868272350D+01 -0.1193324198D+00  0.6899906659D-01
      0.1881288540D+01 -0.1608541517D+00  0.3164239610D+00
      0.5442492580D+00  0.1143456438D+01  0.7443082909D+00
 SP   1 1.00       0.000000000000
      0.1687144782D+00  0.1000000000D+01  0.1000000000D+01
 D   1 1.00       0.000000000000
      0.8000000000D+00  0.1000000000D+01
 ****
     35 0
 S   3 1.00       0.000000000000
      0.1873113696D+02  0.3349460434D-01
      0.2825394365D+01  0.2347269535D+00
      0.6401216923D+00  0.8137573261D+00
 S   1 1.00       0.000000000000
      0.1612777588D+00  0.1000000000D+01
 ****
     36 0
 S   3 1.00       0.000000000000
      0.1873113696D+02  0.3349460434D-01
      0.2825394365D+01  0.2347269535D+00
      0.6401216923D+00  0.8137573261D+00
 S   1 1.00       0.000000000000
      0.1612777588D+00  0.1000000000D+01
 ****
     37 0
 S   6 1.00       0.000000000000
      0.3047524880D+04  0.1834737132D-02
      0.4573695180D+03  0.1403732281D-01
      0.1039486850D+03  0.6884262226D-01
      0.2921015530D+02  0.2321844432D+00
      0.9286662960D+01  0.4679413484D+00
      0.3163926960D+01  0.3623119853D+00
 SP   3 1.00       0.000000000000
      0.7868272350D+01 -0.1193324198D+00  0.6899906659D-01
      0.1881288540D+01 -0.1608541517D+00  0.3164239610D+00
      0.5442492580D+00  0.1143456438D+01  0.7443082909D+00
 SP   1 1.00       0.000000000000
      0.1687144782D+00  0.1000000000D+01  0.1000000000D+01
 D   1 1.00       0.000000000000
      0.8000000000D+00  0.1000000000D+01
 ****
     38 0
 S   3 1.00       0.000000000000
      0.1873113696D+02  0.3349460434D-01
      0.2825394365D+01  0.2347269535D+00
      0.6401216923D+00  0.8137573261D+00
 S   1 1.00       0.000000000000
      0.1612777588D+00  0.1000000000D+01
 ****
     39 0
 S   6 1.00       0.000000000000
      0.3047524880D+04  0.1834737132D-02
      0.4573695180D+03  0.1403732281D-01
      0.1039486850D+03  0.6884262226D-01
      0.2921015530D+02  0.2321844432D+00
      0.9286662960D+01  0.4679413484D+00
      0.3163926960D+01  0.3623119853D+00
 SP   3 1.00       0.000000000000
      0.7868272350D+01 -0.1193324198D+00  0.6899906659D-01
      0.1881288540D+01 -0.1608541517D+00  0.3164239610D+00
      0.5442492580D+00  0.1143456438D+01  0.7443082909D+00
 SP   1 1.00       0.000000000000
      0.1687144782D+00  0.1000000000D+01  0.1000000000D+01
 D   1 1.00       0.000000000000
      0.8000000000D+00  0.1000000000D+01
 ****
     40 0
 S   3 1.00       0.000000000000
      0.1873113696D+02  0.3349460434D-01
      0.2825394365D+01  0.2347269535D+00
      0.6401216923D+00  0.8137573261D+00
 S   1 1.00       0.000000000000
      0.1612777588D+00  0.1000000000D+01
 ****
     41 0
 S   3 1.00       0.000000000000
      0.1873113696D+02  0.3349460434D-01
      0.2825394365D+01  0.2347269535D+00
      0.6401216923D+00  0.8137573261D+00
 S   1 1.00       0.000000000000
      0.1612777588D+00  0.1000000000D+01
 ****
     42 0
 S   3 1.00       0.000000000000
      0.1873113696D+02  0.3349460434D-01
      0.2825394365D+01  0.2347269535D+00
      0.6401216923D+00  0.8137573261D+00
 S   1 1.00       0.000000000000
      0.1612777588D+00  0.1000000000D+01
 ****
     43 0
 S   6 1.00       0.000000000000
      0.3047524880D+04  0.1834737132D-02
      0.4573695180D+03  0.1403732281D-01
      0.1039486850D+03  0.6884262226D-01
      0.2921015530D+02  0.2321844432D+00
      0.9286662960D+01  0.4679413484D+00
      0.3163926960D+01  0.3623119853D+00
 SP   3 1.00       0.000000000000
      0.7868272350D+01 -0.1193324198D+00  0.6899906659D-01
      0.1881288540D+01 -0.1608541517D+00  0.3164239610D+00
      0.5442492580D+00  0.1143456438D+01  0.7443082909D+00
 SP   1 1.00       0.000000000000
      0.1687144782D+00  0.1000000000D+01  0.1000000000D+01
 D   1 1.00       0.000000000000
      0.8000000000D+00  0.1000000000D+01
 ****
     44 0
 S   3 1.00       0.000000000000
      0.1873113696D+02  0.3349460434D-01
      0.2825394365D+01  0.2347269535D+00
      0.6401216923D+00  0.8137573261D+00
 S   1 1.00       0.000000000000
      0.1612777588D+00  0.1000000000D+01
 ****
     45 0
 S   6 1.00       0.000000000000
      0.3047524880D+04  0.1834737132D-02
      0.4573695180D+03  0.1403732281D-01
      0.1039486850D+03  0.6884262226D-01
      0.2921015530D+02  0.2321844432D+00
      0.9286662960D+01  0.4679413484D+00
      0.3163926960D+01  0.3623119853D+00
 SP   3 1.00       0.000000000000
      0.7868272350D+01 -0.1193324198D+00  0.6899906659D-01
      0.1881288540D+01 -0.1608541517D+00  0.3164239610D+00
      0.5442492580D+00  0.1143456438D+01  0.7443082909D+00
 SP   1 1.00       0.000000000000
      0.1687144782D+00  0.1000000000D+01  0.1000000000D+01
 D   1 1.00       0.000000000000
      0.8000000000D+00  0.1000000000D+01
 ****
     46 0
 S   3 1.00       0.000000000000
      0.1873113696D+02  0.3349460434D-01
      0.2825394365D+01  0.2347269535D+00
      0.6401216923D+00  0.8137573261D+00
 S   1 1.00       0.000000000000
      0.1612777588D+00  0.1000000000D+01
 ****
     47 0
 S   3 1.00       0.000000000000
      0.1873113696D+02  0.3349460434D-01
      0.2825394365D+01  0.2347269535D+00
      0.6401216923D+00  0.8137573261D+00
 S   1 1.00       0.000000000000
      0.1612777588D+00  0.1000000000D+01
 ****
     48 0
 S   3 1.00       0.000000000000
      0.1873113696D+02  0.3349460434D-01
      0.2825394365D+01  0.2347269535D+00
      0.6401216923D+00  0.8137573261D+00
 S   1 1.00       0.000000000000
      0.1612777588D+00  0.1000000000D+01
 ****
     49 0
 S   6 1.00       0.000000000000
      0.3047524880D+04  0.1834737132D-02
      0.4573695180D+03  0.1403732281D-01
      0.1039486850D+03  0.6884262226D-01
      0.2921015530D+02  0.2321844432D+00
      0.9286662960D+01  0.4679413484D+00
      0.3163926960D+01  0.3623119853D+00
 SP   3 1.00       0.000000000000
      0.7868272350D+01 -0.1193324198D+00  0.6899906659D-01
      0.1881288540D+01 -0.1608541517D+00  0.3164239610D+00
      0.5442492580D+00  0.1143456438D+01  0.7443082909D+00
 SP   1 1.00       0.000000000000
      0.1687144782D+00  0.1000000000D+01  0.1000000000D+01
 D   1 1.00       0.000000000000
      0.8000000000D+00  0.1000000000D+01
 ****
     50 0
 S   3 1.00       0.000000000000
      0.1873113696D+02  0.3349460434D-01
      0.2825394365D+01  0.2347269535D+00
      0.6401216923D+00  0.8137573261D+00
 S   1 1.00       0.000000000000
      0.1612777588D+00  0.1000000000D+01
 ****
     51 0
 S   3 1.00       0.000000000000
      0.1873113696D+02  0.3349460434D-01
      0.2825394365D+01  0.2347269535D+00
      0.6401216923D+00  0.8137573261D+00
 S   1 1.00       0.000000000000
      0.1612777588D+00  0.1000000000D+01
 ****
     52 0
 S   3 1.00       0.000000000000
      0.1873113696D+02  0.3349460434D-01
      0.2825394365D+01  0.2347269535D+00
      0.6401216923D+00  0.8137573261D+00
 S   1 1.00       0.000000000000
      0.1612777588D+00  0.1000000000D+01
 ****
     53 0
 S   6 1.00       0.000000000000
      0.5484671660D+04  0.1831074430D-02
      0.8252349460D+03  0.1395017220D-01
      0.1880469580D+03  0.6844507810D-01
      0.5296450000D+02  0.2327143360D+00
      0.1689757040D+02  0.4701928980D+00
      0.5799635340D+01  0.3585208530D+00
 SP   3 1.00       0.000000000000
      0.1553961625D+02 -0.1107775495D+00  0.7087426823D-01
      0.3599933586D+01 -0.1480262627D+00  0.3397528391D+00
      0.1013761750D+01  0.1130767015D+01  0.7271585773D+00
 SP   1 1.00       0.000000000000
      0.2700058226D+00  0.1000000000D+01  0.1000000000D+01
 D   1 1.00       0.000000000000
      0.8000000000D+00  0.1000000000D+01
 ****
     54 0
 S   6 1.00       0.000000000000
      0.5484671660D+04  0.1831074430D-02
      0.8252349460D+03  0.1395017220D-01
      0.1880469580D+03  0.6844507810D-01
      0.5296450000D+02  0.2327143360D+00
      0.1689757040D+02  0.4701928980D+00
      0.5799635340D+01  0.3585208530D+00
 SP   3 1.00       0.000000000000
      0.1553961625D+02 -0.1107775495D+00  0.7087426823D-01
      0.3599933586D+01 -0.1480262627D+00  0.3397528391D+00
      0.1013761750D+01  0.1130767015D+01  0.7271585773D+00
 SP   1 1.00       0.000000000000
      0.2700058226D+00  0.1000000000D+01  0.1000000000D+01
 D   1 1.00       0.000000000000
      0.8000000000D+00  0.1000000000D+01
 ****
     55 0
 S   3 1.00       0.000000000000
      0.1873113696D+02  0.3349460434D-01
      0.2825394365D+01  0.2347269535D+00
      0.6401216923D+00  0.8137573261D+00
 S   1 1.00       0.000000000000
      0.1612777588D+00  0.1000000000D+01
 ****
     56 0
 S   6 1.00       0.000000000000
      0.5484671660D+04  0.1831074430D-02
      0.8252349460D+03  0.1395017220D-01
      0.1880469580D+03  0.6844507810D-01
      0.5296450000D+02  0.2327143360D+00
      0.1689757040D+02  0.4701928980D+00
      0.5799635340D+01  0.3585208530D+00
 SP   3 1.00       0.000000000000
      0.1553961625D+02 -0.1107775495D+00  0.7087426823D-01
      0.3599933586D+01 -0.1480262627D+00  0.3397528391D+00
      0.1013761750D+01  0.1130767015D+01  0.7271585773D+00
 SP   1 1.00       0.000000000000
      0.2700058226D+00  0.1000000000D+01  0.1000000000D+01
 D   1 1.00       0.000000000000
      0.8000000000D+00  0.1000000000D+01
 ****
     57 0
 S   3 1.00       0.000000000000
      0.1873113696D+02  0.3349460434D-01
      0.2825394365D+01  0.2347269535D+00
      0.6401216923D+00  0.8137573261D+00
 S   1 1.00       0.000000000000
      0.1612777588D+00  0.1000000000D+01
 ****
     58 0
 S   6 1.00       0.000000000000
      0.3047524880D+04  0.1834737132D-02
      0.4573695180D+03  0.1403732281D-01
      0.1039486850D+03  0.6884262226D-01
      0.2921015530D+02  0.2321844432D+00
      0.9286662960D+01  0.4679413484D+00
      0.3163926960D+01  0.3623119853D+00
 SP   3 1.00       0.000000000000
      0.7868272350D+01 -0.1193324198D+00  0.6899906659D-01
      0.1881288540D+01 -0.1608541517D+00  0.3164239610D+00
      0.5442492580D+00  0.1143456438D+01  0.7443082909D+00
 SP   1 1.00       0.000000000000
      0.1687144782D+00  0.1000000000D+01  0.1000000000D+01
 D   1 1.00       0.000000000000
      0.8000000000D+00  0.1000000000D+01
 ****
     59 0
 S   3 1.00       0.000000000000
      0.1873113696D+02  0.3349460434D-01
      0.2825394365D+01  0.2347269535D+00
      0.6401216923D+00  0.8137573261D+00
 S   1 1.00       0.000000000000
      0.1612777588D+00  0.1000000000D+01
 ****
     60 0
 S   3 1.00       0.000000000000
      0.1873113696D+02  0.3349460434D-01
      0.2825394365D+01  0.2347269535D+00
      0.6401216923D+00  0.8137573261D+00
 S   1 1.00       0.000000000000
      0.1612777588D+00  0.1000000000D+01
 ****
     61 0
 S   6 1.00       0.000000000000
      0.3047524880D+04  0.1834737132D-02
      0.4573695180D+03  0.1403732281D-01
      0.1039486850D+03  0.6884262226D-01
      0.2921015530D+02  0.2321844432D+00
      0.9286662960D+01  0.4679413484D+00
      0.3163926960D+01  0.3623119853D+00
 SP   3 1.00       0.000000000000
      0.7868272350D+01 -0.1193324198D+00  0.6899906659D-01
      0.1881288540D+01 -0.1608541517D+00  0.3164239610D+00
      0.5442492580D+00  0.1143456438D+01  0.7443082909D+00
 SP   1 1.00       0.000000000000
      0.1687144782D+00  0.1000000000D+01  0.1000000000D+01
 D   1 1.00       0.000000000000
      0.8000000000D+00  0.1000000000D+01
 ****
     62 0
 S   3 1.00       0.000000000000
      0.1873113696D+02  0.3349460434D-01
      0.2825394365D+01  0.2347269535D+00
      0.6401216923D+00  0.8137573261D+00
 S   1 1.00       0.000000000000
      0.1612777588D+00  0.1000000000D+01
 ****
     63 0
 S   3 1.00       0.000000000000
      0.1873113696D+02  0.3349460434D-01
      0.2825394365D+01  0.2347269535D+00
      0.6401216923D+00  0.8137573261D+00
 S   1 1.00       0.000000000000
      0.1612777588D+00  0.1000000000D+01
 ****
     64 0
 S   6 1.00       0.000000000000
      0.3047524880D+04  0.1834737132D-02
      0.4573695180D+03  0.1403732281D-01
      0.1039486850D+03  0.6884262226D-01
      0.2921015530D+02  0.2321844432D+00
      0.9286662960D+01  0.4679413484D+00
      0.3163926960D+01  0.3623119853D+00
 SP   3 1.00       0.000000000000
      0.7868272350D+01 -0.1193324198D+00  0.6899906659D-01
      0.1881288540D+01 -0.1608541517D+00  0.3164239610D+00
      0.5442492580D+00  0.1143456438D+01  0.7443082909D+00
 SP   1 1.00       0.000000000000
      0.1687144782D+00  0.1000000000D+01  0.1000000000D+01
 D   1 1.00       0.000000000000
      0.8000000000D+00  0.1000000000D+01
 ****
     65 0
 S   3 1.00       0.000000000000
      0.1873113696D+02  0.3349460434D-01
      0.2825394365D+01  0.2347269535D+00
      0.6401216923D+00  0.8137573261D+00
 S   1 1.00       0.000000000000
      0.1612777588D+00  0.1000000000D+01
 ****
     66 0
 S   3 1.00       0.000000000000
      0.1873113696D+02  0.3349460434D-01
      0.2825394365D+01  0.2347269535D+00
      0.6401216923D+00  0.8137573261D+00
 S   1 1.00       0.000000000000
      0.1612777588D+00  0.1000000000D+01
 ****
     67 0
 S   6 1.00       0.000000000000
      0.3047524880D+04  0.1834737132D-02
      0.4573695180D+03  0.1403732281D-01
      0.1039486850D+03  0.6884262226D-01
      0.2921015530D+02  0.2321844432D+00
      0.9286662960D+01  0.4679413484D+00
      0.3163926960D+01  0.3623119853D+00
 SP   3 1.00       0.000000000000
      0.7868272350D+01 -0.1193324198D+00  0.6899906659D-01
      0.1881288540D+01 -0.1608541517D+00  0.3164239610D+00
      0.5442492580D+00  0.1143456438D+01  0.7443082909D+00
 SP   1 1.00       0.000000000000
      0.1687144782D+00  0.1000000000D+01  0.1000000000D+01
 D   1 1.00       0.000000000000
      0.8000000000D+00  0.1000000000D+01
 ****
     68 0
 S   3 1.00       0.000000000000
      0.1873113696D+02  0.3349460434D-01
      0.2825394365D+01  0.2347269535D+00
      0.6401216923D+00  0.8137573261D+00
 S   1 1.00       0.000000000000
      0.1612777588D+00  0.1000000000D+01
 ****
     69 0
 S   6 1.00       0.000000000000
      0.3047524880D+04  0.1834737132D-02
      0.4573695180D+03  0.1403732281D-01
      0.1039486850D+03  0.6884262226D-01
      0.2921015530D+02  0.2321844432D+00
      0.9286662960D+01  0.4679413484D+00
      0.3163926960D+01  0.3623119853D+00
 SP   3 1.00       0.000000000000
      0.7868272350D+01 -0.1193324198D+00  0.6899906659D-01
      0.1881288540D+01 -0.1608541517D+00  0.3164239610D+00
      0.5442492580D+00  0.1143456438D+01  0.7443082909D+00
 SP   1 1.00       0.000000000000
      0.1687144782D+00  0.1000000000D+01  0.1000000000D+01
 D   1 1.00       0.000000000000
      0.8000000000D+00  0.1000000000D+01
 ****
     70 0
 S   3 1.00       0.000000000000
      0.1873113696D+02  0.3349460434D-01
      0.2825394365D+01  0.2347269535D+00
      0.6401216923D+00  0.8137573261D+00
 S   1 1.00       0.000000000000
      0.1612777588D+00  0.1000000000D+01
 ****
     71 0
 S   3 1.00       0.000000000000
      0.1873113696D+02  0.3349460434D-01
      0.2825394365D+01  0.2347269535D+00
      0.6401216923D+00  0.8137573261D+00
 S   1 1.00       0.000000000000
      0.1612777588D+00  0.1000000000D+01
 ****
     72 0
 S   3 1.00       0.000000000000
      0.1873113696D+02  0.3349460434D-01
      0.2825394365D+01  0.2347269535D+00
      0.6401216923D+00  0.8137573261D+00
 S   1 1.00       0.000000000000
      0.1612777588D+00  0.1000000000D+01
 ****
     73 0
 S   6 1.00       0.000000000000
      0.3047524880D+04  0.1834737132D-02
      0.4573695180D+03  0.1403732281D-01
      0.1039486850D+03  0.6884262226D-01
      0.2921015530D+02  0.2321844432D+00
      0.9286662960D+01  0.4679413484D+00
      0.3163926960D+01  0.3623119853D+00
 SP   3 1.00       0.000000000000
      0.7868272350D+01 -0.1193324198D+00  0.6899906659D-01
      0.1881288540D+01 -0.1608541517D+00  0.3164239610D+00
      0.5442492580D+00  0.1143456438D+01  0.7443082909D+00
 SP   1 1.00       0.000000000000
      0.1687144782D+00  0.1000000000D+01  0.1000000000D+01
 D   1 1.00       0.000000000000
      0.8000000000D+00  0.1000000000D+01
 ****
     74 0
 S   3 1.00       0.000000000000
      0.1873113696D+02  0.3349460434D-01
      0.2825394365D+01  0.2347269535D+00
      0.6401216923D+00  0.8137573261D+00
 S   1 1.00       0.000000000000
      0.1612777588D+00  0.1000000000D+01
 ****
     75 0
 S   3 1.00       0.000000000000
      0.1873113696D+02  0.3349460434D-01
      0.2825394365D+01  0.2347269535D+00
      0.6401216923D+00  0.8137573261D+00
 S   1 1.00       0.000000000000
      0.1612777588D+00  0.1000000000D+01
 ****
     76 0
 S   3 1.00       0.000000000000
      0.1873113696D+02  0.3349460434D-01
      0.2825394365D+01  0.2347269535D+00
      0.6401216923D+00  0.8137573261D+00
 S   1 1.00       0.000000000000
      0.1612777588D+00  0.1000000000D+01
 ****

 AO basis set (Overlap normalization):
 Atom C1       Shell     1 S   6     bf    1 -     1         14.210549430193          4.184966291161          0.121134544269
      0.3047524880D+04  0.1834737132D-02
      0.4573695180D+03  0.1403732281D-01
      0.1039486850D+03  0.6884262226D-01
      0.2921015530D+02  0.2321844432D+00
      0.9286662960D+01  0.4679413484D+00
      0.3163926960D+01  0.3623119853D+00
 Atom C1       Shell     2 SP   3    bf    2 -     5         14.210549430193          4.184966291161          0.121134544269
      0.7868272350D+01 -0.1193324198D+00  0.6899906659D-01
      0.1881288540D+01 -0.1608541517D+00  0.3164239610D+00
      0.5442492580D+00  0.1143456438D+01  0.7443082909D+00
 Atom C1       Shell     3 SP   1    bf    6 -     9         14.210549430193          4.184966291161          0.121134544269
      0.1687144782D+00  0.1000000000D+01  0.1000000000D+01
 Atom C1       Shell     4 D   1     bf   10 -    15         14.210549430193          4.184966291161          0.121134544269
      0.8000000000D+00  0.1000000000D+01
 Atom H2       Shell     5 S   3     bf   16 -    16         13.902031683492          4.124531035295          2.170040907581
      0.1873113696D+02  0.3349460434D-01
      0.2825394365D+01  0.2347269535D+00
      0.6401216923D+00  0.8137573261D+00
 Atom H2       Shell     6 S   1     bf   17 -    17         13.902031683492          4.124531035295          2.170040907581
      0.1612777588D+00  0.1000000000D+01
 Atom C3       Shell     7 S   6     bf   18 -    18         12.900618883776          1.902827906521         -1.099236551684
      0.3047524880D+04  0.1834737132D-02
      0.4573695180D+03  0.1403732281D-01
      0.1039486850D+03  0.6884262226D-01
      0.2921015530D+02  0.2321844432D+00
      0.9286662960D+01  0.4679413484D+00
      0.3163926960D+01  0.3623119853D+00
 Atom C3       Shell     8 SP   3    bf   19 -    22         12.900618883776          1.902827906521         -1.099236551684
      0.7868272350D+01 -0.1193324198D+00  0.6899906659D-01
      0.1881288540D+01 -0.1608541517D+00  0.3164239610D+00
      0.5442492580D+00  0.1143456438D+01  0.7443082909D+00
 Atom C3       Shell     9 SP   1    bf   23 -    26         12.900618883776          1.902827906521         -1.099236551684
      0.1687144782D+00  0.1000000000D+01  0.1000000000D+01
 Atom C3       Shell    10 D   1     bf   27 -    32         12.900618883776          1.902827906521         -1.099236551684
      0.8000000000D+00  0.1000000000D+01
 Atom H4       Shell    11 S   3     bf   33 -    33         13.621418199786          0.151897395986         -0.268255581865
      0.1873113696D+02  0.3349460434D-01
      0.2825394365D+01  0.2347269535D+00
      0.6401216923D+00  0.8137573261D+00
 Atom H4       Shell    12 S   1     bf   34 -    34         13.621418199786          0.151897395986         -0.268255581865
      0.1612777588D+00  0.1000000000D+01
 Atom H5       Shell    13 S   3     bf   35 -    35         13.434776582580          1.871835963305         -3.112399595569
      0.1873113696D+02  0.3349460434D-01
      0.2825394365D+01  0.2347269535D+00
      0.6401216923D+00  0.8137573261D+00
 Atom H5       Shell    14 S   1     bf   36 -    36         13.434776582580          1.871835963305         -3.112399595569
      0.1612777588D+00  0.1000000000D+01
 Atom C6       Shell    15 S   6     bf   37 -    37         10.044885614336          2.007165034243         -0.865720372237
      0.3047524880D+04  0.1834737132D-02
      0.4573695180D+03  0.1403732281D-01
      0.1039486850D+03  0.6884262226D-01
      0.2921015530D+02  0.2321844432D+00
      0.9286662960D+01  0.4679413484D+00
      0.3163926960D+01  0.3623119853D+00
 Atom C6       Shell    16 SP   3    bf   38 -    41         10.044885614336          2.007165034243         -0.865720372237
      0.7868272350D+01 -0.1193324198D+00  0.6899906659D-01
      0.1881288540D+01 -0.1608541517D+00  0.3164239610D+00
      0.5442492580D+00  0.1143456438D+01  0.7443082909D+00
 Atom C6       Shell    17 SP   1    bf   42 -    45         10.044885614336          2.007165034243         -0.865720372237
      0.1687144782D+00  0.1000000000D+01  0.1000000000D+01
 Atom C6       Shell    18 D   1     bf   46 -    51         10.044885614336          2.007165034243         -0.865720372237
      0.8000000000D+00  0.1000000000D+01
 Atom C7       Shell    19 S   6     bf   52 -    52          8.739144968700          4.457256816265         -1.686186943647
      0.3047524880D+04  0.1834737132D-02
      0.4573695180D+03  0.1403732281D-01
      0.1039486850D+03  0.6884262226D-01
      0.2921015530D+02  0.2321844432D+00
      0.9286662960D+01  0.4679413484D+00
      0.3163926960D+01  0.3623119853D+00
 Atom C7       Shell    20 SP   3    bf   53 -    56          8.739144968700          4.457256816265         -1.686186943647
      0.7868272350D+01 -0.1193324198D+00  0.6899906659D-01
      0.1881288540D+01 -0.1608541517D+00  0.3164239610D+00
      0.5442492580D+00  0.1143456438D+01  0.7443082909D+00
 Atom C7       Shell    21 SP   1    bf   57 -    60          8.739144968700          4.457256816265         -1.686186943647
      0.1687144782D+00  0.1000000000D+01  0.1000000000D+01
 Atom C7       Shell    22 D   1     bf   61 -    66          8.739144968700          4.457256816265         -1.686186943647
      0.8000000000D+00  0.1000000000D+01
 Atom C8       Shell    23 S   6     bf   67 -    67         10.226863840980          6.736590828427         -0.550889352882
      0.3047524880D+04  0.1834737132D-02
      0.4573695180D+03  0.1403732281D-01
      0.1039486850D+03  0.6884262226D-01
      0.2921015530D+02  0.2321844432D+00
      0.9286662960D+01  0.4679413484D+00
      0.3163926960D+01  0.3623119853D+00
 Atom C8       Shell    24 SP   3    bf   68 -    71         10.226863840980          6.736590828427         -0.550889352882
      0.7868272350D+01 -0.1193324198D+00  0.6899906659D-01
      0.1881288540D+01 -0.1608541517D+00  0.3164239610D+00
      0.5442492580D+00  0.1143456438D+01  0.7443082909D+00
 Atom C8       Shell    25 SP   1    bf   72 -    75         10.226863840980          6.736590828427         -0.550889352882
      0.1687144782D+00  0.1000000000D+01  0.1000000000D+01
 Atom C8       Shell    26 D   1     bf   76 -    81         10.226863840980          6.736590828427         -0.550889352882
      0.8000000000D+00  0.1000000000D+01
 Atom H9       Shell    27 S   3     bf   82 -    82          9.843643368314          6.811772373199          1.488773944175
      0.1873113696D+02  0.3349460434D-01
      0.2825394365D+01  0.2347269535D+00
      0.6401216923D+00  0.8137573261D+00
 Atom H9       Shell    28 S   1     bf   83 -    83          9.843643368314          6.811772373199          1.488773944175
      0.1612777588D+00  0.1000000000D+01
 Atom H10      Shell    29 S   3     bf   84 -    84          9.501670477074          8.502660577519         -1.349567873308
      0.1873113696D+02  0.3349460434D-01
      0.2825394365D+01  0.2347269535D+00
      0.6401216923D+00  0.8137573261D+00
 Atom H10      Shell    30 S   1     bf   85 -    85          9.501670477074          8.502660577519         -1.349567873308
      0.1612777588D+00  0.1000000000D+01
 Atom C11      Shell    31 S   6     bf   86 -    86         13.103570878413          6.636001122113         -0.931836617291
      0.3047524880D+04  0.1834737132D-02
      0.4573695180D+03  0.1403732281D-01
      0.1039486850D+03  0.6884262226D-01
      0.2921015530D+02  0.2321844432D+00
      0.9286662960D+01  0.4679413484D+00
      0.3163926960D+01  0.3623119853D+00
 Atom C11      Shell    32 SP   3    bf   87 -    90         13.103570878413          6.636001122113         -0.931836617291
      0.7868272350D+01 -0.1193324198D+00  0.6899906659D-01
      0.1881288540D+01 -0.1608541517D+00  0.3164239610D+00
      0.5442492580D+00  0.1143456438D+01  0.7443082909D+00
 Atom C11      Shell    33 SP   1    bf   91 -    94         13.103570878413          6.636001122113         -0.931836617291
      0.1687144782D+00  0.1000000000D+01  0.1000000000D+01
 Atom C11      Shell    34 D   1     bf   95 -   100         13.103570878413          6.636001122113         -0.931836617291
      0.8000000000D+00  0.1000000000D+01
 Atom H12      Shell    35 S   3     bf  101 -   101         13.575419317739          6.778392685425         -2.951458990763
      0.1873113696D+02  0.3349460434D-01
      0.2825394365D+01  0.2347269535D+00
      0.6401216923D+00  0.8137573261D+00
 Atom H12      Shell    36 S   1     bf  102 -   102         13.575419317739          6.778392685425         -2.951458990763
      0.1612777588D+00  0.1000000000D+01
 Atom H13      Shell    37 S   3     bf  103 -   103         13.996277692561          8.255872983723          0.000000000000
      0.1873113696D+02  0.3349460434D-01
      0.2825394365D+01  0.2347269535D+00
      0.6401216923D+00  0.8137573261D+00
 Atom H13      Shell    38 S   1     bf  104 -   104         13.996277692561          8.255872983723          0.000000000000
      0.1612777588D+00  0.1000000000D+01
 Atom C14      Shell    39 S   6     bf  105 -   105          8.768479017385          0.000000000000          0.000000000000
      0.3047524880D+04  0.1834737132D-02
      0.4573695180D+03  0.1403732281D-01
      0.1039486850D+03  0.6884262226D-01
      0.2921015530D+02  0.2321844432D+00
      0.9286662960D+01  0.4679413484D+00
      0.3163926960D+01  0.3623119853D+00
 Atom C14      Shell    40 SP   3    bf  106 -   109          8.768479017385          0.000000000000          0.000000000000
      0.7868272350D+01 -0.1193324198D+00  0.6899906659D-01
      0.1881288540D+01 -0.1608541517D+00  0.3164239610D+00
      0.5442492580D+00  0.1143456438D+01  0.7443082909D+00
 Atom C14      Shell    41 SP   1    bf  110 -   113          8.768479017385          0.000000000000          0.000000000000
      0.1687144782D+00  0.1000000000D+01  0.1000000000D+01
 Atom C14      Shell    42 D   1     bf  114 -   119          8.768479017385          0.000000000000          0.000000000000
      0.8000000000D+00  0.1000000000D+01
 Atom H15      Shell    43 S   3     bf  120 -   120          9.790681714741         -1.688220118891          0.574441689977
      0.1873113696D+02  0.3349460434D-01
      0.2825394365D+01  0.2347269535D+00
      0.6401216923D+00  0.8137573261D+00
 Atom H15      Shell    44 S   1     bf  121 -   121          9.790681714741         -1.688220118891          0.574441689977
      0.1612777588D+00  0.1000000000D+01
 Atom C16      Shell    45 S   6     bf  122 -   122          5.946831777553         -0.193591009471          0.194330156951
      0.3047524880D+04  0.1834737132D-02
      0.4573695180D+03  0.1403732281D-01
      0.1039486850D+03  0.6884262226D-01
      0.2921015530D+02  0.2321844432D+00
      0.9286662960D+01  0.4679413484D+00
      0.3163926960D+01  0.3623119853D+00
 Atom C16      Shell    46 SP   3    bf  123 -   126          5.946831777553         -0.193591009471          0.194330156951
      0.7868272350D+01 -0.1193324198D+00  0.6899906659D-01
      0.1881288540D+01 -0.1608541517D+00  0.3164239610D+00
      0.5442492580D+00  0.1143456438D+01  0.7443082909D+00
 Atom C16      Shell    47 SP   1    bf  127 -   130          5.946831777553         -0.193591009471          0.194330156951
      0.1687144782D+00  0.1000000000D+01  0.1000000000D+01
 Atom C16      Shell    48 D   1     bf  131 -   136          5.946831777553         -0.193591009471          0.194330156951
      0.8000000000D+00  0.1000000000D+01
 Atom H17      Shell    49 S   3     bf  137 -   137          5.378663997234         -0.394008276652          2.186015159425
      0.1873113696D+02  0.3349460434D-01
      0.2825394365D+01  0.2347269535D+00
      0.6401216923D+00  0.8137573261D+00
 Atom H17      Shell    50 S   1     bf  138 -   138          5.378663997234         -0.394008276652          2.186015159425
      0.1612777588D+00  0.1000000000D+01
 Atom C18      Shell    51 S   6     bf  139 -   139          4.503314657768          2.005328125955         -1.039866515541
      0.3047524880D+04  0.1834737132D-02
      0.4573695180D+03  0.1403732281D-01
      0.1039486850D+03  0.6884262226D-01
      0.2921015530D+02  0.2321844432D+00
      0.9286662960D+01  0.4679413484D+00
      0.3163926960D+01  0.3623119853D+00
 Atom C18      Shell    52 SP   3    bf  140 -   143          4.503314657768          2.005328125955         -1.039866515541
      0.7868272350D+01 -0.1193324198D+00  0.6899906659D-01
      0.1881288540D+01 -0.1608541517D+00  0.3164239610D+00
      0.5442492580D+00  0.1143456438D+01  0.7443082909D+00
 Atom C18      Shell    53 SP   1    bf  144 -   147          4.503314657768          2.005328125955         -1.039866515541
      0.1687144782D+00  0.1000000000D+01  0.1000000000D+01
 Atom C18      Shell    54 D   1     bf  148 -   153          4.503314657768          2.005328125955         -1.039866515541
      0.8000000000D+00  0.1000000000D+01
 Atom H19      Shell    55 S   3     bf  154 -   154          4.399575080347          1.586043571749         -3.068797037437
      0.1873113696D+02  0.3349460434D-01
      0.2825394365D+01  0.2347269535D+00
      0.6401216923D+00  0.8137573261D+00
 Atom H19      Shell    56 S   1     bf  155 -   155          4.399575080347          1.586043571749         -3.068797037437
      0.1612777588D+00  0.1000000000D+01
 Atom C20      Shell    57 S   6     bf  156 -   156          5.971955006189          4.519387383240         -0.632693839729
      0.3047524880D+04  0.1834737132D-02
      0.4573695180D+03  0.1403732281D-01
      0.1039486850D+03  0.6884262226D-01
      0.2921015530D+02  0.2321844432D+00
      0.9286662960D+01  0.4679413484D+00
      0.3163926960D+01  0.3623119853D+00
 Atom C20      Shell    58 SP   3    bf  157 -   160          5.971955006189          4.519387383240         -0.632693839729
      0.7868272350D+01 -0.1193324198D+00  0.6899906659D-01
      0.1881288540D+01 -0.1608541517D+00  0.3164239610D+00
      0.5442492580D+00  0.1143456438D+01  0.7443082909D+00
 Atom C20      Shell    59 SP   1    bf  161 -   164          5.971955006189          4.519387383240         -0.632693839729
      0.1687144782D+00  0.1000000000D+01  0.1000000000D+01
 Atom C20      Shell    60 D   1     bf  165 -   170          5.971955006189          4.519387383240         -0.632693839729
      0.8000000000D+00  0.1000000000D+01
 Atom H21      Shell    61 S   3     bf  171 -   171          6.166289055975          4.731022915123          1.430422716082
      0.1873113696D+02  0.3349460434D-01
      0.2825394365D+01  0.2347269535D+00
      0.6401216923D+00  0.8137573261D+00
 Atom H21      Shell    62 S   1     bf  172 -   172          6.166289055975          4.731022915123          1.430422716082
      0.1612777588D+00  0.1000000000D+01
 Atom C22      Shell    63 S   6     bf  173 -   173          4.428062682903          6.816820360823         -1.572402130124
      0.3047524880D+04  0.1834737132D-02
      0.4573695180D+03  0.1403732281D-01
      0.1039486850D+03  0.6884262226D-01
      0.2921015530D+02  0.2321844432D+00
      0.9286662960D+01  0.4679413484D+00
      0.3163926960D+01  0.3623119853D+00
 Atom C22      Shell    64 SP   3    bf  174 -   177          4.428062682903          6.816820360823         -1.572402130124
      0.7868272350D+01 -0.1193324198D+00  0.6899906659D-01
      0.1881288540D+01 -0.1608541517D+00  0.3164239610D+00
      0.5442492580D+00  0.1143456438D+01  0.7443082909D+00
 Atom C22      Shell    65 SP   1    bf  178 -   181          4.428062682903          6.816820360823         -1.572402130124
      0.1687144782D+00  0.1000000000D+01  0.1000000000D+01
 Atom C22      Shell    66 D   1     bf  182 -   187          4.428062682903          6.816820360823         -1.572402130124
      0.8000000000D+00  0.1000000000D+01
 Atom H23      Shell    67 S   3     bf  188 -   188          4.334036656853          6.799118691424         -3.639835217265
      0.1873113696D+02  0.3349460434D-01
      0.2825394365D+01  0.2347269535D+00
      0.6401216923D+00  0.8137573261D+00
 Atom H23      Shell    68 S   1     bf  189 -   189          4.334036656853          6.799118691424         -3.639835217265
      0.1612777588D+00  0.1000000000D+01
 Atom H24      Shell    69 S   3     bf  190 -   190          5.411579001353          8.564397646822         -1.059855207095
      0.1873113696D+02  0.3349460434D-01
      0.2825394365D+01  0.2347269535D+00
      0.6401216923D+00  0.8137573261D+00
 Atom H24      Shell    70 S   1     bf  191 -   191          5.411579001353          8.564397646822         -1.059855207095
      0.1612777588D+00  0.1000000000D+01
 Atom C25      Shell    71 S   6     bf  192 -   192          1.719832515888          6.939225367971         -0.510164337424
      0.3047524880D+04  0.1834737132D-02
      0.4573695180D+03  0.1403732281D-01
      0.1039486850D+03  0.6884262226D-01
      0.2921015530D+02  0.2321844432D+00
      0.9286662960D+01  0.4679413484D+00
      0.3163926960D+01  0.3623119853D+00
 Atom C25      Shell    72 SP   3    bf  193 -   196          1.719832515888          6.939225367971         -0.510164337424
      0.7868272350D+01 -0.1193324198D+00  0.6899906659D-01
      0.1881288540D+01 -0.1608541517D+00  0.3164239610D+00
      0.5442492580D+00  0.1143456438D+01  0.7443082909D+00
 Atom C25      Shell    73 SP   1    bf  197 -   200          1.719832515888          6.939225367971         -0.510164337424
      0.1687144782D+00  0.1000000000D+01  0.1000000000D+01
 Atom C25      Shell    74 D   1     bf  201 -   206          1.719832515888          6.939225367971         -0.510164337424
      0.8000000000D+00  0.1000000000D+01
 Atom H26      Shell    75 S   3     bf  207 -   207          1.803624295429          7.244303926495          1.542578547884
      0.1873113696D+02  0.3349460434D-01
      0.2825394365D+01  0.2347269535D+00
      0.6401216923D+00  0.8137573261D+00
 Atom H26      Shell    76 S   1     bf  208 -   208          1.803624295429          7.244303926495          1.542578547884
      0.1612777588D+00  0.1000000000D+01
 Atom H27      Shell    77 S   3     bf  209 -   209          0.762283396662          8.589482646298         -1.317492361127
      0.1873113696D+02  0.3349460434D-01
      0.2825394365D+01  0.2347269535D+00
      0.6401216923D+00  0.8137573261D+00
 Atom H27      Shell    78 S   1     bf  210 -   210          0.762283396662          8.589482646298         -1.317492361127
      0.1612777588D+00  0.1000000000D+01
 Atom C28      Shell    79 S   6     bf  211 -   211          0.238007963978          4.491881795767         -1.043633344436
      0.3047524880D+04  0.1834737132D-02
      0.4573695180D+03  0.1403732281D-01
      0.1039486850D+03  0.6884262226D-01
      0.2921015530D+02  0.2321844432D+00
      0.9286662960D+01  0.4679413484D+00
      0.3163926960D+01  0.3623119853D+00
 Atom C28      Shell    80 SP   3    bf  212 -   215          0.238007963978          4.491881795767         -1.043633344436
      0.7868272350D+01 -0.1193324198D+00  0.6899906659D-01
      0.1881288540D+01 -0.1608541517D+00  0.3164239610D+00
      0.5442492580D+00  0.1143456438D+01  0.7443082909D+00
 Atom C28      Shell    81 SP   1    bf  216 -   219          0.238007963978          4.491881795767         -1.043633344436
      0.1687144782D+00  0.1000000000D+01  0.1000000000D+01
 Atom C28      Shell    82 D   1     bf  220 -   225          0.238007963978          4.491881795767         -1.043633344436
      0.8000000000D+00  0.1000000000D+01
 Atom C29      Shell    83 S   6     bf  226 -   226          1.822675248184          2.269175335800          0.061333215931
      0.3047524880D+04  0.1834737132D-02
      0.4573695180D+03  0.1403732281D-01
      0.1039486850D+03  0.6884262226D-01
      0.2921015530D+02  0.2321844432D+00
      0.9286662960D+01  0.4679413484D+00
      0.3163926960D+01  0.3623119853D+00
 Atom C29      Shell    84 SP   3    bf  227 -   230          1.822675248184          2.269175335800          0.061333215931
      0.7868272350D+01 -0.1193324198D+00  0.6899906659D-01
      0.1881288540D+01 -0.1608541517D+00  0.3164239610D+00
      0.5442492580D+00  0.1143456438D+01  0.7443082909D+00
 Atom C29      Shell    85 SP   1    bf  231 -   234          1.822675248184          2.269175335800          0.061333215931
      0.1687144782D+00  0.1000000000D+01  0.1000000000D+01
 Atom C29      Shell    86 D   1     bf  235 -   240          1.822675248184          2.269175335800          0.061333215931
      0.8000000000D+00  0.1000000000D+01
 Atom H30      Shell    87 S   3     bf  241 -   241          2.100790589531          2.747718772459          2.071117883025
      0.1873113696D+02  0.3349460434D-01
      0.2825394365D+01  0.2347269535D+00
      0.6401216923D+00  0.8137573261D+00
 Atom H30      Shell    88 S   1     bf  242 -   242          2.100790589531          2.747718772459          2.071117883025
      0.1612777588D+00  0.1000000000D+01
 Atom C31      Shell    89 S   6     bf  243 -   243          0.000000000000          0.000000000000          0.000000000000
      0.3047524880D+04  0.1834737132D-02
      0.4573695180D+03  0.1403732281D-01
      0.1039486850D+03  0.6884262226D-01
      0.2921015530D+02  0.2321844432D+00
      0.9286662960D+01  0.4679413484D+00
      0.3163926960D+01  0.3623119853D+00
 Atom C31      Shell    90 SP   3    bf  244 -   247          0.000000000000          0.000000000000          0.000000000000
      0.7868272350D+01 -0.1193324198D+00  0.6899906659D-01
      0.1881288540D+01 -0.1608541517D+00  0.3164239610D+00
      0.5442492580D+00  0.1143456438D+01  0.7443082909D+00
 Atom C31      Shell    91 SP   1    bf  248 -   251          0.000000000000          0.000000000000          0.000000000000
      0.1687144782D+00  0.1000000000D+01  0.1000000000D+01
 Atom C31      Shell    92 D   1     bf  252 -   257          0.000000000000          0.000000000000          0.000000000000
      0.8000000000D+00  0.1000000000D+01
 Atom H32      Shell    93 S   3     bf  258 -   258          0.499381956952         -1.437521888040          1.400633791419
      0.1873113696D+02  0.3349460434D-01
      0.2825394365D+01  0.2347269535D+00
      0.6401216923D+00  0.8137573261D+00
 Atom H32      Shell    94 S   1     bf  259 -   259          0.499381956952         -1.437521888040          1.400633791419
      0.1612777588D+00  0.1000000000D+01
 Atom H33      Shell    95 S   3     bf  260 -   260          0.054713391904         -0.933016146549         -1.845292832248
      0.1873113696D+02  0.3349460434D-01
      0.2825394365D+01  0.2347269535D+00
      0.6401216923D+00  0.8137573261D+00
 Atom H33      Shell    96 S   1     bf  261 -   261          0.054713391904         -0.933016146549         -1.845292832248
      0.1612777588D+00  0.1000000000D+01
 Atom C34      Shell    97 S   6     bf  262 -   262         -2.633646078057          1.194347356123          0.520552747791
      0.3047524880D+04  0.1834737132D-02
      0.4573695180D+03  0.1403732281D-01
      0.1039486850D+03  0.6884262226D-01
      0.2921015530D+02  0.2321844432D+00
      0.9286662960D+01  0.4679413484D+00
      0.3163926960D+01  0.3623119853D+00
 Atom C34      Shell    98 SP   3    bf  263 -   266         -2.633646078057          1.194347356123          0.520552747791
      0.7868272350D+01 -0.1193324198D+00  0.6899906659D-01
      0.1881288540D+01 -0.1608541517D+00  0.3164239610D+00
      0.5442492580D+00  0.1143456438D+01  0.7443082909D+00
 Atom C34      Shell    99 SP   1    bf  267 -   270         -2.633646078057          1.194347356123          0.520552747791
      0.1687144782D+00  0.1000000000D+01  0.1000000000D+01
 Atom C34      Shell   100 D   1     bf  271 -   276         -2.633646078057          1.194347356123          0.520552747791
      0.8000000000D+00  0.1000000000D+01
 Atom H35      Shell   101 S   3     bf  277 -   277         -3.993864221083          0.616948093569         -0.927019573097
      0.1873113696D+02  0.3349460434D-01
      0.2825394365D+01  0.2347269535D+00
      0.6401216923D+00  0.8137573261D+00
 Atom H35      Shell   102 S   1     bf  278 -   278         -3.993864221083          0.616948093569         -0.927019573097
      0.1612777588D+00  0.1000000000D+01
 Atom H36      Shell   103 S   3     bf  279 -   279         -3.421005271228          0.574776436065          2.332535774337
      0.1873113696D+02  0.3349460434D-01
      0.2825394365D+01  0.2347269535D+00
      0.6401216923D+00  0.8137573261D+00
 Atom H36      Shell   104 S   1     bf  280 -   280         -3.421005271228          0.574776436065          2.332535774337
      0.1612777588D+00  0.1000000000D+01
 Atom C37      Shell   105 S   6     bf  281 -   281         -2.248214928171          4.118941187599          0.525200340242
      0.3047524880D+04  0.1834737132D-02
      0.4573695180D+03  0.1403732281D-01
      0.1039486850D+03  0.6884262226D-01
      0.2921015530D+02  0.2321844432D+00
      0.9286662960D+01  0.4679413484D+00
      0.3163926960D+01  0.3623119853D+00
 Atom C37      Shell   106 SP   3    bf  282 -   285         -2.248214928171          4.118941187599          0.525200340242
      0.7868272350D+01 -0.1193324198D+00  0.6899906659D-01
      0.1881288540D+01 -0.1608541517D+00  0.3164239610D+00
      0.5442492580D+00  0.1143456438D+01  0.7443082909D+00
[...]
 1612 Fit       0.004363
 1613 Fit       0.004662
 1614 Fit       0.002863
 1615 Fit       0.004881
 1616 Fit       0.007623
 1617 Fit       0.007312
 1618 Fit       0.004704
 1619 Fit       0.007709
 1620 Fit       0.000162
 1621 Fit      -0.001131
 1622 Fit      -0.001146
 1623 Fit      -0.001377
 1624 Fit      -0.001582
 1625 Fit      -0.001387
 1626 Fit       0.001228
 1627 Fit      -0.001803
 1628 Fit      -0.001760
 1629 Fit      -0.001545
 1630 Fit      -0.001271
 1631 Fit      -0.000256
 1632 Fit      -0.000823
 1633 Fit       0.002536
 1634 Fit       0.001785
 1635 Fit       0.000395
 1636 Fit      -0.001438
 1637 Fit       0.005087
 1638 Fit       0.003990
 1639 Fit       0.002723
 1640 Fit       0.000797
 1641 Fit       0.004466
 1642 Fit       0.002941
 1643 Fit       0.000435
 1644 Fit       0.003795
 1645 Fit       0.004107
 1646 Fit       0.003241
 1647 Fit       0.002714
 1648 Fit       0.002341
 1649 Fit       0.002941
 1650 Fit       0.001447
 1651 Fit       0.001287
 1652 Fit       0.001001
 1653 Fit       0.000508
 1654 Fit       0.000079
 1655 Fit       0.000219
 1656 Fit       0.000045
 1657 Fit       0.001410
 1658 Fit       0.001738
 1659 Fit      -0.000107
 1660 Fit       0.001978
 1661 Fit       0.003256
 1662 Fit       0.003633
 1663 Fit       0.003372
 1664 Fit      -0.000526
 1665 Fit       0.001904
 1666 Fit       0.003605
 1667 Fit       0.004525
 1668 Fit       0.000715
 1669 Fit       0.003092
 1670 Fit      -0.001603
 1671 Fit      -0.007664
 1672 Fit      -0.003437
 1673 Fit       0.001465
 1674 Fit       0.001659
 1675 Fit      -0.001386
 1676 Fit      -0.005270
 1677 Fit      -0.014281
 1678 Fit      -0.005069
 1679 Fit       0.001687
 1680 Fit       0.000181
 1681 Fit      -0.003321
 1682 Fit      -0.004050
 1683 Fit      -0.008642
 1684 Fit      -0.016245
 1685 Fit      -0.010638
 1686 Fit      -0.004677
 1687 Fit      -0.001145
 1688 Fit      -0.005155
 1689 Fit      -0.004362
 1690 Fit      -0.009585
 1691 Fit      -0.003926
 1692 Fit      -0.005556
 1693 Fit      -0.011842
 1694 Fit      -0.005007
 1695 Fit      -0.004781
 1696 Fit      -0.007865
 1697 Fit      -0.004370
 1698 Fit       0.005438
 1699 Fit       0.016762
 1700 Fit      -0.007267
 1701 Fit      -0.003603
 1702 Fit       0.000992
 1703 Fit       0.006794
 1704 Fit       0.011617
 1705 Fit       0.001546
 1706 Fit       0.005145
 1707 Fit       0.004678
 1708 Fit       0.005911
 1709 Fit       0.005182
 1710 Fit       0.004169
 1711 Fit       0.004429
 1712 Fit       0.005548
 1713 Fit       0.006752
 1714 Fit       0.005443
 1715 Fit       0.004365
 1716 Fit       0.004001
 1717 Fit       0.004736
 1718 Fit       0.005865
 1719 Fit       0.005641
 1720 Fit       0.005970
 1721 Fit       0.007260
 1722 Fit       0.006821
 1723 Fit       0.008036
 1724 Fit       0.007142
 1725 Fit       0.008243
 1726 Fit       0.003471
 1727 Fit       0.003897
 1728 Fit       0.005554
 1729 Fit       0.006523
 1730 Fit       0.003885
 1731 Fit       0.017066
 1732 Fit       0.009274
 1733 Fit       0.006724
 1734 Fit       0.006683
 1735 Fit       0.013394
 1736 Fit       0.009315
 1737 Fit       0.008042
 1738 Fit       0.000437
 1739 Fit      -0.006866
 1740 Fit      -0.000684
 1741 Fit       0.002748
 1742 Fit      -0.005083
 1743 Fit       0.000436
 1744 Fit       0.003009
 1745 Fit      -0.007061
 1746 Fit      -0.000691
 1747 Fit       0.002376
 1748 Fit       0.004057
 1749 Fit      -0.003934
 1750 Fit       0.000392
 1751 Fit       0.002778
 1752 Fit       0.004482
 1753 Fit       0.002641
 1754 Fit      -0.001281
 1755 Fit      -0.004464
 1756 Fit      -0.002587
 1757 Fit      -0.004055
 1758 Fit      -0.004670
 1759 Fit      -0.024264
 1760 Fit      -0.012632
 1761 Fit      -0.020485
 1762 Fit      -0.017076
 1763 Fit      -0.004391
 1764 Fit      -0.007836
 1765 Fit      -0.005409
 1766 Fit      -0.007799
 1767 Fit      -0.003802
 1768 Fit      -0.006882
 1769 Fit      -0.009265
 1770 Fit      -0.017509
 1771 Fit       0.006337
 1772 Fit       0.002540
 1773 Fit       0.005820
 1774 Fit       0.008539
 1775 Fit       0.008894
 1776 Fit       0.007558
 1777 Fit       0.002954
 1778 Fit       0.013174
 1779 Fit      -0.002751
 1780 Fit       0.007130
 1781 Fit       0.005707
 1782 Fit       0.007125
 1783 Fit       0.007703
 1784 Fit       0.008965
 1785 Fit       0.005446
 1786 Fit       0.007098
 1787 Fit       0.005468
 1788 Fit       0.005884
 1789 Fit       0.005485
 1790 Fit       0.005750
 1791 Fit       0.005870
 1792 Fit       0.006136
 1793 Fit       0.006606
 1794 Fit       0.005971
 1795 Fit       0.007238
 1796 Fit       0.006180
 1797 Fit       0.007514
 1798 Fit       0.006191
 1799 Fit       0.008051
 1800 Fit       0.006029
 1801 Fit       0.004576
 1802 Fit       0.004851
 1803 Fit       0.007610
 1804 Fit       0.009187
 1805 Fit       0.006120
 1806 Fit       0.004291
 1807 Fit       0.005278
 1808 Fit       0.005805
 1809 Fit       0.006128
 1810 Fit       0.005797
 1811 Fit       0.006319
 1812 Fit       0.005853
 1813 Fit       0.008007
 1814 Fit       0.008595
 1815 Fit       0.008546
 1816 Fit       0.008727
 1817 Fit       0.007782
 1818 Fit       0.008927
 1819 Fit       0.002467
 1820 Fit       0.001150
 1821 Fit       0.002773
 1822 Fit       0.008319
 1823 Fit       0.008969
 1824 Fit       0.011702
 1825 Fit       0.007779
 1826 Fit       0.013694
 1827 Fit       0.006430
 1828 Fit       0.014281
 1829 Fit       0.010645
 1830 Fit       0.000553
 1831 Fit      -0.000820
 1832 Fit       0.003456
 1833 Fit       0.000320
 1834 Fit      -0.003609
 1835 Fit      -0.013154
 1836 Fit      -0.001216
 1837 Fit      -0.007066
 1838 Fit       0.001097
 1839 Fit       0.000948
 1840 Fit       0.001184
 1841 Fit       0.002148
 1842 Fit       0.001139
 1843 Fit       0.001140
 1844 Fit       0.001388
 1845 Fit       0.001159
 1846 Fit       0.002887
 1847 Fit       0.002424
 1848 Fit       0.001663
 1849 Fit       0.003809
 1850 Fit       0.002670
 1851 Fit       0.004921
 1852 Fit       0.005559
 1853 Fit       0.006212
 1854 Fit       0.005685
 1855 Fit       0.004939
 1856 Fit       0.004951
 1857 Fit       0.005348
 1858 Fit       0.006110
 1859 Fit       0.004184
 1860 Fit       0.003974
 1861 Fit       0.004277
 1862 Fit       0.005183
 1863 Fit       0.006863
 1864 Fit       0.002554
 1865 Fit       0.002366
 1866 Fit       0.002676
 1867 Fit       0.003586
 1868 Fit       0.005861
 1869 Fit       0.008017
 1870 Fit       0.005396
 1871 Fit       0.006742
 1872 Fit      -0.003244
 1873 Fit       0.003248
 1874 Fit      -0.000168
 1875 Fit       0.001458
 1876 Fit       0.001039
 1877 Fit      -0.000195
 1878 Fit      -0.000638
 1879 Fit      -0.000189
 1880 Fit       0.000031
 1881 Fit      -0.000260
 1882 Fit       0.003416
 1883 Fit       0.003124
 1884 Fit       0.001229
 1885 Fit       0.001184
 1886 Fit       0.004923
 1887 Fit       0.002590
 1888 Fit       0.000983
 1889 Fit      -0.001623
 1890 Fit       0.000077
 1891 Fit       0.000474
 1892 Fit       0.006465
 1893 Fit       0.006582
 1894 Fit       0.004683
 1895 Fit       0.005165
 1896 Fit       0.002892
 1897 Fit       0.003194
 1898 Fit       0.001429
 1899 Fit       0.004224
 1900 Fit       0.003893
 1901 Fit       0.003642
 1902 Fit       0.003509
 1903 Fit       0.003478
 1904 Fit       0.003127
 1905 Fit       0.002716
 1906 Fit       0.002260
 1907 Fit       0.001090
 1908 Fit       0.001223
 1909 Fit       0.001014
 1910 Fit       0.000579
 1911 Fit       0.000121
 1912 Fit       0.000097
 1913 Fit      -0.000125
 1914 Fit      -0.000317
 1915 Fit      -0.000668
 1916 Fit      -0.000837
 1917 Fit      -0.000858
 1918 Fit      -0.000551
 1919 Fit      -0.000365
 1920 Fit       0.003925
 1921 Fit       0.001293
 1922 Fit       0.005094
 1923 Fit       0.002634
 1924 Fit       0.000648
 1925 Fit       0.003634
 1926 Fit       0.001706
 1927 Fit      -0.000091
 1928 Fit      -0.000007
 1929 Fit       0.001367
 1930 Fit       0.003701
 1931 Fit       0.002760
 1932 Fit       0.003893
 1933 Fit       0.003619
 1934 Fit       0.003016
 1935 Fit       0.001893
 1936 Fit       0.002425
 1937 Fit       0.002724
 1938 Fit       0.002296
 1939 Fit       0.001227
 1940 Fit       0.000996
 1941 Fit       0.001277
 1942 Fit       0.000588
 1943 Fit       0.002395
 1944 Fit       0.000659
 1945 Fit       0.002568
 1946 Fit       0.004458
 1947 Fit      -0.000008
 1948 Fit       0.001924
 1949 Fit       0.003520
 1950 Fit       0.001218
 1951 Fit       0.001850
 1952 Fit       0.007172
 1953 Fit      -0.003954
 1954 Fit       0.003921
 1955 Fit      -0.000123
 1956 Fit       0.003239
 1957 Fit       0.003224
 1958 Fit       0.002944
 1959 Fit       0.002048
 1960 Fit       0.001221
 1961 Fit       0.001815
 1962 Fit       0.007173
 1963 Fit       0.007726
 1964 Fit       0.007811
 1965 Fit       0.006179
 1966 Fit       0.006649
 1967 Fit       0.006646
 1968 Fit       0.006319
 1969 Fit       0.004671
 1970 Fit       0.004983
 1971 Fit       0.003826
 1972 Fit       0.011435
 1973 Fit       0.010028
 1974 Fit       0.006892
 1975 Fit       0.002964
 1976 Fit       0.008621
 1977 Fit       0.006385
 1978 Fit       0.005253
 1979 Fit       0.003515
 1980 Fit      -0.012387
 1981 Fit      -0.011923
 1982 Fit       0.003470
 1983 Fit      -0.000657
 1984 Fit      -0.003983
 1985 Fit      -0.003649
 1986 Fit       0.002303
 1987 Fit       0.000374
 1988 Fit      -0.000371
 1989 Fit       0.001152
 1990 Fit      -0.007111
 1991 Fit      -0.014476
 1992 Fit      -0.017840
 1993 Fit      -0.023923
 1994 Fit      -0.028902
 1995 Fit      -0.028165
 1996 Fit      -0.021480
 1997 Fit      -0.015294
 1998 Fit      -0.020674
 1999 Fit      -0.024377
 2000 Fit      -0.018413
 2001 Fit       0.001434
 2002 Fit      -0.006870
 2003 Fit      -0.001791
 2004 Fit       0.005127
 2005 Fit      -0.005018
 2006 Fit      -0.010644
 2007 Fit       0.005928
 2008 Fit      -0.005187
 2009 Fit      -0.012404
 2010 Fit      -0.014734
 2011 Fit      -0.005740
 2012 Fit      -0.013585
 2013 Fit      -0.018062
 2014 Fit      -0.018118
 2015 Fit      -0.008970
 2016 Fit      -0.016884
 2017 Fit      -0.021699
 2018 Fit      -0.022630
 2019 Fit      -0.026966
 2020 Fit      -0.012498
 2021 Fit      -0.018539
 2022 Fit      -0.023773
 2023 Fit      -0.026199
 2024 Fit      -0.027226
 2025 Fit       0.010749
 2026 Fit       0.013784
 2027 Fit       0.017607
 2028 Fit       0.015783
 2029 Fit       0.020168
 2030 Fit       0.018834
 2031 Fit       0.014220
 2032 Fit       0.018711
 2033 Fit       0.017439
 2034 Fit       0.013067
 2035 Fit       0.013652
 2036 Fit       0.012734
 2037 Fit       0.007718
 2038 Fit       0.003398
 2039 Fit       0.004119
 2040 Fit      -0.024357
 2041 Fit      -0.020245
 2042 Fit      -0.021614
 2043 Fit      -0.027073
 2044 Fit      -0.025758
 2045 Fit      -0.021953
 2046 Fit      -0.014292
 2047 Fit      -0.017916
 2048 Fit      -0.024206
 2049 Fit      -0.026787
 2050 Fit      -0.024231
 2051 Fit      -0.023615
 2052 Fit      -0.021938
 2053 Fit      -0.017313
 2054 Fit      -0.020947
 2055 Fit      -0.024070
 2056 Fit      -0.024580
 2057 Fit      -0.016075
 2058 Fit      -0.015823
 2059 Fit      -0.015464
 2060 Fit      -0.013595
 2061 Fit      -0.016979
 2062 Fit      -0.017563
 2063 Fit      -0.016808
 2064 Fit      -0.003463
 2065 Fit      -0.002663
 2066 Fit      -0.006553
 2067 Fit      -0.006143
 2068 Fit      -0.004411
 2069 Fit       0.001565
 2070 Fit       0.001793
 2071 Fit       0.001792
 2072 Fit       0.002507
 2073 Fit      -0.001174
 2074 Fit      -0.000665
 2075 Fit       0.000628
 2076 Fit       0.010927
 2077 Fit       0.011436
 2078 Fit       0.012230
 2079 Fit       0.009743
 2080 Fit       0.010206
 2081 Fit       0.016736
 2082 Fit       0.017940
 2083 Fit       0.016597
 2084 Fit       0.020291
 2085 Fit       0.000155
 2086 Fit       0.000475
 2087 Fit       0.005255
 2088 Fit       0.002469
 2089 Fit       0.006018
 2090 Fit       0.003181
 2091 Fit       0.003484
 2092 Fit       0.003992
 2093 Fit       0.003863
 2094 Fit       0.003841
 2095 Fit       0.002762
 2096 Fit       0.003468
 2097 Fit       0.004029
 2098 Fit       0.000621
 2099 Fit       0.001841
 2100 Fit       0.002646
 2101 Fit       0.000451
 2102 Fit       0.004282
 2103 Fit       0.003737
 2104 Fit       0.003156
 2105 Fit       0.004060
 2106 Fit       0.004178
 2107 Fit       0.003992
 2108 Fit       0.003744
 2109 Fit       0.003303
 2110 Fit       0.003655
 2111 Fit       0.004046
 2112 Fit       0.004372
 2113 Fit       0.003468
 2114 Fit      -0.000307
 2115 Fit       0.003113
 2116 Fit       0.003697
 2117 Fit       0.003473
 2118 Fit       0.002669
 2119 Fit       0.003536
 2120 Fit       0.003862
 2121 Fit       0.000260
 2122 Fit       0.001935
 2123 Fit       0.003114
 2124 Fit       0.000690
 2125 Fit       0.004784
 2126 Fit       0.005134
 2127 Fit       0.004475
 2128 Fit       0.005469
 2129 Fit       0.004795
 2130 Fit       0.003425
 2131 Fit       0.001416
 2132 Fit       0.003479
 2133 Fit       0.001129
 2134 Fit       0.002235
 2135 Fit       0.002323
 2136 Fit       0.002588
 2137 Fit       0.001763
 2138 Fit       0.001855
 2139 Fit       0.002864
 2140 Fit       0.003257
 2141 Fit       0.002913
 2142 Fit       0.002617
 2143 Fit       0.003360
 2144 Fit       0.003883
 2145 Fit       0.002947
 2146 Fit       0.003490
 2147 Fit       0.001459
 2148 Fit       0.001166
 2149 Fit       0.000990
 2150 Fit       0.000059
 2151 Fit       0.000065
 2152 Fit       0.002087
 2153 Fit       0.000554
 2154 Fit       0.000529
 2155 Fit      -0.000143
 2156 Fit       0.001301
 2157 Fit       0.002681
 2158 Fit       0.004163
 2159 Fit       0.001522
 2160 Fit       0.001686
 2161 Fit       0.001458
 2162 Fit       0.000718
 2163 Fit       0.003430
 2164 Fit       0.003506
 2165 Fit       0.003327
 2166 Fit       0.003273
 2167 Fit       0.004684
 2168 Fit       0.004728
 2169 Fit       0.004635
 2170 Fit       0.004271
 2171 Fit       0.004903
 2172 Fit       0.005326
 2173 Fit       0.003011
 2174 Fit       0.002408
 2175 Fit       0.003030
 2176 Fit       0.003598
 2177 Fit       0.003071
 2178 Fit       0.002266
 2179 Fit       0.002051
 2180 Fit       0.001288
 2181 Fit       0.001710
 2182 Fit       0.002244
 2183 Fit       0.002290
 2184 Fit       0.000940
 2185 Fit       0.001007
 2186 Fit       0.000223
 2187 Fit       0.000467
 2188 Fit       0.000691
 2189 Fit       0.002350
 2190 Fit       0.003398
 2191 Fit       0.003515
 2192 Fit       0.002206
 2193 Fit       0.003118
 2194 Fit       0.004956
 2195 Fit       0.006067
 2196 Fit       0.005473
 2197 Fit       0.003514
 2198 Fit       0.008130
 2199 Fit       0.005531
 2200 Fit       0.000817
 2201 Fit      -0.000151
 2202 Fit      -0.000616
 2203 Fit      -0.000351
 2204 Fit       0.000810
 2205 Fit      -0.000073
 2206 Fit      -0.000553
 2207 Fit      -0.001076
 2208 Fit      -0.001196
 2209 Fit      -0.000603
 2210 Fit      -0.001059
 2211 Fit      -0.000602
 2212 Fit       0.001340
 2213 Fit       0.000905
 2214 Fit       0.000028
 2215 Fit       0.003105
 2216 Fit       0.002313
 2217 Fit       0.001247
 2218 Fit      -0.000093
 2219 Fit       0.004757
 2220 Fit       0.003627
 2221 Fit       0.002469
 2222 Fit       0.000986
 2223 Fit       0.002536
 2224 Fit       0.000654
 2225 Fit       0.003203
 2226 Fit       0.003577
 2227 Fit       0.002820
 2228 Fit       0.002413
 2229 Fit       0.002248
 2230 Fit       0.002768
 2231 Fit       0.001876
 2232 Fit       0.001605
 2233 Fit       0.001347
 2234 Fit       0.001024
 2235 Fit       0.000809
 2236 Fit       0.000994
 2237 Fit       0.000043
 2238 Fit       0.000043
 2239 Fit      -0.000107
 2240 Fit      -0.000337
 2241 Fit      -0.000165
 2242 Fit       0.000798
 2243 Fit       0.001169
 2244 Fit       0.000708
 2245 Fit       0.001882
 2246 Fit       0.002496
 2247 Fit       0.002631
 2248 Fit      -0.000266
 2249 Fit       0.001365
 2250 Fit       0.002635
 2251 Fit       0.003381
 2252 Fit       0.003733
 2253 Fit      -0.000141
 2254 Fit       0.001568
 2255 Fit       0.002954
 2256 Fit       0.000661
 -----------------------------------------------------------------
 Leave Link  602 at Thu Apr 27 15:30:19 2017, MaxMem=    33554432 cpu:         5.0
 (Enter /home/michal/g09/l9999.exe)

 Test job not archived.
 1\1\GINC-LINUX\SP\RHF\6-31G(d)\C27H46O3\MICHAL\27-Apr-2017\0\\#P HF/6-
 31G* SCF(Conver=6) NoSymm Test Pop=mk IOp(6/33=2) GFInput GFPrint\\MEP
  - Input generated by R.E.D.-III.x MOLECULE\\0,1\C,0,7.51989888,2.2145
 8878,0.06410164\H,0,7.35663832,2.18260782,1.14833619\C,0,6.82671349,1.
 00693316,-0.58169093\H,0,7.20814406,0.08038064,-0.14195474\H,0,7.10937
 757,0.99053293,-1.64701093\C,0,5.31552453,1.06214599,-0.45811949\C,0,4
 .62455634,2.35867872,-0.8922917\C,0,5.41182326,3.56485033,-0.29151809\
 H,0,5.20903172,3.60463469,0.78782524\H,0,5.02806746,4.49941419,-0.7141
 6056\C,0,6.93411106,3.51162055,-0.4931067\H,0,7.1838025,3.58697092,-1.
 56184483\H,0,7.40651116,4.36881982,0.\C,0,4.64007925,0.,0.\H,0,5.18100
 562,-0.89336761,0.30398145\C,0,3.14692784,-0.10244395,0.10283509\H,0,2
 .8462664,-0.2085002,1.1567894\C,0,2.38305148,1.06117394,-0.55027366\H,
 0,2.32815486,0.83929811,-1.62393745\C,0,3.16022248,2.3915568,-0.334807
 16\H,0,3.26305963,2.5035495,0.7569471\C,0,2.34322985,3.60730597,-0.832
 07937\H,0,2.29347342,3.59793865,-1.92611784\H,0,2.86368427,4.53208404,
 -0.56085122\C,0,0.91009617,3.67207991,-0.26996734\H,0,0.95443687,3.833
 52053,0.81629741\H,0,0.403383,4.54535845,-0.69718693\C,0,0.12594839,2.
 37700147,-0.55226698\C,0,0.9645182,1.20079587,0.03245614\H,0,1.1116905
 ,1.45403015,1.09598838\C,0,0.,0.,0.\H,0,0.26426155,-0.76070382,0.74118
 348\H,0,0.02895308,-0.49373088,-0.97648691\C,0,-1.39366548,0.6320214,0
 .27546465\H,0,-2.11346192,0.32647487,-0.49055763\H,0,-1.81031802,0.304
 15859,1.23432477\C,0,-1.1897041,2.1796498,0.27792405\H,0,-0.9024072,2.
 44303128,1.30511351\C,0,-0.10666411,2.21587326,-2.07256503\H,0,0.82679
 838,2.0471575,-2.61539281\H,0,-0.76783816,1.37702187,-2.3039853\H,0,-0
 .5607192,3.1186693,-2.49087446\C,0,-2.50908604,2.96520113,0.0237259\H,
 0,-3.20918665,2.53251994,0.75739196\C,0,-3.17541457,2.77771033,-1.3544
 7697\H,0,-2.68103061,3.36528364,-2.13347644\H,0,-4.2166915,3.11606189,
 -1.30735566\H,0,-3.18803065,1.73393458,-1.68106588\C,0,4.65183368,2.43
 857135,-2.44214342\H,0,4.30620196,3.41429565,-2.79767312\H,0,5.6626916
 1,2.29341641,-2.83200731\H,0,4.02150219,1.66455884,-2.88996007\O,0,2.6
 8695232,-1.28848445,-0.5932331\O,0,3.1621388,-2.45263639,0.14783132\H,
 0,2.31606529,-2.8209104,0.45126144\O,0,8.94188589,2.15111564,-0.077022
 87\H,0,9.16043535,2.16884389,-1.01942019\C,0,-2.43841213,4.47673274,0.
 34787905\H,0,-1.71871737,4.96694797,-0.32101962\H,0,-3.41655171,4.9113
 8043,0.09668892\C,0,-2.11841221,4.84427621,1.8048933\H,0,-2.81664121,4
 .31462912,2.47044783\H,0,-1.11516128,4.49319108,2.06938649\C,0,-2.2212
 2459,6.35416405,2.069428\H,0,-3.21398458,6.69841068,1.74590761\H,0,-1.
 49495544,6.8855763,1.43521154\C,0,-2.01062651,6.78648395,3.53490048\H,
 0,-2.71710985,6.21284624,4.15479536\C,0,-0.59002383,6.48815875,4.04125
 544\H,0,0.15696735,7.01873783,3.4363654\H,0,-0.46799541,6.81573711,5.0
 799696\H,0,-0.35347788,5.42007415,4.00360861\C,0,-2.34003182,8.2776308
 7,3.70923831\H,0,-1.66459082,8.89978786,3.10798941\H,0,-2.23467724,8.5
 8909748,4.75470487\H,0,-3.36592912,8.50019191,3.39418474\\Version=EM64
 L-G09RevD.01\HF=-1273.678581\RMSD=5.808e-07\Dipole=-0.922714,0.556345,
 -0.0480212\Quadrupole=-13.1140207,6.6395119,6.4745088,4.4588595,-8.478
 7635,-5.3675976\PG=C01 [X(C27H46O3)]\\@


 WE STILL HAVE JUDGEMENT HERE,
 THAT WE TEACH BUT BLOODY INSTRUCTIONS,
 WHICH, BEING TAUGHT,
 RETURN TO PLAGUE THE INVENTOR.
           MACBETH ACT I, SCENE VII
 Job cpu time:       0 days  0 hours 11 minutes 54.2 seconds.
 File lengths (MBytes):  RWF=    159 Int=      0 D2E=      0 Chk=     11 Scr=      1
 Normal termination of Gaussian 09 at Thu Apr 27 15:30:19 2017.
