 Entering Gaussian System, Link 0=/home/michal/g09/g09
 Input=JOB2-gau_m1-14-1.com
 Output=JOB2-gau_m1-14-1.log
 Initial command:
 /home/michal/g09/l1.exe "/home/michal/gauss_scratch/Gau-976.inp" -scrdir="/home/michal/gauss_scratch/"
 Entering Link 1 = /home/michal/g09/l1.exe PID=       977.
  
 Copyright (c) 1988,1990,1992,1993,1995,1998,2003,2009,2013,
            Gaussian, Inc.  All Rights Reserved.
  
 This is part of the Gaussian(R) 09 program.  It is based on
 the Gaussian(R) 03 system (copyright 2003, Gaussian, Inc.),
 the Gaussian(R) 98 system (copyright 1998, Gaussian, Inc.),
 the Gaussian(R) 94 system (copyright 1995, Gaussian, Inc.),
 the Gaussian 92(TM) system (copyright 1992, Gaussian, Inc.),
 the Gaussian 90(TM) system (copyright 1990, Gaussian, Inc.),
 the Gaussian 88(TM) system (copyright 1988, Gaussian, Inc.),
 the Gaussian 86(TM) system (copyright 1986, Carnegie Mellon
 University), and the Gaussian 82(TM) system (copyright 1983,
 Carnegie Mellon University). Gaussian is a federally registered
 trademark of Gaussian, Inc.
  
 This software contains proprietary and confidential information,
 including trade secrets, belonging to Gaussian, Inc.
  
 This software is provided under written license and may be
 used, copied, transmitted, or stored only in accord with that
 written license.
  
 The following legend is applicable only to US Government
 contracts under FAR:
  
                    RESTRICTED RIGHTS LEGEND
  
 Use, reproduction and disclosure by the US Government is
 subject to restrictions as set forth in subparagraphs (a)
 and (c) of the Commercial Computer Software - Restricted
 Rights clause in FAR 52.227-19.
  
 Gaussian, Inc.
 340 Quinnipiac St., Bldg. 40, Wallingford CT 06492
  
  
 ---------------------------------------------------------------
 Warning -- This program may not be used in any manner that
 competes with the business of Gaussian, Inc. or will provide
 assistance to any competitor of Gaussian, Inc.  The licensee
 of this program is prohibited from giving any competitor of
 Gaussian, Inc. access to this program.  By using this program,
 the user acknowledges that Gaussian, Inc. is engaged in the
 business of creating and licensing software in the field of
 computational chemistry and represents and warrants to the
 licensee that it is not a competitor of Gaussian, Inc. and that
 it will not use this program in any manner prohibited above.
 ---------------------------------------------------------------
  

 Cite this work as:
 Gaussian 09, Revision D.01,
 M. J. Frisch, G. W. Trucks, H. B. Schlegel, G. E. Scuseria, 
 M. A. Robb, J. R. Cheeseman, G. Scalmani, V. Barone, B. Mennucci, 
 G. A. Petersson, H. Nakatsuji, M. Caricato, X. Li, H. P. Hratchian, 
 A. F. Izmaylov, J. Bloino, G. Zheng, J. L. Sonnenberg, M. Hada, 
 M. Ehara, K. Toyota, R. Fukuda, J. Hasegawa, M. Ishida, T. Nakajima, 
 Y. Honda, O. Kitao, H. Nakai, T. Vreven, J. A. Montgomery, Jr., 
 J. E. Peralta, F. Ogliaro, M. Bearpark, J. J. Heyd, E. Brothers, 
 K. N. Kudin, V. N. Staroverov, T. Keith, R. Kobayashi, J. Normand, 
 K. Raghavachari, A. Rendell, J. C. Burant, S. S. Iyengar, J. Tomasi, 
 M. Cossi, N. Rega, J. M. Millam, M. Klene, J. E. Knox, J. B. Cross, 
 V. Bakken, C. Adamo, J. Jaramillo, R. Gomperts, R. E. Stratmann, 
 O. Yazyev, A. J. Austin, R. Cammi, C. Pomelli, J. W. Ochterski, 
 R. L. Martin, K. Morokuma, V. G. Zakrzewski, G. A. Voth, 
 P. Salvador, J. J. Dannenberg, S. Dapprich, A. D. Daniels, 
 O. Farkas, J. B. Foresman, J. V. Ortiz, J. Cioslowski, 
 and D. J. Fox, Gaussian, Inc., Wallingford CT, 2013.
 
 ******************************************
 Gaussian 09:  EM64L-G09RevD.01 24-Apr-2013
                27-Apr-2017 
 ******************************************
 %Mem=256MB
 %NProc=12
 Will use up to   12 processors via shared memory.
 ----------------------------------------------------------------------
 #P HF/6-31G* SCF(Conver=6) NoSymm Test Pop=mk IOp(6/33=2) GFInput GFPr
 int
 ----------------------------------------------------------------------
 1/38=1/1;
 2/12=2,15=1,17=6,18=5,40=1/2;
 3/5=1,6=6,7=1,11=9,16=1,24=110,25=1,30=1/1,2,3;
 4//1;
 5/5=2,6=6,38=5/2;
 6/7=2,8=2,9=2,10=2,15=8,20=1,28=1,33=2/1,2;
 99/5=1,9=1/99;
 Leave Link    1 at Thu Apr 27 15:50:12 2017, MaxMem=    33554432 cpu:         0.6
 (Enter /home/michal/g09/l101.exe)
 ----------------------------------------------
 MEP - Input generated by R.E.D.-III.x MOLECULE
 ----------------------------------------------
 Symbolic Z-matrix:
 Charge =  0 Multiplicity = 1
 C                     1.75925  -1.24856  -0.0626 
 H                     1.87311  -1.12986  -1.14711 
 C                     3.15064  -1.30801   0.58278 
 H                     3.72932  -2.12653   0.14401 
 H                     3.01358  -1.55421   1.64846 
 C                     3.91254  -0.0019    0.45749 
 C                     3.18674   1.27622   0.88938 
 C                     1.74688   1.25544   0.28784 
 H                     1.82239   1.44529  -0.79195 
 H                     1.16262   2.08083   0.70818 
 C                     0.97726  -0.05852   0.49258 
 H                     0.78088  -0.22665   1.56185 
 H                     0.        0.        0. 
 C                     5.17149   0.        0. 
 H                     5.63713  -0.93528  -0.30255 
 C                     6.05695   1.20663  -0.10385 
 H                     6.30792   1.40259  -1.15792 
 C                     5.48221   2.47542   0.54731 
 H                     5.69822   2.40432   1.62121 
 C                     3.94269   2.53012   0.33043 
 H                     3.79404   2.50148  -0.76141 
 C                     3.35177   3.87153   0.82476 
 H                     3.38511   3.91075   1.91876 
 H                     2.29231   3.92572   0.55223 
 C                     4.06408   5.11562   0.26029 
 H                     3.90515   5.16109  -0.82623 
 H                     3.59683   6.01251   0.68367 
 C                     5.57724   5.08641   0.54467 
 C                     6.12402   3.74777  -0.03633 
 H                     5.83407   3.75672  -1.10059 
 C                     7.65465   3.92051   0. 
 H                     8.15768   3.29086  -0.74048 
 H                     8.054     3.63113   0.97719 
 C                     7.86695   5.43631  -0.27395 
 H                     8.50411   5.88184   0.49672 
 H                     8.3736    5.61347  -1.22916 
 C                     6.45008   6.09118  -0.28523 
 H                     6.07785   5.98483  -1.31376 
 C                     5.83515   5.1982    2.0654 
 H                     5.47992   4.31818   2.60749 
 H                     6.89688   5.31091   2.29842 
 H                     5.31227   6.06319   2.48308 
 C                     6.49187   7.62659  -0.03692 
 H                     7.24686   7.98165  -0.75499 
 C                     6.98613   8.09554   1.34661 
 H                     6.21606   7.99171   2.11666 
 H                     7.25369   9.15725   1.29948 
 H                     7.87307   7.55251   1.68569 
 C                     3.10361   1.29863   2.43918 
 H                     2.46283   2.11246   2.79275 
 H                     2.68653   0.36719   2.83079 
 H                     4.09429   1.41941   2.88737 
 O                     7.30471   0.9615    0.59315 
 O                     8.03418  -0.06405  -0.14603 
 H                     8.79818   0.45312  -0.44997 
 O                     1.05201  -2.48351   0.08127 
 H                     0.92103  -2.65702   1.0241 
 C                     5.17727   8.37188  -0.37503 
 H                     4.39075   8.04465   0.31682 
 H                     5.33853   9.43715  -0.15496 
 C                     4.6496    8.26337  -1.81809 
 H                     4.40611   7.22115  -2.05247 
 H                     3.69713   8.81023  -1.86761 
 C                     5.59648   8.83619  -2.88472 
 H                     6.50734   8.22367  -2.95039 
 H                     5.92489   9.83427  -2.55949 
 C                     4.98973   8.96062  -4.29749 
 H                     4.0671    9.55533  -4.2107 
 C                     5.94746   9.71643  -5.23208 
 H                     6.88928   9.16621  -5.3547 
 H                     5.5095    9.84941  -6.22789 
 H                     6.1913    10.70935  -4.83715 
 C                     4.61526   7.5968   -4.90018 
 H                     5.5003    6.95217  -4.98188 
 H                     4.19814   7.71491  -5.90673 
 H                     3.87121   7.06864  -4.29552 
 
 NAtoms=     76 NQM=       76 NQMF=       0 NMMI=      0 NMMIF=      0
                NMic=       0 NMicF=      0.
                    Isotopes and Nuclear Properties:
 (Nuclear quadrupole moments (NQMom) in fm**2, nuclear magnetic moments (NMagM)
  in nuclear magnetons)

  Atom         1           2           3           4           5           6           7           8           9          10
 IAtWgt=          12           1          12           1           1          12          12          12           1           1
 AtmWgt=  12.0000000   1.0078250  12.0000000   1.0078250   1.0078250  12.0000000  12.0000000  12.0000000   1.0078250   1.0078250
 NucSpn=           0           1           0           1           1           0           0           0           1           1
 AtZEff=   0.0000000   0.0000000   0.0000000   0.0000000   0.0000000   0.0000000   0.0000000   0.0000000   0.0000000   0.0000000
 NQMom=    0.0000000   0.0000000   0.0000000   0.0000000   0.0000000   0.0000000   0.0000000   0.0000000   0.0000000   0.0000000
 NMagM=    0.0000000   2.7928460   0.0000000   2.7928460   2.7928460   0.0000000   0.0000000   0.0000000   2.7928460   2.7928460
 AtZNuc=   6.0000000   1.0000000   6.0000000   1.0000000   1.0000000   6.0000000   6.0000000   6.0000000   1.0000000   1.0000000

  Atom        11          12          13          14          15          16          17          18          19          20
 IAtWgt=          12           1           1          12           1          12           1          12           1          12
 AtmWgt=  12.0000000   1.0078250   1.0078250  12.0000000   1.0078250  12.0000000   1.0078250  12.0000000   1.0078250  12.0000000
 NucSpn=           0           1           1           0           1           0           1           0           1           0
 AtZEff=   0.0000000   0.0000000   0.0000000   0.0000000   0.0000000   0.0000000   0.0000000   0.0000000   0.0000000   0.0000000
 NQMom=    0.0000000   0.0000000   0.0000000   0.0000000   0.0000000   0.0000000   0.0000000   0.0000000   0.0000000   0.0000000
 NMagM=    0.0000000   2.7928460   2.7928460   0.0000000   2.7928460   0.0000000   2.7928460   0.0000000   2.7928460   0.0000000
 AtZNuc=   6.0000000   1.0000000   1.0000000   6.0000000   1.0000000   6.0000000   1.0000000   6.0000000   1.0000000   6.0000000

  Atom        21          22          23          24          25          26          27          28          29          30
 IAtWgt=           1          12           1           1          12           1           1          12          12           1
 AtmWgt=   1.0078250  12.0000000   1.0078250   1.0078250  12.0000000   1.0078250   1.0078250  12.0000000  12.0000000   1.0078250
 NucSpn=           1           0           1           1           0           1           1           0           0           1
 AtZEff=   0.0000000   0.0000000   0.0000000   0.0000000   0.0000000   0.0000000   0.0000000   0.0000000   0.0000000   0.0000000
 NQMom=    0.0000000   0.0000000   0.0000000   0.0000000   0.0000000   0.0000000   0.0000000   0.0000000   0.0000000   0.0000000
 NMagM=    2.7928460   0.0000000   2.7928460   2.7928460   0.0000000   2.7928460   2.7928460   0.0000000   0.0000000   2.7928460
 AtZNuc=   1.0000000   6.0000000   1.0000000   1.0000000   6.0000000   1.0000000   1.0000000   6.0000000   6.0000000   1.0000000

  Atom        31          32          33          34          35          36          37          38          39          40
 IAtWgt=          12           1           1          12           1           1          12           1          12           1
 AtmWgt=  12.0000000   1.0078250   1.0078250  12.0000000   1.0078250   1.0078250  12.0000000   1.0078250  12.0000000   1.0078250
 NucSpn=           0           1           1           0           1           1           0           1           0           1
 AtZEff=   0.0000000   0.0000000   0.0000000   0.0000000   0.0000000   0.0000000   0.0000000   0.0000000   0.0000000   0.0000000
 NQMom=    0.0000000   0.0000000   0.0000000   0.0000000   0.0000000   0.0000000   0.0000000   0.0000000   0.0000000   0.0000000
 NMagM=    0.0000000   2.7928460   2.7928460   0.0000000   2.7928460   2.7928460   0.0000000   2.7928460   0.0000000   2.7928460
 AtZNuc=   6.0000000   1.0000000   1.0000000   6.0000000   1.0000000   1.0000000   6.0000000   1.0000000   6.0000000   1.0000000

  Atom        41          42          43          44          45          46          47          48          49          50
 IAtWgt=           1           1          12           1          12           1           1           1          12           1
 AtmWgt=   1.0078250   1.0078250  12.0000000   1.0078250  12.0000000   1.0078250   1.0078250   1.0078250  12.0000000   1.0078250
 NucSpn=           1           1           0           1           0           1           1           1           0           1
 AtZEff=   0.0000000   0.0000000   0.0000000   0.0000000   0.0000000   0.0000000   0.0000000   0.0000000   0.0000000   0.0000000
 NQMom=    0.0000000   0.0000000   0.0000000   0.0000000   0.0000000   0.0000000   0.0000000   0.0000000   0.0000000   0.0000000
 NMagM=    2.7928460   2.7928460   0.0000000   2.7928460   0.0000000   2.7928460   2.7928460   2.7928460   0.0000000   2.7928460
 AtZNuc=   1.0000000   1.0000000   6.0000000   1.0000000   6.0000000   1.0000000   1.0000000   1.0000000   6.0000000   1.0000000

  Atom        51          52          53          54          55          56          57          58          59          60
 IAtWgt=           1           1          16          16           1          16           1          12           1           1
 AtmWgt=   1.0078250   1.0078250  15.9949146  15.9949146   1.0078250  15.9949146   1.0078250  12.0000000   1.0078250   1.0078250
 NucSpn=           1           1           0           0           1           0           1           0           1           1
 AtZEff=   0.0000000   0.0000000   0.0000000   0.0000000   0.0000000   0.0000000   0.0000000   0.0000000   0.0000000   0.0000000
 NQMom=    0.0000000   0.0000000   0.0000000   0.0000000   0.0000000   0.0000000   0.0000000   0.0000000   0.0000000   0.0000000
 NMagM=    2.7928460   2.7928460   0.0000000   0.0000000   2.7928460   0.0000000   2.7928460   0.0000000   2.7928460   2.7928460
 AtZNuc=   1.0000000   1.0000000   8.0000000   8.0000000   1.0000000   8.0000000   1.0000000   6.0000000   1.0000000   1.0000000

  Atom        61          62          63          64          65          66          67          68          69          70
 IAtWgt=          12           1           1          12           1           1          12           1          12           1
 AtmWgt=  12.0000000   1.0078250   1.0078250  12.0000000   1.0078250   1.0078250  12.0000000   1.0078250  12.0000000   1.0078250
 NucSpn=           0           1           1           0           1           1           0           1           0           1
 AtZEff=   0.0000000   0.0000000   0.0000000   0.0000000   0.0000000   0.0000000   0.0000000   0.0000000   0.0000000   0.0000000
 NQMom=    0.0000000   0.0000000   0.0000000   0.0000000   0.0000000   0.0000000   0.0000000   0.0000000   0.0000000   0.0000000
 NMagM=    0.0000000   2.7928460   2.7928460   0.0000000   2.7928460   2.7928460   0.0000000   2.7928460   0.0000000   2.7928460
 AtZNuc=   6.0000000   1.0000000   1.0000000   6.0000000   1.0000000   1.0000000   6.0000000   1.0000000   6.0000000   1.0000000

  Atom        71          72          73          74          75          76
 IAtWgt=           1           1          12           1           1           1
 AtmWgt=   1.0078250   1.0078250  12.0000000   1.0078250   1.0078250   1.0078250
 NucSpn=           1           1           0           1           1           1
 AtZEff=   0.0000000   0.0000000   0.0000000   0.0000000   0.0000000   0.0000000
 NQMom=    0.0000000   0.0000000   0.0000000   0.0000000   0.0000000   0.0000000
 NMagM=    2.7928460   2.7928460   0.0000000   2.7928460   2.7928460   2.7928460
 AtZNuc=   1.0000000   1.0000000   6.0000000   1.0000000   1.0000000   1.0000000
 Leave Link  101 at Thu Apr 27 15:50:12 2017, MaxMem=    33554432 cpu:         1.0
 (Enter /home/michal/g09/l202.exe)
 Symmetry turned off by external request.
 Stoichiometry    C27H46O3
 Framework group  C1[X(C27H46O3)]
 Deg. of freedom   222
 Full point group                 C1      NOp   1
                          Input orientation:                          
 ---------------------------------------------------------------------
 Center     Atomic      Atomic             Coordinates (Angstroms)
 Number     Number       Type             X           Y           Z
 ---------------------------------------------------------------------
      1          6           0        1.759247   -1.248561   -0.062597
      2          1           0        1.873112   -1.129862   -1.147113
      3          6           0        3.150636   -1.308014    0.582776
      4          1           0        3.729320   -2.126532    0.144015
      5          1           0        3.013580   -1.554213    1.648460
      6          6           0        3.912540   -0.001897    0.457486
      7          6           0        3.186741    1.276225    0.889379
      8          6           0        1.746883    1.255441    0.287837
      9          1           0        1.822394    1.445290   -0.791949
     10          1           0        1.162620    2.080830    0.708177
     11          6           0        0.977262   -0.058518    0.492581
     12          1           0        0.780883   -0.226646    1.561849
     13          1           0        0.000000    0.000000    0.000000
     14          6           0        5.171493    0.000000    0.000000
     15          1           0        5.637126   -0.935284   -0.302547
     16          6           0        6.056950    1.206626   -0.103847
     17          1           0        6.307922    1.402593   -1.157921
     18          6           0        5.482208    2.475423    0.547309
     19          1           0        5.698216    2.404320    1.621209
     20          6           0        3.942693    2.530123    0.330428
     21          1           0        3.794041    2.501478   -0.761408
     22          6           0        3.351766    3.871533    0.824756
     23          1           0        3.385107    3.910749    1.918764
     24          1           0        2.292311    3.925721    0.552227
     25          6           0        4.064076    5.115624    0.260295
     26          1           0        3.905152    5.161088   -0.826228
     27          1           0        3.596834    6.012507    0.683674
     28          6           0        5.577238    5.086408    0.544669
     29          6           0        6.124021    3.747769   -0.036329
     30          1           0        5.834066    3.756718   -1.100592
     31          6           0        7.654647    3.920509    0.000000
     32          1           0        8.157680    3.290859   -0.740476
     33          1           0        8.054002    3.631132    0.977188
     34          6           0        7.866949    5.436312   -0.273947
     35          1           0        8.504112    5.881841    0.496725
     36          1           0        8.373597    5.613472   -1.229158
     37          6           0        6.450084    6.091183   -0.285226
     38          1           0        6.077845    5.984828   -1.313759
     39          6           0        5.835147    5.198202    2.065397
     40          1           0        5.479919    4.318176    2.607493
     41          1           0        6.896884    5.310907    2.298416
     42          1           0        5.312272    6.063191    2.483077
     43          6           0        6.491875    7.626593   -0.036915
     44          1           0        7.246864    7.981647   -0.754988
     45          6           0        6.986127    8.095536    1.346612
     46          1           0        6.216064    7.991705    2.116657
     47          1           0        7.253687    9.157251    1.299485
     48          1           0        7.873066    7.552505    1.685694
     49          6           0        3.103612    1.298634    2.439181
     50          1           0        2.462833    2.112464    2.792747
     51          1           0        2.686527    0.367187    2.830785
     52          1           0        4.094293    1.419412    2.887367
     53          8           0        7.304711    0.961501    0.593147
     54          8           0        8.034182   -0.064048   -0.146029
     55          1           0        8.798178    0.453124   -0.449968
     56          8           0        1.052006   -2.483514    0.081271
     57          1           0        0.921030   -2.657024    1.024100
     58          6           0        5.177273    8.371878   -0.375031
     59          1           0        4.390751    8.044646    0.316818
     60          1           0        5.338529    9.437149   -0.154964
     61          6           0        4.649603    8.263373   -1.818093
     62          1           0        4.406114    7.221151   -2.052472
     63          1           0        3.697132    8.810230   -1.867609
     64          6           0        5.596484    8.836186   -2.884721
     65          1           0        6.507340    8.223669   -2.950391
     66          1           0        5.924889    9.834273   -2.559492
     67          6           0        4.989733    8.960621   -4.297491
     68          1           0        4.067096    9.555328   -4.210695
     69          6           0        5.947457    9.716433   -5.232082
     70          1           0        6.889283    9.166214   -5.354704
     71          1           0        5.509501    9.849410   -6.227893
     72          1           0        6.191305   10.709353   -4.837155
     73          6           0        4.615255    7.596796   -4.900180
     74          1           0        5.500304    6.952170   -4.981880
     75          1           0        4.198144    7.714914   -5.906728
     76          1           0        3.871213    7.068636   -4.295524
 ---------------------------------------------------------------------
 Rotational constants (GHZ):      0.2282348      0.0709813      0.0653684
 Leave Link  202 at Thu Apr 27 15:50:12 2017, MaxMem=    33554432 cpu:         0.6
 (Enter /home/michal/g09/l301.exe)
 Standard basis: 6-31G(d) (6D, 7F)
 Ernie: Thresh=  0.10000D-02 Tol=  0.10000D-05 Strict=F.
 AO basis set in the form of general basis input (Overlap normalization):
      1 0
 S   6 1.00       0.000000000000
      0.3047524880D+04  0.1834737132D-02
      0.4573695180D+03  0.1403732281D-01
      0.1039486850D+03  0.6884262226D-01
      0.2921015530D+02  0.2321844432D+00
      0.9286662960D+01  0.4679413484D+00
      0.3163926960D+01  0.3623119853D+00
 SP   3 1.00       0.000000000000
      0.7868272350D+01 -0.1193324198D+00  0.6899906659D-01
      0.1881288540D+01 -0.1608541517D+00  0.3164239610D+00
      0.5442492580D+00  0.1143456438D+01  0.7443082909D+00
 SP   1 1.00       0.000000000000
      0.1687144782D+00  0.1000000000D+01  0.1000000000D+01
 D   1 1.00       0.000000000000
      0.8000000000D+00  0.1000000000D+01
 ****
      2 0
 S   3 1.00       0.000000000000
      0.1873113696D+02  0.3349460434D-01
      0.2825394365D+01  0.2347269535D+00
      0.6401216923D+00  0.8137573261D+00
 S   1 1.00       0.000000000000
      0.1612777588D+00  0.1000000000D+01
 ****
      3 0
 S   6 1.00       0.000000000000
      0.3047524880D+04  0.1834737132D-02
      0.4573695180D+03  0.1403732281D-01
      0.1039486850D+03  0.6884262226D-01
      0.2921015530D+02  0.2321844432D+00
      0.9286662960D+01  0.4679413484D+00
      0.3163926960D+01  0.3623119853D+00
 SP   3 1.00       0.000000000000
      0.7868272350D+01 -0.1193324198D+00  0.6899906659D-01
      0.1881288540D+01 -0.1608541517D+00  0.3164239610D+00
      0.5442492580D+00  0.1143456438D+01  0.7443082909D+00
 SP   1 1.00       0.000000000000
      0.1687144782D+00  0.1000000000D+01  0.1000000000D+01
 D   1 1.00       0.000000000000
      0.8000000000D+00  0.1000000000D+01
 ****
      4 0
 S   3 1.00       0.000000000000
      0.1873113696D+02  0.3349460434D-01
      0.2825394365D+01  0.2347269535D+00
      0.6401216923D+00  0.8137573261D+00
 S   1 1.00       0.000000000000
      0.1612777588D+00  0.1000000000D+01
 ****
      5 0
 S   3 1.00       0.000000000000
      0.1873113696D+02  0.3349460434D-01
      0.2825394365D+01  0.2347269535D+00
      0.6401216923D+00  0.8137573261D+00
 S   1 1.00       0.000000000000
      0.1612777588D+00  0.1000000000D+01
 ****
      6 0
 S   6 1.00       0.000000000000
      0.3047524880D+04  0.1834737132D-02
      0.4573695180D+03  0.1403732281D-01
      0.1039486850D+03  0.6884262226D-01
      0.2921015530D+02  0.2321844432D+00
      0.9286662960D+01  0.4679413484D+00
      0.3163926960D+01  0.3623119853D+00
 SP   3 1.00       0.000000000000
      0.7868272350D+01 -0.1193324198D+00  0.6899906659D-01
      0.1881288540D+01 -0.1608541517D+00  0.3164239610D+00
      0.5442492580D+00  0.1143456438D+01  0.7443082909D+00
 SP   1 1.00       0.000000000000
      0.1687144782D+00  0.1000000000D+01  0.1000000000D+01
 D   1 1.00       0.000000000000
      0.8000000000D+00  0.1000000000D+01
 ****
      7 0
 S   6 1.00       0.000000000000
      0.3047524880D+04  0.1834737132D-02
      0.4573695180D+03  0.1403732281D-01
      0.1039486850D+03  0.6884262226D-01
      0.2921015530D+02  0.2321844432D+00
      0.9286662960D+01  0.4679413484D+00
      0.3163926960D+01  0.3623119853D+00
 SP   3 1.00       0.000000000000
      0.7868272350D+01 -0.1193324198D+00  0.6899906659D-01
      0.1881288540D+01 -0.1608541517D+00  0.3164239610D+00
      0.5442492580D+00  0.1143456438D+01  0.7443082909D+00
 SP   1 1.00       0.000000000000
      0.1687144782D+00  0.1000000000D+01  0.1000000000D+01
 D   1 1.00       0.000000000000
      0.8000000000D+00  0.1000000000D+01
 ****
      8 0
 S   6 1.00       0.000000000000
      0.3047524880D+04  0.1834737132D-02
      0.4573695180D+03  0.1403732281D-01
      0.1039486850D+03  0.6884262226D-01
      0.2921015530D+02  0.2321844432D+00
      0.9286662960D+01  0.4679413484D+00
      0.3163926960D+01  0.3623119853D+00
 SP   3 1.00       0.000000000000
      0.7868272350D+01 -0.1193324198D+00  0.6899906659D-01
      0.1881288540D+01 -0.1608541517D+00  0.3164239610D+00
      0.5442492580D+00  0.1143456438D+01  0.7443082909D+00
 SP   1 1.00       0.000000000000
      0.1687144782D+00  0.1000000000D+01  0.1000000000D+01
 D   1 1.00       0.000000000000
      0.8000000000D+00  0.1000000000D+01
 ****
      9 0
 S   3 1.00       0.000000000000
      0.1873113696D+02  0.3349460434D-01
      0.2825394365D+01  0.2347269535D+00
      0.6401216923D+00  0.8137573261D+00
 S   1 1.00       0.000000000000
      0.1612777588D+00  0.1000000000D+01
 ****
     10 0
 S   3 1.00       0.000000000000
      0.1873113696D+02  0.3349460434D-01
      0.2825394365D+01  0.2347269535D+00
      0.6401216923D+00  0.8137573261D+00
 S   1 1.00       0.000000000000
      0.1612777588D+00  0.1000000000D+01
 ****
     11 0
 S   6 1.00       0.000000000000
      0.3047524880D+04  0.1834737132D-02
      0.4573695180D+03  0.1403732281D-01
      0.1039486850D+03  0.6884262226D-01
      0.2921015530D+02  0.2321844432D+00
      0.9286662960D+01  0.4679413484D+00
      0.3163926960D+01  0.3623119853D+00
 SP   3 1.00       0.000000000000
      0.7868272350D+01 -0.1193324198D+00  0.6899906659D-01
      0.1881288540D+01 -0.1608541517D+00  0.3164239610D+00
      0.5442492580D+00  0.1143456438D+01  0.7443082909D+00
 SP   1 1.00       0.000000000000
      0.1687144782D+00  0.1000000000D+01  0.1000000000D+01
 D   1 1.00       0.000000000000
      0.8000000000D+00  0.1000000000D+01
 ****
     12 0
 S   3 1.00       0.000000000000
      0.1873113696D+02  0.3349460434D-01
      0.2825394365D+01  0.2347269535D+00
      0.6401216923D+00  0.8137573261D+00
 S   1 1.00       0.000000000000
      0.1612777588D+00  0.1000000000D+01
 ****
     13 0
 S   3 1.00       0.000000000000
      0.1873113696D+02  0.3349460434D-01
      0.2825394365D+01  0.2347269535D+00
      0.6401216923D+00  0.8137573261D+00
 S   1 1.00       0.000000000000
      0.1612777588D+00  0.1000000000D+01
 ****
     14 0
 S   6 1.00       0.000000000000
      0.3047524880D+04  0.1834737132D-02
      0.4573695180D+03  0.1403732281D-01
      0.1039486850D+03  0.6884262226D-01
      0.2921015530D+02  0.2321844432D+00
      0.9286662960D+01  0.4679413484D+00
      0.3163926960D+01  0.3623119853D+00
 SP   3 1.00       0.000000000000
      0.7868272350D+01 -0.1193324198D+00  0.6899906659D-01
      0.1881288540D+01 -0.1608541517D+00  0.3164239610D+00
      0.5442492580D+00  0.1143456438D+01  0.7443082909D+00
 SP   1 1.00       0.000000000000
      0.1687144782D+00  0.1000000000D+01  0.1000000000D+01
 D   1 1.00       0.000000000000
      0.8000000000D+00  0.1000000000D+01
 ****
     15 0
 S   3 1.00       0.000000000000
      0.1873113696D+02  0.3349460434D-01
      0.2825394365D+01  0.2347269535D+00
      0.6401216923D+00  0.8137573261D+00
 S   1 1.00       0.000000000000
      0.1612777588D+00  0.1000000000D+01
 ****
     16 0
 S   6 1.00       0.000000000000
      0.3047524880D+04  0.1834737132D-02
      0.4573695180D+03  0.1403732281D-01
      0.1039486850D+03  0.6884262226D-01
      0.2921015530D+02  0.2321844432D+00
      0.9286662960D+01  0.4679413484D+00
      0.3163926960D+01  0.3623119853D+00
 SP   3 1.00       0.000000000000
      0.7868272350D+01 -0.1193324198D+00  0.6899906659D-01
      0.1881288540D+01 -0.1608541517D+00  0.3164239610D+00
      0.5442492580D+00  0.1143456438D+01  0.7443082909D+00
 SP   1 1.00       0.000000000000
      0.1687144782D+00  0.1000000000D+01  0.1000000000D+01
 D   1 1.00       0.000000000000
      0.8000000000D+00  0.1000000000D+01
 ****
     17 0
 S   3 1.00       0.000000000000
      0.1873113696D+02  0.3349460434D-01
      0.2825394365D+01  0.2347269535D+00
      0.6401216923D+00  0.8137573261D+00
 S   1 1.00       0.000000000000
      0.1612777588D+00  0.1000000000D+01
 ****
     18 0
 S   6 1.00       0.000000000000
      0.3047524880D+04  0.1834737132D-02
      0.4573695180D+03  0.1403732281D-01
      0.1039486850D+03  0.6884262226D-01
      0.2921015530D+02  0.2321844432D+00
      0.9286662960D+01  0.4679413484D+00
      0.3163926960D+01  0.3623119853D+00
 SP   3 1.00       0.000000000000
      0.7868272350D+01 -0.1193324198D+00  0.6899906659D-01
      0.1881288540D+01 -0.1608541517D+00  0.3164239610D+00
      0.5442492580D+00  0.1143456438D+01  0.7443082909D+00
 SP   1 1.00       0.000000000000
      0.1687144782D+00  0.1000000000D+01  0.1000000000D+01
 D   1 1.00       0.000000000000
      0.8000000000D+00  0.1000000000D+01
 ****
     19 0
 S   3 1.00       0.000000000000
      0.1873113696D+02  0.3349460434D-01
      0.2825394365D+01  0.2347269535D+00
      0.6401216923D+00  0.8137573261D+00
 S   1 1.00       0.000000000000
      0.1612777588D+00  0.1000000000D+01
 ****
     20 0
 S   6 1.00       0.000000000000
      0.3047524880D+04  0.1834737132D-02
      0.4573695180D+03  0.1403732281D-01
      0.1039486850D+03  0.6884262226D-01
      0.2921015530D+02  0.2321844432D+00
      0.9286662960D+01  0.4679413484D+00
      0.3163926960D+01  0.3623119853D+00
 SP   3 1.00       0.000000000000
      0.7868272350D+01 -0.1193324198D+00  0.6899906659D-01
      0.1881288540D+01 -0.1608541517D+00  0.3164239610D+00
      0.5442492580D+00  0.1143456438D+01  0.7443082909D+00
 SP   1 1.00       0.000000000000
      0.1687144782D+00  0.1000000000D+01  0.1000000000D+01
 D   1 1.00       0.000000000000
      0.8000000000D+00  0.1000000000D+01
 ****
     21 0
 S   3 1.00       0.000000000000
      0.1873113696D+02  0.3349460434D-01
      0.2825394365D+01  0.2347269535D+00
      0.6401216923D+00  0.8137573261D+00
 S   1 1.00       0.000000000000
      0.1612777588D+00  0.1000000000D+01
 ****
     22 0
 S   6 1.00       0.000000000000
      0.3047524880D+04  0.1834737132D-02
      0.4573695180D+03  0.1403732281D-01
      0.1039486850D+03  0.6884262226D-01
      0.2921015530D+02  0.2321844432D+00
      0.9286662960D+01  0.4679413484D+00
      0.3163926960D+01  0.3623119853D+00
 SP   3 1.00       0.000000000000
      0.7868272350D+01 -0.1193324198D+00  0.6899906659D-01
      0.1881288540D+01 -0.1608541517D+00  0.3164239610D+00
      0.5442492580D+00  0.1143456438D+01  0.7443082909D+00
 SP   1 1.00       0.000000000000
      0.1687144782D+00  0.1000000000D+01  0.1000000000D+01
 D   1 1.00       0.000000000000
      0.8000000000D+00  0.1000000000D+01
 ****
     23 0
 S   3 1.00       0.000000000000
      0.1873113696D+02  0.3349460434D-01
      0.2825394365D+01  0.2347269535D+00
      0.6401216923D+00  0.8137573261D+00
 S   1 1.00       0.000000000000
      0.1612777588D+00  0.1000000000D+01
 ****
     24 0
 S   3 1.00       0.000000000000
      0.1873113696D+02  0.3349460434D-01
      0.2825394365D+01  0.2347269535D+00
      0.6401216923D+00  0.8137573261D+00
 S   1 1.00       0.000000000000
      0.1612777588D+00  0.1000000000D+01
 ****
     25 0
 S   6 1.00       0.000000000000
      0.3047524880D+04  0.1834737132D-02
      0.4573695180D+03  0.1403732281D-01
      0.1039486850D+03  0.6884262226D-01
      0.2921015530D+02  0.2321844432D+00
      0.9286662960D+01  0.4679413484D+00
      0.3163926960D+01  0.3623119853D+00
 SP   3 1.00       0.000000000000
      0.7868272350D+01 -0.1193324198D+00  0.6899906659D-01
      0.1881288540D+01 -0.1608541517D+00  0.3164239610D+00
      0.5442492580D+00  0.1143456438D+01  0.7443082909D+00
 SP   1 1.00       0.000000000000
      0.1687144782D+00  0.1000000000D+01  0.1000000000D+01
 D   1 1.00       0.000000000000
      0.8000000000D+00  0.1000000000D+01
 ****
     26 0
 S   3 1.00       0.000000000000
      0.1873113696D+02  0.3349460434D-01
      0.2825394365D+01  0.2347269535D+00
      0.6401216923D+00  0.8137573261D+00
 S   1 1.00       0.000000000000
      0.1612777588D+00  0.1000000000D+01
 ****
     27 0
 S   3 1.00       0.000000000000
      0.1873113696D+02  0.3349460434D-01
      0.2825394365D+01  0.2347269535D+00
      0.6401216923D+00  0.8137573261D+00
 S   1 1.00       0.000000000000
      0.1612777588D+00  0.1000000000D+01
 ****
     28 0
 S   6 1.00       0.000000000000
      0.3047524880D+04  0.1834737132D-02
      0.4573695180D+03  0.1403732281D-01
      0.1039486850D+03  0.6884262226D-01
      0.2921015530D+02  0.2321844432D+00
      0.9286662960D+01  0.4679413484D+00
      0.3163926960D+01  0.3623119853D+00
 SP   3 1.00       0.000000000000
      0.7868272350D+01 -0.1193324198D+00  0.6899906659D-01
      0.1881288540D+01 -0.1608541517D+00  0.3164239610D+00
      0.5442492580D+00  0.1143456438D+01  0.7443082909D+00
 SP   1 1.00       0.000000000000
      0.1687144782D+00  0.1000000000D+01  0.1000000000D+01
 D   1 1.00       0.000000000000
      0.8000000000D+00  0.1000000000D+01
 ****
     29 0
 S   6 1.00       0.000000000000
      0.3047524880D+04  0.1834737132D-02
      0.4573695180D+03  0.1403732281D-01
      0.1039486850D+03  0.6884262226D-01
      0.2921015530D+02  0.2321844432D+00
      0.9286662960D+01  0.4679413484D+00
      0.3163926960D+01  0.3623119853D+00
 SP   3 1.00       0.000000000000
      0.7868272350D+01 -0.1193324198D+00  0.6899906659D-01
      0.1881288540D+01 -0.1608541517D+00  0.3164239610D+00
      0.5442492580D+00  0.1143456438D+01  0.7443082909D+00
 SP   1 1.00       0.000000000000
      0.1687144782D+00  0.1000000000D+01  0.1000000000D+01
 D   1 1.00       0.000000000000
      0.8000000000D+00  0.1000000000D+01
 ****
     30 0
 S   3 1.00       0.000000000000
      0.1873113696D+02  0.3349460434D-01
      0.2825394365D+01  0.2347269535D+00
      0.6401216923D+00  0.8137573261D+00
 S   1 1.00       0.000000000000
      0.1612777588D+00  0.1000000000D+01
 ****
     31 0
 S   6 1.00       0.000000000000
      0.3047524880D+04  0.1834737132D-02
      0.4573695180D+03  0.1403732281D-01
      0.1039486850D+03  0.6884262226D-01
      0.2921015530D+02  0.2321844432D+00
      0.9286662960D+01  0.4679413484D+00
      0.3163926960D+01  0.3623119853D+00
 SP   3 1.00       0.000000000000
      0.7868272350D+01 -0.1193324198D+00  0.6899906659D-01
      0.1881288540D+01 -0.1608541517D+00  0.3164239610D+00
      0.5442492580D+00  0.1143456438D+01  0.7443082909D+00
 SP   1 1.00       0.000000000000
      0.1687144782D+00  0.1000000000D+01  0.1000000000D+01
 D   1 1.00       0.000000000000
      0.8000000000D+00  0.1000000000D+01
 ****
     32 0
 S   3 1.00       0.000000000000
      0.1873113696D+02  0.3349460434D-01
      0.2825394365D+01  0.2347269535D+00
      0.6401216923D+00  0.8137573261D+00
 S   1 1.00       0.000000000000
      0.1612777588D+00  0.1000000000D+01
 ****
     33 0
 S   3 1.00       0.000000000000
      0.1873113696D+02  0.3349460434D-01
      0.2825394365D+01  0.2347269535D+00
      0.6401216923D+00  0.8137573261D+00
 S   1 1.00       0.000000000000
      0.1612777588D+00  0.1000000000D+01
 ****
     34 0
 S   6 1.00       0.000000000000
      0.3047524880D+04  0.1834737132D-02
      0.4573695180D+03  0.1403732281D-01
      0.1039486850D+03  0.6884262226D-01
      0.2921015530D+02  0.2321844432D+00
      0.9286662960D+01  0.4679413484D+00
      0.3163926960D+01  0.3623119853D+00
 SP   3 1.00       0.000000000000
      0.7868272350D+01 -0.1193324198D+00  0.6899906659D-01
      0.1881288540D+01 -0.1608541517D+00  0.3164239610D+00
      0.5442492580D+00  0.1143456438D+01  0.7443082909D+00
 SP   1 1.00       0.000000000000
      0.1687144782D+00  0.1000000000D+01  0.1000000000D+01
 D   1 1.00       0.000000000000
      0.8000000000D+00  0.1000000000D+01
 ****
     35 0
 S   3 1.00       0.000000000000
      0.1873113696D+02  0.3349460434D-01
      0.2825394365D+01  0.2347269535D+00
      0.6401216923D+00  0.8137573261D+00
 S   1 1.00       0.000000000000
      0.1612777588D+00  0.1000000000D+01
 ****
     36 0
 S   3 1.00       0.000000000000
      0.1873113696D+02  0.3349460434D-01
      0.2825394365D+01  0.2347269535D+00
      0.6401216923D+00  0.8137573261D+00
 S   1 1.00       0.000000000000
      0.1612777588D+00  0.1000000000D+01
 ****
     37 0
 S   6 1.00       0.000000000000
      0.3047524880D+04  0.1834737132D-02
      0.4573695180D+03  0.1403732281D-01
      0.1039486850D+03  0.6884262226D-01
      0.2921015530D+02  0.2321844432D+00
      0.9286662960D+01  0.4679413484D+00
      0.3163926960D+01  0.3623119853D+00
 SP   3 1.00       0.000000000000
      0.7868272350D+01 -0.1193324198D+00  0.6899906659D-01
      0.1881288540D+01 -0.1608541517D+00  0.3164239610D+00
      0.5442492580D+00  0.1143456438D+01  0.7443082909D+00
 SP   1 1.00       0.000000000000
      0.1687144782D+00  0.1000000000D+01  0.1000000000D+01
 D   1 1.00       0.000000000000
      0.8000000000D+00  0.1000000000D+01
 ****
     38 0
 S   3 1.00       0.000000000000
      0.1873113696D+02  0.3349460434D-01
      0.2825394365D+01  0.2347269535D+00
      0.6401216923D+00  0.8137573261D+00
 S   1 1.00       0.000000000000
      0.1612777588D+00  0.1000000000D+01
 ****
     39 0
 S   6 1.00       0.000000000000
      0.3047524880D+04  0.1834737132D-02
      0.4573695180D+03  0.1403732281D-01
      0.1039486850D+03  0.6884262226D-01
      0.2921015530D+02  0.2321844432D+00
      0.9286662960D+01  0.4679413484D+00
      0.3163926960D+01  0.3623119853D+00
 SP   3 1.00       0.000000000000
      0.7868272350D+01 -0.1193324198D+00  0.6899906659D-01
      0.1881288540D+01 -0.1608541517D+00  0.3164239610D+00
      0.5442492580D+00  0.1143456438D+01  0.7443082909D+00
 SP   1 1.00       0.000000000000
      0.1687144782D+00  0.1000000000D+01  0.1000000000D+01
 D   1 1.00       0.000000000000
      0.8000000000D+00  0.1000000000D+01
 ****
     40 0
 S   3 1.00       0.000000000000
      0.1873113696D+02  0.3349460434D-01
      0.2825394365D+01  0.2347269535D+00
      0.6401216923D+00  0.8137573261D+00
 S   1 1.00       0.000000000000
      0.1612777588D+00  0.1000000000D+01
 ****
     41 0
 S   3 1.00       0.000000000000
      0.1873113696D+02  0.3349460434D-01
      0.2825394365D+01  0.2347269535D+00
      0.6401216923D+00  0.8137573261D+00
 S   1 1.00       0.000000000000
      0.1612777588D+00  0.1000000000D+01
 ****
     42 0
 S   3 1.00       0.000000000000
      0.1873113696D+02  0.3349460434D-01
      0.2825394365D+01  0.2347269535D+00
      0.6401216923D+00  0.8137573261D+00
 S   1 1.00       0.000000000000
      0.1612777588D+00  0.1000000000D+01
 ****
     43 0
 S   6 1.00       0.000000000000
      0.3047524880D+04  0.1834737132D-02
      0.4573695180D+03  0.1403732281D-01
      0.1039486850D+03  0.6884262226D-01
      0.2921015530D+02  0.2321844432D+00
      0.9286662960D+01  0.4679413484D+00
      0.3163926960D+01  0.3623119853D+00
 SP   3 1.00       0.000000000000
      0.7868272350D+01 -0.1193324198D+00  0.6899906659D-01
      0.1881288540D+01 -0.1608541517D+00  0.3164239610D+00
      0.5442492580D+00  0.1143456438D+01  0.7443082909D+00
 SP   1 1.00       0.000000000000
      0.1687144782D+00  0.1000000000D+01  0.1000000000D+01
 D   1 1.00       0.000000000000
      0.8000000000D+00  0.1000000000D+01
 ****
     44 0
 S   3 1.00       0.000000000000
      0.1873113696D+02  0.3349460434D-01
      0.2825394365D+01  0.2347269535D+00
      0.6401216923D+00  0.8137573261D+00
 S   1 1.00       0.000000000000
      0.1612777588D+00  0.1000000000D+01
 ****
     45 0
 S   6 1.00       0.000000000000
      0.3047524880D+04  0.1834737132D-02
      0.4573695180D+03  0.1403732281D-01
      0.1039486850D+03  0.6884262226D-01
      0.2921015530D+02  0.2321844432D+00
      0.9286662960D+01  0.4679413484D+00
      0.3163926960D+01  0.3623119853D+00
 SP   3 1.00       0.000000000000
      0.7868272350D+01 -0.1193324198D+00  0.6899906659D-01
      0.1881288540D+01 -0.1608541517D+00  0.3164239610D+00
      0.5442492580D+00  0.1143456438D+01  0.7443082909D+00
 SP   1 1.00       0.000000000000
      0.1687144782D+00  0.1000000000D+01  0.1000000000D+01
 D   1 1.00       0.000000000000
      0.8000000000D+00  0.1000000000D+01
 ****
     46 0
 S   3 1.00       0.000000000000
      0.1873113696D+02  0.3349460434D-01
      0.2825394365D+01  0.2347269535D+00
      0.6401216923D+00  0.8137573261D+00
 S   1 1.00       0.000000000000
      0.1612777588D+00  0.1000000000D+01
 ****
     47 0
 S   3 1.00       0.000000000000
      0.1873113696D+02  0.3349460434D-01
      0.2825394365D+01  0.2347269535D+00
      0.6401216923D+00  0.8137573261D+00
 S   1 1.00       0.000000000000
      0.1612777588D+00  0.1000000000D+01
 ****
     48 0
 S   3 1.00       0.000000000000
      0.1873113696D+02  0.3349460434D-01
      0.2825394365D+01  0.2347269535D+00
      0.6401216923D+00  0.8137573261D+00
 S   1 1.00       0.000000000000
      0.1612777588D+00  0.1000000000D+01
 ****
     49 0
 S   6 1.00       0.000000000000
      0.3047524880D+04  0.1834737132D-02
      0.4573695180D+03  0.1403732281D-01
      0.1039486850D+03  0.6884262226D-01
      0.2921015530D+02  0.2321844432D+00
      0.9286662960D+01  0.4679413484D+00
      0.3163926960D+01  0.3623119853D+00
 SP   3 1.00       0.000000000000
      0.7868272350D+01 -0.1193324198D+00  0.6899906659D-01
      0.1881288540D+01 -0.1608541517D+00  0.3164239610D+00
      0.5442492580D+00  0.1143456438D+01  0.7443082909D+00
 SP   1 1.00       0.000000000000
      0.1687144782D+00  0.1000000000D+01  0.1000000000D+01
 D   1 1.00       0.000000000000
      0.8000000000D+00  0.1000000000D+01
 ****
     50 0
 S   3 1.00       0.000000000000
      0.1873113696D+02  0.3349460434D-01
      0.2825394365D+01  0.2347269535D+00
      0.6401216923D+00  0.8137573261D+00
 S   1 1.00       0.000000000000
      0.1612777588D+00  0.1000000000D+01
 ****
     51 0
 S   3 1.00       0.000000000000
      0.1873113696D+02  0.3349460434D-01
      0.2825394365D+01  0.2347269535D+00
      0.6401216923D+00  0.8137573261D+00
 S   1 1.00       0.000000000000
      0.1612777588D+00  0.1000000000D+01
 ****
     52 0
 S   3 1.00       0.000000000000
      0.1873113696D+02  0.3349460434D-01
      0.2825394365D+01  0.2347269535D+00
      0.6401216923D+00  0.8137573261D+00
 S   1 1.00       0.000000000000
      0.1612777588D+00  0.1000000000D+01
 ****
     53 0
 S   6 1.00       0.000000000000
      0.5484671660D+04  0.1831074430D-02
      0.8252349460D+03  0.1395017220D-01
      0.1880469580D+03  0.6844507810D-01
      0.5296450000D+02  0.2327143360D+00
      0.1689757040D+02  0.4701928980D+00
      0.5799635340D+01  0.3585208530D+00
 SP   3 1.00       0.000000000000
      0.1553961625D+02 -0.1107775495D+00  0.7087426823D-01
      0.3599933586D+01 -0.1480262627D+00  0.3397528391D+00
      0.1013761750D+01  0.1130767015D+01  0.7271585773D+00
 SP   1 1.00       0.000000000000
      0.2700058226D+00  0.1000000000D+01  0.1000000000D+01
 D   1 1.00       0.000000000000
      0.8000000000D+00  0.1000000000D+01
 ****
     54 0
 S   6 1.00       0.000000000000
      0.5484671660D+04  0.1831074430D-02
      0.8252349460D+03  0.1395017220D-01
      0.1880469580D+03  0.6844507810D-01
      0.5296450000D+02  0.2327143360D+00
      0.1689757040D+02  0.4701928980D+00
      0.5799635340D+01  0.3585208530D+00
 SP   3 1.00       0.000000000000
      0.1553961625D+02 -0.1107775495D+00  0.7087426823D-01
      0.3599933586D+01 -0.1480262627D+00  0.3397528391D+00
      0.1013761750D+01  0.1130767015D+01  0.7271585773D+00
 SP   1 1.00       0.000000000000
      0.2700058226D+00  0.1000000000D+01  0.1000000000D+01
 D   1 1.00       0.000000000000
      0.8000000000D+00  0.1000000000D+01
 ****
     55 0
 S   3 1.00       0.000000000000
      0.1873113696D+02  0.3349460434D-01
      0.2825394365D+01  0.2347269535D+00
      0.6401216923D+00  0.8137573261D+00
 S   1 1.00       0.000000000000
      0.1612777588D+00  0.1000000000D+01
 ****
     56 0
 S   6 1.00       0.000000000000
      0.5484671660D+04  0.1831074430D-02
      0.8252349460D+03  0.1395017220D-01
      0.1880469580D+03  0.6844507810D-01
      0.5296450000D+02  0.2327143360D+00
      0.1689757040D+02  0.4701928980D+00
      0.5799635340D+01  0.3585208530D+00
 SP   3 1.00       0.000000000000
      0.1553961625D+02 -0.1107775495D+00  0.7087426823D-01
      0.3599933586D+01 -0.1480262627D+00  0.3397528391D+00
      0.1013761750D+01  0.1130767015D+01  0.7271585773D+00
 SP   1 1.00       0.000000000000
      0.2700058226D+00  0.1000000000D+01  0.1000000000D+01
 D   1 1.00       0.000000000000
      0.8000000000D+00  0.1000000000D+01
 ****
     57 0
 S   3 1.00       0.000000000000
      0.1873113696D+02  0.3349460434D-01
      0.2825394365D+01  0.2347269535D+00
      0.6401216923D+00  0.8137573261D+00
 S   1 1.00       0.000000000000
      0.1612777588D+00  0.1000000000D+01
 ****
     58 0
 S   6 1.00       0.000000000000
      0.3047524880D+04  0.1834737132D-02
      0.4573695180D+03  0.1403732281D-01
      0.1039486850D+03  0.6884262226D-01
      0.2921015530D+02  0.2321844432D+00
      0.9286662960D+01  0.4679413484D+00
      0.3163926960D+01  0.3623119853D+00
 SP   3 1.00       0.000000000000
      0.7868272350D+01 -0.1193324198D+00  0.6899906659D-01
      0.1881288540D+01 -0.1608541517D+00  0.3164239610D+00
      0.5442492580D+00  0.1143456438D+01  0.7443082909D+00
 SP   1 1.00       0.000000000000
      0.1687144782D+00  0.1000000000D+01  0.1000000000D+01
 D   1 1.00       0.000000000000
      0.8000000000D+00  0.1000000000D+01
 ****
     59 0
 S   3 1.00       0.000000000000
      0.1873113696D+02  0.3349460434D-01
      0.2825394365D+01  0.2347269535D+00
      0.6401216923D+00  0.8137573261D+00
 S   1 1.00       0.000000000000
      0.1612777588D+00  0.1000000000D+01
 ****
     60 0
 S   3 1.00       0.000000000000
      0.1873113696D+02  0.3349460434D-01
      0.2825394365D+01  0.2347269535D+00
      0.6401216923D+00  0.8137573261D+00
 S   1 1.00       0.000000000000
      0.1612777588D+00  0.1000000000D+01
 ****
     61 0
 S   6 1.00       0.000000000000
      0.3047524880D+04  0.1834737132D-02
      0.4573695180D+03  0.1403732281D-01
      0.1039486850D+03  0.6884262226D-01
      0.2921015530D+02  0.2321844432D+00
      0.9286662960D+01  0.4679413484D+00
      0.3163926960D+01  0.3623119853D+00
 SP   3 1.00       0.000000000000
      0.7868272350D+01 -0.1193324198D+00  0.6899906659D-01
      0.1881288540D+01 -0.1608541517D+00  0.3164239610D+00
      0.5442492580D+00  0.1143456438D+01  0.7443082909D+00
 SP   1 1.00       0.000000000000
      0.1687144782D+00  0.1000000000D+01  0.1000000000D+01
 D   1 1.00       0.000000000000
      0.8000000000D+00  0.1000000000D+01
 ****
     62 0
 S   3 1.00       0.000000000000
      0.1873113696D+02  0.3349460434D-01
      0.2825394365D+01  0.2347269535D+00
      0.6401216923D+00  0.8137573261D+00
 S   1 1.00       0.000000000000
      0.1612777588D+00  0.1000000000D+01
 ****
     63 0
 S   3 1.00       0.000000000000
      0.1873113696D+02  0.3349460434D-01
      0.2825394365D+01  0.2347269535D+00
      0.6401216923D+00  0.8137573261D+00
 S   1 1.00       0.000000000000
      0.1612777588D+00  0.1000000000D+01
 ****
     64 0
 S   6 1.00       0.000000000000
      0.3047524880D+04  0.1834737132D-02
      0.4573695180D+03  0.1403732281D-01
      0.1039486850D+03  0.6884262226D-01
      0.2921015530D+02  0.2321844432D+00
      0.9286662960D+01  0.4679413484D+00
      0.3163926960D+01  0.3623119853D+00
 SP   3 1.00       0.000000000000
      0.7868272350D+01 -0.1193324198D+00  0.6899906659D-01
      0.1881288540D+01 -0.1608541517D+00  0.3164239610D+00
      0.5442492580D+00  0.1143456438D+01  0.7443082909D+00
 SP   1 1.00       0.000000000000
      0.1687144782D+00  0.1000000000D+01  0.1000000000D+01
 D   1 1.00       0.000000000000
      0.8000000000D+00  0.1000000000D+01
 ****
     65 0
 S   3 1.00       0.000000000000
      0.1873113696D+02  0.3349460434D-01
      0.2825394365D+01  0.2347269535D+00
      0.6401216923D+00  0.8137573261D+00
 S   1 1.00       0.000000000000
      0.1612777588D+00  0.1000000000D+01
 ****
     66 0
 S   3 1.00       0.000000000000
      0.1873113696D+02  0.3349460434D-01
      0.2825394365D+01  0.2347269535D+00
      0.6401216923D+00  0.8137573261D+00
 S   1 1.00       0.000000000000
      0.1612777588D+00  0.1000000000D+01
 ****
     67 0
 S   6 1.00       0.000000000000
      0.3047524880D+04  0.1834737132D-02
      0.4573695180D+03  0.1403732281D-01
      0.1039486850D+03  0.6884262226D-01
      0.2921015530D+02  0.2321844432D+00
      0.9286662960D+01  0.4679413484D+00
      0.3163926960D+01  0.3623119853D+00
 SP   3 1.00       0.000000000000
      0.7868272350D+01 -0.1193324198D+00  0.6899906659D-01
      0.1881288540D+01 -0.1608541517D+00  0.3164239610D+00
      0.5442492580D+00  0.1143456438D+01  0.7443082909D+00
 SP   1 1.00       0.000000000000
      0.1687144782D+00  0.1000000000D+01  0.1000000000D+01
 D   1 1.00       0.000000000000
      0.8000000000D+00  0.1000000000D+01
 ****
     68 0
 S   3 1.00       0.000000000000
      0.1873113696D+02  0.3349460434D-01
      0.2825394365D+01  0.2347269535D+00
      0.6401216923D+00  0.8137573261D+00
 S   1 1.00       0.000000000000
      0.1612777588D+00  0.1000000000D+01
 ****
     69 0
 S   6 1.00       0.000000000000
      0.3047524880D+04  0.1834737132D-02
      0.4573695180D+03  0.1403732281D-01
      0.1039486850D+03  0.6884262226D-01
      0.2921015530D+02  0.2321844432D+00
      0.9286662960D+01  0.4679413484D+00
      0.3163926960D+01  0.3623119853D+00
 SP   3 1.00       0.000000000000
      0.7868272350D+01 -0.1193324198D+00  0.6899906659D-01
      0.1881288540D+01 -0.1608541517D+00  0.3164239610D+00
      0.5442492580D+00  0.1143456438D+01  0.7443082909D+00
 SP   1 1.00       0.000000000000
      0.1687144782D+00  0.1000000000D+01  0.1000000000D+01
 D   1 1.00       0.000000000000
      0.8000000000D+00  0.1000000000D+01
 ****
     70 0
 S   3 1.00       0.000000000000
      0.1873113696D+02  0.3349460434D-01
      0.2825394365D+01  0.2347269535D+00
      0.6401216923D+00  0.8137573261D+00
 S   1 1.00       0.000000000000
      0.1612777588D+00  0.1000000000D+01
 ****
     71 0
 S   3 1.00       0.000000000000
      0.1873113696D+02  0.3349460434D-01
      0.2825394365D+01  0.2347269535D+00
      0.6401216923D+00  0.8137573261D+00
 S   1 1.00       0.000000000000
      0.1612777588D+00  0.1000000000D+01
 ****
     72 0
 S   3 1.00       0.000000000000
      0.1873113696D+02  0.3349460434D-01
      0.2825394365D+01  0.2347269535D+00
      0.6401216923D+00  0.8137573261D+00
 S   1 1.00       0.000000000000
      0.1612777588D+00  0.1000000000D+01
 ****
     73 0
 S   6 1.00       0.000000000000
      0.3047524880D+04  0.1834737132D-02
      0.4573695180D+03  0.1403732281D-01
      0.1039486850D+03  0.6884262226D-01
      0.2921015530D+02  0.2321844432D+00
      0.9286662960D+01  0.4679413484D+00
      0.3163926960D+01  0.3623119853D+00
 SP   3 1.00       0.000000000000
      0.7868272350D+01 -0.1193324198D+00  0.6899906659D-01
      0.1881288540D+01 -0.1608541517D+00  0.3164239610D+00
      0.5442492580D+00  0.1143456438D+01  0.7443082909D+00
 SP   1 1.00       0.000000000000
      0.1687144782D+00  0.1000000000D+01  0.1000000000D+01
 D   1 1.00       0.000000000000
      0.8000000000D+00  0.1000000000D+01
 ****
     74 0
 S   3 1.00       0.000000000000
      0.1873113696D+02  0.3349460434D-01
      0.2825394365D+01  0.2347269535D+00
      0.6401216923D+00  0.8137573261D+00
 S   1 1.00       0.000000000000
      0.1612777588D+00  0.1000000000D+01
 ****
     75 0
 S   3 1.00       0.000000000000
      0.1873113696D+02  0.3349460434D-01
      0.2825394365D+01  0.2347269535D+00
      0.6401216923D+00  0.8137573261D+00
 S   1 1.00       0.000000000000
      0.1612777588D+00  0.1000000000D+01
 ****
     76 0
 S   3 1.00       0.000000000000
      0.1873113696D+02  0.3349460434D-01
      0.2825394365D+01  0.2347269535D+00
      0.6401216923D+00  0.8137573261D+00
 S   1 1.00       0.000000000000
      0.1612777588D+00  0.1000000000D+01
 ****

 AO basis set (Overlap normalization):
 Atom C1       Shell     1 S   6     bf    1 -     1          3.324494841128         -2.359438898222         -0.118291394610
      0.3047524880D+04  0.1834737132D-02
      0.4573695180D+03  0.1403732281D-01
      0.1039486850D+03  0.6884262226D-01
      0.2921015530D+02  0.2321844432D+00
      0.9286662960D+01  0.4679413484D+00
      0.3163926960D+01  0.3623119853D+00
 Atom C1       Shell     2 SP   3    bf    2 -     5          3.324494841128         -2.359438898222         -0.118291394610
      0.7868272350D+01 -0.1193324198D+00  0.6899906659D-01
      0.1881288540D+01 -0.1608541517D+00  0.3164239610D+00
      0.5442492580D+00  0.1143456438D+01  0.7443082909D+00
 Atom C1       Shell     3 SP   1    bf    6 -     9          3.324494841128         -2.359438898222         -0.118291394610
      0.1687144782D+00  0.1000000000D+01  0.1000000000D+01
 Atom C1       Shell     4 D   1     bf   10 -    15          3.324494841128         -2.359438898222         -0.118291394610
      0.8000000000D+00  0.1000000000D+01
 Atom H2       Shell     5 S   3     bf   16 -    16          3.539668941886         -2.135128840886         -2.167728903247
      0.1873113696D+02  0.3349460434D-01
      0.2825394365D+01  0.2347269535D+00
      0.6401216923D+00  0.8137573261D+00
 Atom H2       Shell     6 S   1     bf   17 -    17          3.539668941886         -2.135128840886         -2.167728903247
      0.1612777588D+00  0.1000000000D+01
 Atom C3       Shell     7 S   6     bf   18 -    18          5.953838371828         -2.471788729309          1.101286413209
      0.3047524880D+04  0.1834737132D-02
      0.4573695180D+03  0.1403732281D-01
      0.1039486850D+03  0.6884262226D-01
      0.2921015530D+02  0.2321844432D+00
      0.9286662960D+01  0.4679413484D+00
      0.3163926960D+01  0.3623119853D+00
 Atom C3       Shell     8 SP   3    bf   19 -    22          5.953838371828         -2.471788729309          1.101286413209
      0.7868272350D+01 -0.1193324198D+00  0.6899906659D-01
      0.1881288540D+01 -0.1608541517D+00  0.3164239610D+00
      0.5442492580D+00  0.1143456438D+01  0.7443082909D+00
 Atom C3       Shell     9 SP   1    bf   23 -    26          5.953838371828         -2.471788729309          1.101286413209
      0.1687144782D+00  0.1000000000D+01  0.1000000000D+01
 Atom C3       Shell    10 D   1     bf   27 -    32          5.953838371828         -2.471788729309          1.101286413209
      0.8000000000D+00  0.1000000000D+01
 Atom H4       Shell    11 S   3     bf   33 -    33          7.047393405201         -4.018563055023          0.272148814541
      0.1873113696D+02  0.3349460434D-01
      0.2825394365D+01  0.2347269535D+00
      0.6401216923D+00  0.8137573261D+00
 Atom H4       Shell    12 S   1     bf   34 -    34          7.047393405201         -4.018563055023          0.272148814541
      0.1612777588D+00  0.1000000000D+01
 Atom H5       Shell    13 S   3     bf   35 -    35          5.694840237035         -2.937037829239          3.115138167784
      0.1873113696D+02  0.3349460434D-01
      0.2825394365D+01  0.2347269535D+00
      0.6401216923D+00  0.8137573261D+00
 Atom H5       Shell    14 S   1     bf   36 -    36          5.694840237035         -2.937037829239          3.115138167784
      0.1612777588D+00  0.1000000000D+01
 Atom C6       Shell    15 S   6     bf   37 -    37          7.393628706015         -0.003584961652          0.864523929931
      0.3047524880D+04  0.1834737132D-02
      0.4573695180D+03  0.1403732281D-01
      0.1039486850D+03  0.6884262226D-01
      0.2921015530D+02  0.2321844432D+00
      0.9286662960D+01  0.4679413484D+00
      0.3163926960D+01  0.3623119853D+00
 Atom C6       Shell    16 SP   3    bf   38 -    41          7.393628706015         -0.003584961652          0.864523929931
      0.7868272350D+01 -0.1193324198D+00  0.6899906659D-01
      0.1881288540D+01 -0.1608541517D+00  0.3164239610D+00
      0.5442492580D+00  0.1143456438D+01  0.7443082909D+00
 Atom C6       Shell    17 SP   1    bf   42 -    45          7.393628706015         -0.003584961652          0.864523929931
      0.1687144782D+00  0.1000000000D+01  0.1000000000D+01
 Atom C6       Shell    18 D   1     bf   46 -    51          7.393628706015         -0.003584961652          0.864523929931
      0.8000000000D+00  0.1000000000D+01
 Atom C7       Shell    19 S   6     bf   52 -    52          6.022066971650          2.411715110332          1.680682908415
      0.3047524880D+04  0.1834737132D-02
      0.4573695180D+03  0.1403732281D-01
      0.1039486850D+03  0.6884262226D-01
      0.2921015530D+02  0.2321844432D+00
      0.9286662960D+01  0.4679413484D+00
      0.3163926960D+01  0.3623119853D+00
 Atom C7       Shell    20 SP   3    bf   53 -    56          6.022066971650          2.411715110332          1.680682908415
      0.7868272350D+01 -0.1193324198D+00  0.6899906659D-01
      0.1881288540D+01 -0.1608541517D+00  0.3164239610D+00
      0.5442492580D+00  0.1143456438D+01  0.7443082909D+00
 Atom C7       Shell    21 SP   1    bf   57 -    60          6.022066971650          2.411715110332          1.680682908415
      0.1687144782D+00  0.1000000000D+01  0.1000000000D+01
 Atom C7       Shell    22 D   1     bf   61 -    66          6.022066971650          2.411715110332          1.680682908415
      0.8000000000D+00  0.1000000000D+01
 Atom C8       Shell    23 S   6     bf   67 -    67          3.301130078248          2.372440289606          0.543932496199
      0.3047524880D+04  0.1834737132D-02
      0.4573695180D+03  0.1403732281D-01
      0.1039486850D+03  0.6884262226D-01
      0.2921015530D+02  0.2321844432D+00
      0.9286662960D+01  0.4679413484D+00
      0.3163926960D+01  0.3623119853D+00
 Atom C8       Shell    24 SP   3    bf   68 -    71          3.301130078248          2.372440289606          0.543932496199
      0.7868272350D+01 -0.1193324198D+00  0.6899906659D-01
      0.1881288540D+01 -0.1608541517D+00  0.3164239610D+00
      0.5442492580D+00  0.1143456438D+01  0.7443082909D+00
 Atom C8       Shell    25 SP   1    bf   72 -    75          3.301130078248          2.372440289606          0.543932496199
      0.1687144782D+00  0.1000000000D+01  0.1000000000D+01
 Atom C8       Shell    26 D   1     bf   76 -    81          3.301130078248          2.372440289606          0.543932496199
      0.8000000000D+00  0.1000000000D+01
 Atom H9       Shell    27 S   3     bf   82 -    82          3.443825055988          2.731201904653         -1.496567533795
      0.1873113696D+02  0.3349460434D-01
      0.2825394365D+01  0.2347269535D+00
      0.6401216923D+00  0.8137573261D+00
 Atom H9       Shell    28 S   1     bf   83 -    83          3.443825055988          2.731201904653         -1.496567533795
      0.1612777588D+00  0.1000000000D+01
 Atom H10      Shell    29 S   3     bf   84 -    84          2.197032659622          3.932198356661          1.338260621403
      0.1873113696D+02  0.3349460434D-01
      0.2825394365D+01  0.2347269535D+00
      0.6401216923D+00  0.8137573261D+00
 Atom H10      Shell    30 S   1     bf   85 -    85          2.197032659622          3.932198356661          1.338260621403
      0.1612777588D+00  0.1000000000D+01
 Atom C11      Shell    31 S   6     bf   86 -    86          1.846757842432         -0.110583315098          0.930843433927
      0.3047524880D+04  0.1834737132D-02
      0.4573695180D+03  0.1403732281D-01
      0.1039486850D+03  0.6884262226D-01
      0.2921015530D+02  0.2321844432D+00
      0.9286662960D+01  0.4679413484D+00
      0.3163926960D+01  0.3623119853D+00
 Atom C11      Shell    32 SP   3    bf   87 -    90          1.846757842432         -0.110583315098          0.930843433927
      0.7868272350D+01 -0.1193324198D+00  0.6899906659D-01
      0.1881288540D+01 -0.1608541517D+00  0.3164239610D+00
      0.5442492580D+00  0.1143456438D+01  0.7443082909D+00
 Atom C11      Shell    33 SP   1    bf   91 -    94          1.846757842432         -0.110583315098          0.930843433927
      0.1687144782D+00  0.1000000000D+01  0.1000000000D+01
 Atom C11      Shell    34 D   1     bf   95 -   100          1.846757842432         -0.110583315098          0.930843433927
      0.8000000000D+00  0.1000000000D+01
 Atom H12      Shell    35 S   3     bf  101 -   101          1.475654728367         -0.428298755730          2.951467192175
      0.1873113696D+02  0.3349460434D-01
      0.2825394365D+01  0.2347269535D+00
      0.6401216923D+00  0.8137573261D+00
 Atom H12      Shell    36 S   1     bf  102 -   102          1.475654728367         -0.428298755730          2.951467192175
      0.1612777588D+00  0.1000000000D+01
 Atom H13      Shell    37 S   3     bf  103 -   103          0.000000000000          0.000000000000          0.000000000000
      0.1873113696D+02  0.3349460434D-01
      0.2825394365D+01  0.2347269535D+00
      0.6401216923D+00  0.8137573261D+00
 Atom H13      Shell    38 S   1     bf  104 -   104          0.000000000000          0.000000000000          0.000000000000
      0.1612777588D+00  0.1000000000D+01
 Atom C14      Shell    39 S   6     bf  105 -   105          9.772704636656          0.000000000000          0.000000000000
      0.3047524880D+04  0.1834737132D-02
      0.4573695180D+03  0.1403732281D-01
      0.1039486850D+03  0.6884262226D-01
      0.2921015530D+02  0.2321844432D+00
      0.9286662960D+01  0.4679413484D+00
      0.3163926960D+01  0.3623119853D+00
 Atom C14      Shell    40 SP   3    bf  106 -   109          9.772704636656          0.000000000000          0.000000000000
      0.7868272350D+01 -0.1193324198D+00  0.6899906659D-01
      0.1881288540D+01 -0.1608541517D+00  0.3164239610D+00
      0.5442492580D+00  0.1143456438D+01  0.7443082909D+00
 Atom C14      Shell    41 SP   1    bf  110 -   113          9.772704636656          0.000000000000          0.000000000000
      0.1687144782D+00  0.1000000000D+01  0.1000000000D+01
 Atom C14      Shell    42 D   1     bf  114 -   119          9.772704636656          0.000000000000          0.000000000000
      0.8000000000D+00  0.1000000000D+01
 Atom H15      Shell    43 S   3     bf  120 -   120         10.652624505542         -1.767429766093         -0.571731350271
      0.1873113696D+02  0.3349460434D-01
      0.2825394365D+01  0.2347269535D+00
      0.6401216923D+00  0.8137573261D+00
 Atom H15      Shell    44 S   1     bf  121 -   121         10.652624505542         -1.767429766093         -0.571731350271
      0.1612777588D+00  0.1000000000D+01
 Atom C16      Shell    45 S   6     bf  122 -   122         11.445976530506          2.280192930484         -0.196242389722
      0.3047524880D+04  0.1834737132D-02
      0.4573695180D+03  0.1403732281D-01
      0.1039486850D+03  0.6884262226D-01
      0.2921015530D+02  0.2321844432D+00
      0.9286662960D+01  0.4679413484D+00
      0.3163926960D+01  0.3623119853D+00
 Atom C16      Shell    46 SP   3    bf  123 -   126         11.445976530506          2.280192930484         -0.196242389722
      0.7868272350D+01 -0.1193324198D+00  0.6899906659D-01
      0.1881288540D+01 -0.1608541517D+00  0.3164239610D+00
      0.5442492580D+00  0.1143456438D+01  0.7443082909D+00
 Atom C16      Shell    47 SP   1    bf  127 -   130         11.445976530506          2.280192930484         -0.196242389722
      0.1687144782D+00  0.1000000000D+01  0.1000000000D+01
 Atom C16      Shell    48 D   1     bf  131 -   136         11.445976530506          2.280192930484         -0.196242389722
      0.8000000000D+00  0.1000000000D+01
 Atom H17      Shell    49 S   3     bf  137 -   137         11.920245444447          2.650516948259         -2.188153365647
      0.1873113696D+02  0.3349460434D-01
      0.2825394365D+01  0.2347269535D+00
      0.6401216923D+00  0.8137573261D+00
 Atom H17      Shell    50 S   1     bf  138 -   138         11.920245444447          2.650516948259         -2.188153365647
      0.1612777588D+00  0.1000000000D+01
 Atom C18      Shell    51 S   6     bf  139 -   139         10.359871081008          4.677871570841          1.034264592495
      0.3047524880D+04  0.1834737132D-02
      0.4573695180D+03  0.1403732281D-01
      0.1039486850D+03  0.6884262226D-01
      0.2921015530D+02  0.2321844432D+00
      0.9286662960D+01  0.4679413484D+00
      0.3163926960D+01  0.3623119853D+00
 Atom C18      Shell    52 SP   3    bf  140 -   143         10.359871081008          4.677871570841          1.034264592495
      0.7868272350D+01 -0.1193324198D+00  0.6899906659D-01
      0.1881288540D+01 -0.1608541517D+00  0.3164239610D+00
      0.5442492580D+00  0.1143456438D+01  0.7443082909D+00
 Atom C18      Shell    53 SP   1    bf  144 -   147         10.359871081008          4.677871570841          1.034264592495
      0.1687144782D+00  0.1000000000D+01  0.1000000000D+01
 Atom C18      Shell    54 D   1     bf  148 -   153         10.359871081008          4.677871570841          1.034264592495
      0.8000000000D+00  0.1000000000D+01
 Atom H19      Shell    55 S   3     bf  154 -   154         10.768067704924          4.543507035018          3.063640862991
      0.1873113696D+02  0.3349460434D-01
      0.2825394365D+01  0.2347269535D+00
      0.6401216923D+00  0.8137573261D+00
 Atom H19      Shell    56 S   1     bf  155 -   155         10.768067704924          4.543507035018          3.063640862991
      0.1612777588D+00  0.1000000000D+01
 Atom C20      Shell    57 S   6     bf  156 -   156          7.450610751936          4.781240289508          0.624418899069
      0.3047524880D+04  0.1834737132D-02
      0.4573695180D+03  0.1403732281D-01
      0.1039486850D+03  0.6884262226D-01
      0.2921015530D+02  0.2321844432D+00
      0.9286662960D+01  0.4679413484D+00
      0.3163926960D+01  0.3623119853D+00
 Atom C20      Shell    58 SP   3    bf  157 -   160          7.450610751936          4.781240289508          0.624418899069
      0.7868272350D+01 -0.1193324198D+00  0.6899906659D-01
      0.1881288540D+01 -0.1608541517D+00  0.3164239610D+00
      0.5442492580D+00  0.1143456438D+01  0.7443082909D+00
 Atom C20      Shell    59 SP   1    bf  161 -   164          7.450610751936          4.781240289508          0.624418899069
      0.1687144782D+00  0.1000000000D+01  0.1000000000D+01
 Atom C20      Shell    60 D   1     bf  165 -   170          7.450610751936          4.781240289508          0.624418899069
      0.8000000000D+00  0.1000000000D+01
 Atom H21      Shell    61 S   3     bf  171 -   171          7.169699315111          4.727108196260         -1.438852727669
      0.1873113696D+02  0.3349460434D-01
      0.2825394365D+01  0.2347269535D+00
      0.6401216923D+00  0.8137573261D+00
 Atom H21      Shell    62 S   1     bf  172 -   172          7.169699315111          4.727108196260         -1.438852727669
      0.1612777588D+00  0.1000000000D+01
 Atom C22      Shell    63 S   6     bf  173 -   173          6.333918988935          7.316137141121          1.558562229461
      0.3047524880D+04  0.1834737132D-02
      0.4573695180D+03  0.1403732281D-01
      0.1039486850D+03  0.6884262226D-01
      0.2921015530D+02  0.2321844432D+00
      0.9286662960D+01  0.4679413484D+00
      0.3163926960D+01  0.3623119853D+00
 Atom C22      Shell    64 SP   3    bf  174 -   177          6.333918988935          7.316137141121          1.558562229461
      0.7868272350D+01 -0.1193324198D+00  0.6899906659D-01
      0.1881288540D+01 -0.1608541517D+00  0.3164239610D+00
      0.5442492580D+00  0.1143456438D+01  0.7443082909D+00
 Atom C22      Shell    65 SP   1    bf  178 -   181          6.333918988935          7.316137141121          1.558562229461
      0.1687144782D+00  0.1000000000D+01  0.1000000000D+01
 Atom C22      Shell    66 D   1     bf  182 -   187          6.333918988935          7.316137141121          1.558562229461
      0.8000000000D+00  0.1000000000D+01
 Atom H23      Shell    67 S   3     bf  188 -   188          6.396925991994          7.390244565559          3.625937623263
      0.1873113696D+02  0.3349460434D-01
      0.2825394365D+01  0.2347269535D+00
      0.6401216923D+00  0.8137573261D+00
 Atom H23      Shell    68 S   1     bf  189 -   189          6.396925991994          7.390244565559          3.625937623263
      0.1612777588D+00  0.1000000000D+01
 Atom H24      Shell    69 S   3     bf  190 -   190          4.331840492730          7.418536675947          1.043558681356
      0.1873113696D+02  0.3349460434D-01
      0.2825394365D+01  0.2347269535D+00
      0.6401216923D+00  0.8137573261D+00
 Atom H24      Shell    70 S   1     bf  191 -   191          4.331840492730          7.418536675947          1.043558681356
      0.1612777588D+00  0.1000000000D+01
 Atom C25      Shell    71 S   6     bf  192 -   192          7.679990642131          9.667129152502          0.491885885814
      0.3047524880D+04  0.1834737132D-02
      0.4573695180D+03  0.1403732281D-01
      0.1039486850D+03  0.6884262226D-01
      0.2921015530D+02  0.2321844432D+00
      0.9286662960D+01  0.4679413484D+00
      0.3163926960D+01  0.3623119853D+00
 Atom C25      Shell    72 SP   3    bf  193 -   196          7.679990642131          9.667129152502          0.491885885814
      0.7868272350D+01 -0.1193324198D+00  0.6899906659D-01
      0.1881288540D+01 -0.1608541517D+00  0.3164239610D+00
      0.5442492580D+00  0.1143456438D+01  0.7443082909D+00
 Atom C25      Shell    73 SP   1    bf  197 -   200          7.679990642131          9.667129152502          0.491885885814
      0.1687144782D+00  0.1000000000D+01  0.1000000000D+01
 Atom C25      Shell    74 D   1     bf  201 -   206          7.679990642131          9.667129152502          0.491885885814
      0.8000000000D+00  0.1000000000D+01
 Atom H26      Shell    75 S   3     bf  207 -   207          7.379668278619          9.753043359051         -1.561344322068
      0.1873113696D+02  0.3349460434D-01
      0.2825394365D+01  0.2347269535D+00
      0.6401216923D+00  0.8137573261D+00
 Atom H26      Shell    76 S   1     bf  208 -   208          7.379668278619          9.753043359051         -1.561344322068
      0.1612777588D+00  0.1000000000D+01
 Atom H27      Shell    77 S   3     bf  209 -   209          6.797030506253         11.361990732784          1.291956076154
      0.1873113696D+02  0.3349460434D-01
      0.2825394365D+01  0.2347269535D+00
      0.6401216923D+00  0.8137573261D+00
 Atom H27      Shell    78 S   1     bf  210 -   210          6.797030506253         11.361990732784          1.291956076154
      0.1612777588D+00  0.1000000000D+01
 Atom C28      Shell    79 S   6     bf  211 -   211         10.539451509752          9.611917798865          1.029275621018
      0.3047524880D+04  0.1834737132D-02
      0.4573695180D+03  0.1403732281D-01
      0.1039486850D+03  0.6884262226D-01
      0.2921015530D+02  0.2321844432D+00
      0.9286662960D+01  0.4679413484D+00
      0.3163926960D+01  0.3623119853D+00
 Atom C28      Shell    80 SP   3    bf  212 -   215         10.539451509752          9.611917798865          1.029275621018
      0.7868272350D+01 -0.1193324198D+00  0.6899906659D-01
      0.1881288540D+01 -0.1608541517D+00  0.3164239610D+00
      0.5442492580D+00  0.1143456438D+01  0.7443082909D+00
 Atom C28      Shell    81 SP   1    bf  216 -   219         10.539451509752          9.611917798865          1.029275621018
      0.1687144782D+00  0.1000000000D+01  0.1000000000D+01
 Atom C28      Shell    82 D   1     bf  220 -   225         10.539451509752          9.611917798865          1.029275621018
      0.8000000000D+00  0.1000000000D+01
 Atom C29      Shell    83 S   6     bf  226 -   226         11.572723126753          7.082257680723         -0.068652314216
      0.3047524880D+04  0.1834737132D-02
      0.4573695180D+03  0.1403732281D-01
      0.1039486850D+03  0.6884262226D-01
      0.2921015530D+02  0.2321844432D+00
      0.9286662960D+01  0.4679413484D+00
      0.3163926960D+01  0.3623119853D+00
 Atom C29      Shell    84 SP   3    bf  227 -   230         11.572723126753          7.082257680723         -0.068652314216
      0.7868272350D+01 -0.1193324198D+00  0.6899906659D-01
      0.1881288540D+01 -0.1608541517D+00  0.3164239610D+00
      0.5442492580D+00  0.1143456438D+01  0.7443082909D+00
 Atom C29      Shell    85 SP   1    bf  231 -   234         11.572723126753          7.082257680723         -0.068652314216
      0.1687144782D+00  0.1000000000D+01  0.1000000000D+01
 Atom C29      Shell    86 D   1     bf  235 -   240         11.572723126753          7.082257680723         -0.068652314216
      0.8000000000D+00  0.1000000000D+01
 Atom H30      Shell    87 S   3     bf  241 -   241         11.024787434714          7.099168764297         -2.079817653017
      0.1873113696D+02  0.3349460434D-01
      0.2825394365D+01  0.2347269535D+00
      0.6401216923D+00  0.8137573261D+00
 Atom H30      Shell    88 S   1     bf  242 -   242         11.024787434714          7.099168764297         -2.079817653017
      0.1612777588D+00  0.1000000000D+01
 Atom C31      Shell    89 S   6     bf  243 -   243         14.465186171559          7.408688368205          0.000000000000
      0.3047524880D+04  0.1834737132D-02
      0.4573695180D+03  0.1403732281D-01
      0.1039486850D+03  0.6884262226D-01
      0.2921015530D+02  0.2321844432D+00
      0.9286662960D+01  0.4679413484D+00
      0.3163926960D+01  0.3623119853D+00
 Atom C31      Shell    90 SP   3    bf  244 -   247         14.465186171559          7.408688368205          0.000000000000
      0.7868272350D+01 -0.1193324198D+00  0.6899906659D-01
      0.1881288540D+01 -0.1608541517D+00  0.3164239610D+00
      0.5442492580D+00  0.1143456438D+01  0.7443082909D+00
 Atom C31      Shell    91 SP   1    bf  248 -   251         14.465186171559          7.408688368205          0.000000000000
      0.1687144782D+00  0.1000000000D+01  0.1000000000D+01
 Atom C31      Shell    92 D   1     bf  252 -   257         14.465186171559          7.408688368205          0.000000000000
      0.8000000000D+00  0.1000000000D+01
 Atom H32      Shell    93 S   3     bf  258 -   258         15.415780796260          6.218822251942         -1.399296413338
      0.1873113696D+02  0.3349460434D-01
      0.2825394365D+01  0.2347269535D+00
      0.6401216923D+00  0.8137573261D+00
 Atom H32      Shell    94 S   1     bf  259 -   259         15.415780796260          6.218822251942         -1.399296413338
      0.1612777588D+00  0.1000000000D+01
 Atom H33      Shell    95 S   3     bf  260 -   260         15.219857562384          6.861845637070          1.846617870418
      0.1873113696D+02  0.3349460434D-01
      0.2825394365D+01  0.2347269535D+00
      0.6401216923D+00  0.8137573261D+00
 Atom H33      Shell    96 S   1     bf  261 -   261         15.219857562384          6.861845637070          1.846617870418
      0.1612777588D+00  0.1000000000D+01
 Atom C34      Shell    97 S   6     bf  262 -   262         14.866378752331         10.273140493872         -0.517684691542
      0.3047524880D+04  0.1834737132D-02
      0.4573695180D+03  0.1403732281D-01
      0.1039486850D+03  0.6884262226D-01
      0.2921015530D+02  0.2321844432D+00
      0.9286662960D+01  0.4679413484D+00
      0.3163926960D+01  0.3623119853D+00
 Atom C34      Shell    98 SP   3    bf  263 -   266         14.866378752331         10.273140493872         -0.517684691542
      0.7868272350D+01 -0.1193324198D+00  0.6899906659D-01
      0.1881288540D+01 -0.1608541517D+00  0.3164239610D+00
      0.5442492580D+00  0.1143456438D+01  0.7443082909D+00
 Atom C34      Shell    99 SP   1    bf  267 -   270         14.866378752331         10.273140493872         -0.517684691542
      0.1687144782D+00  0.1000000000D+01  0.1000000000D+01
 Atom C34      Shell   100 D   1     bf  271 -   276         14.866378752331         10.273140493872         -0.517684691542
      0.8000000000D+00  0.1000000000D+01
 Atom H35      Shell   101 S   3     bf  277 -   277         16.070442475517         11.115068590486          0.938673722029
      0.1873113696D+02  0.3349460434D-01
      0.2825394365D+01  0.2347269535D+00
      0.6401216923D+00  0.8137573261D+00
 Atom H35      Shell   102 S   1     bf  278 -   278         16.070442475517         11.115068590486          0.938673722029
      0.1612777588D+00  0.1000000000D+01
 Atom H36      Shell   103 S   3     bf  279 -   279         15.823805417304         10.607924205499         -2.322772447580
      0.1873113696D+02  0.3349460434D-01
      0.2825394365D+01  0.2347269535D+00
      0.6401216923D+00  0.8137573261D+00
 Atom H36      Shell   104 S   1     bf  280 -   280         15.823805417304         10.607924205499         -2.322772447580
      0.1612777588D+00  0.1000000000D+01
 Atom C37      Shell   105 S   6     bf  281 -   281         12.188892029546         11.510668621255         -0.538999252746
      0.3047524880D+04  0.1834737132D-02
      0.4573695180D+03  0.1403732281D-01
      0.1039486850D+03  0.6884262226D-01
      0.2921015530D+02  0.2321844432D+00
      0.9286662960D+01  0.4679413484D+00
      0.3163926960D+01  0.3623119853D+00
 Atom C37      Shell   106 SP   3    bf  282 -   285         12.188892029546         11.510668621255         -0.538999252746
      0.7868272350D+01 -0.1193324198D+00  0.6899906659D-01
      0.1881288540D+01 -0.1608541517D+00  0.3164239610D+00
      0.5442492580D+00  0.1143456438D+01  0.7443082909D+00
[...]
 1649 Fit       0.006257
 1650 Fit       0.003916
 1651 Fit       0.001103
 1652 Fit       0.003286
 1653 Fit       0.004208
 1654 Fit       0.000758
 1655 Fit       0.000955
 1656 Fit       0.001906
 1657 Fit       0.001054
 1658 Fit       0.000356
 1659 Fit       0.003612
 1660 Fit       0.002951
 1661 Fit       0.002170
 1662 Fit       0.001225
 1663 Fit       0.000191
 1664 Fit       0.001382
 1665 Fit       0.004366
 1666 Fit       0.003671
 1667 Fit       0.002490
 1668 Fit       0.001365
 1669 Fit       0.003324
 1670 Fit       0.003081
 1671 Fit       0.005155
 1672 Fit       0.007085
 1673 Fit       0.008206
 1674 Fit       0.007536
 1675 Fit       0.002171
 1676 Fit       0.003467
 1677 Fit       0.004379
 1678 Fit       0.004450
 1679 Fit       0.003531
 1680 Fit       0.000874
 1681 Fit       0.001212
 1682 Fit      -0.003455
 1683 Fit      -0.001280
 1684 Fit       0.002998
 1685 Fit      -0.002924
 1686 Fit      -0.011829
 1687 Fit      -0.017859
 1688 Fit      -0.010518
 1689 Fit      -0.004774
 1690 Fit      -0.001262
 1691 Fit       0.001755
 1692 Fit       0.001377
 1693 Fit      -0.003635
 1694 Fit      -0.007660
 1695 Fit      -0.005083
 1696 Fit      -0.001585
 1697 Fit      -0.001503
 1698 Fit      -0.005111
 1699 Fit      -0.011474
 1700 Fit      -0.003812
 1701 Fit      -0.007003
 1702 Fit      -0.009350
 1703 Fit      -0.005197
 1704 Fit      -0.004694
 1705 Fit      -0.007092
 1706 Fit      -0.014747
 1707 Fit      -0.006508
 1708 Fit      -0.004072
 1709 Fit      -0.012051
 1710 Fit      -0.005249
 1711 Fit      -0.002803
 1712 Fit      -0.010266
 1713 Fit      -0.005008
 1714 Fit       0.001495
 1715 Fit       0.011362
 1716 Fit       0.004924
 1717 Fit      -0.006626
 1718 Fit       0.008914
 1719 Fit       0.002267
 1720 Fit      -0.002426
 1721 Fit       0.000468
 1722 Fit       0.005826
 1723 Fit       0.004645
 1724 Fit       0.006468
 1725 Fit       0.005146
 1726 Fit       0.004249
 1727 Fit       0.003524
 1728 Fit       0.005545
 1729 Fit       0.006808
 1730 Fit       0.005644
 1731 Fit       0.004474
 1732 Fit       0.004225
 1733 Fit       0.004341
 1734 Fit       0.005234
 1735 Fit       0.008449
 1736 Fit       0.007402
 1737 Fit       0.008273
 1738 Fit       0.007080
 1739 Fit       0.005907
 1740 Fit       0.007611
 1741 Fit       0.006218
 1742 Fit       0.006032
 1743 Fit       0.005317
 1744 Fit       0.003786
 1745 Fit       0.003510
 1746 Fit      -0.003587
 1747 Fit       0.008065
 1748 Fit       0.009409
 1749 Fit       0.013596
 1750 Fit       0.006874
 1751 Fit       0.006539
 1752 Fit       0.008221
 1753 Fit       0.014407
 1754 Fit       0.003794
 1755 Fit       0.005328
 1756 Fit       0.003030
 1757 Fit       0.004926
 1758 Fit       0.003214
 1759 Fit       0.001091
 1760 Fit      -0.002621
 1761 Fit       0.004384
 1762 Fit       0.002885
 1763 Fit       0.000267
 1764 Fit      -0.005010
 1765 Fit       0.003462
 1766 Fit       0.001342
 1767 Fit      -0.003175
 1768 Fit      -0.012921
 1769 Fit       0.002706
 1770 Fit      -0.000833
 1771 Fit      -0.007020
 1772 Fit       0.000487
 1773 Fit      -0.017431
 1774 Fit      -0.017866
 1775 Fit      -0.002754
 1776 Fit      -0.004502
 1777 Fit      -0.004052
 1778 Fit      -0.001318
 1779 Fit      -0.014588
 1780 Fit      -0.007547
 1781 Fit      -0.016992
 1782 Fit      -0.005566
 1783 Fit      -0.012912
 1784 Fit      -0.003314
 1785 Fit      -0.006393
 1786 Fit      -0.007818
 1787 Fit      -0.004388
 1788 Fit      -0.005543
 1789 Fit       0.012804
 1790 Fit       0.007663
 1791 Fit       0.008829
 1792 Fit       0.008345
 1793 Fit       0.005568
 1794 Fit       0.002421
 1795 Fit       0.003050
 1796 Fit       0.006257
 1797 Fit      -0.002611
 1798 Fit      -0.009731
 1799 Fit       0.008859
 1800 Fit       0.007679
 1801 Fit       0.007166
 1802 Fit       0.005581
 1803 Fit       0.005503
 1804 Fit       0.007025
 1805 Fit       0.005400
 1806 Fit       0.005823
 1807 Fit       0.005759
 1808 Fit       0.005327
 1809 Fit       0.005665
 1810 Fit       0.006919
 1811 Fit       0.007294
 1812 Fit       0.005733
 1813 Fit       0.006966
 1814 Fit       0.005527
 1815 Fit       0.006783
 1816 Fit       0.005449
 1817 Fit       0.006474
 1818 Fit       0.006318
 1819 Fit       0.002645
 1820 Fit       0.004531
 1821 Fit       0.005519
 1822 Fit       0.006415
 1823 Fit       0.007440
 1824 Fit       0.007770
 1825 Fit       0.008628
 1826 Fit       0.006778
 1827 Fit       0.005771
 1828 Fit       0.006426
 1829 Fit       0.005788
 1830 Fit       0.005936
 1831 Fit       0.005479
 1832 Fit       0.005533
 1833 Fit       0.004377
 1834 Fit       0.007727
 1835 Fit       0.007717
 1836 Fit       0.008007
 1837 Fit       0.008369
 1838 Fit       0.008774
 1839 Fit       0.007627
 1840 Fit       0.001352
 1841 Fit       0.003436
 1842 Fit       0.003196
 1843 Fit       0.007799
 1844 Fit       0.017557
 1845 Fit       0.009030
 1846 Fit       0.015838
 1847 Fit       0.008931
 1848 Fit       0.010573
 1849 Fit       0.011712
 1850 Fit       0.008410
 1851 Fit      -0.001085
 1852 Fit      -0.006609
 1853 Fit      -0.006887
 1854 Fit      -0.000521
 1855 Fit       0.002440
 1856 Fit      -0.005371
 1857 Fit       0.000252
 1858 Fit      -0.001492
 1859 Fit       0.001159
 1860 Fit       0.001371
 1861 Fit       0.001020
 1862 Fit       0.001107
 1863 Fit       0.002560
 1864 Fit       0.004890
 1865 Fit       0.003436
 1866 Fit       0.002327
 1867 Fit       0.002201
 1868 Fit       0.002746
 1869 Fit       0.001385
 1870 Fit       0.001061
 1871 Fit       0.001334
 1872 Fit       0.001258
 1873 Fit       0.002956
 1874 Fit       0.002564
 1875 Fit       0.002654
 1876 Fit       0.004067
 1877 Fit       0.004697
 1878 Fit       0.004379
 1879 Fit       0.004811
 1880 Fit       0.005752
 1881 Fit       0.005823
 1882 Fit       0.005977
 1883 Fit       0.006824
 1884 Fit       0.006673
 1885 Fit       0.006462
 1886 Fit       0.006474
 1887 Fit       0.006592
 1888 Fit       0.006913
 1889 Fit      -0.000017
 1890 Fit      -0.000673
 1891 Fit      -0.000222
 1892 Fit       0.001019
 1893 Fit       0.001430
 1894 Fit      -0.000295
 1895 Fit      -0.000058
 1896 Fit      -0.001154
 1897 Fit      -0.003149
 1898 Fit       0.001141
 1899 Fit       0.003143
 1900 Fit       0.003341
 1901 Fit       0.001089
 1902 Fit       0.000764
 1903 Fit      -0.001711
 1904 Fit       0.000470
 1905 Fit      -0.000021
 1906 Fit       0.002307
 1907 Fit       0.002416
 1908 Fit       0.000292
 1909 Fit       0.004378
 1910 Fit       0.001436
 1911 Fit       0.003179
 1912 Fit       0.002822
 1913 Fit       0.005215
 1914 Fit       0.004841
 1915 Fit       0.004299
 1916 Fit       0.006638
 1917 Fit       0.006596
 1918 Fit       0.005838
 1919 Fit       0.001045
 1920 Fit       0.002182
 1921 Fit       0.002304
 1922 Fit       0.002194
 1923 Fit       0.003815
 1924 Fit       0.002621
 1925 Fit      -0.000644
 1926 Fit      -0.000935
 1927 Fit      -0.000435
 1928 Fit      -0.000845
 1929 Fit      -0.000816
 1930 Fit      -0.000541
 1931 Fit      -0.000297
 1932 Fit       0.000067
 1933 Fit       0.000091
 1934 Fit       0.000407
 1935 Fit       0.001039
 1936 Fit       0.001136
 1937 Fit       0.001289
 1938 Fit      -0.000140
 1939 Fit       0.001742
 1940 Fit       0.003659
 1941 Fit      -0.000144
 1942 Fit       0.000161
 1943 Fit       0.002085
 1944 Fit       0.004466
 1945 Fit       0.000988
 1946 Fit       0.003356
 1947 Fit       0.000185
 1948 Fit       0.001093
 1949 Fit       0.001096
 1950 Fit       0.000219
 1951 Fit       0.000785
 1952 Fit       0.001966
 1953 Fit       0.002592
 1954 Fit       0.002481
 1955 Fit       0.001620
 1956 Fit       0.001398
 1957 Fit       0.002623
 1958 Fit       0.003406
 1959 Fit       0.003731
 1960 Fit       0.002157
 1961 Fit       0.003259
 1962 Fit       0.001113
 1963 Fit       0.001812
 1964 Fit       0.002342
 1965 Fit       0.000437
 1966 Fit       0.003815
 1967 Fit       0.002967
 1968 Fit       0.001024
 1969 Fit       0.002804
 1970 Fit       0.000890
 1971 Fit       0.001799
 1972 Fit       0.002058
 1973 Fit       0.002942
 1974 Fit       0.003222
 1975 Fit       0.003196
 1976 Fit       0.001135
 1977 Fit       0.003684
 1978 Fit       0.005446
 1979 Fit       0.000856
 1980 Fit       0.007432
 1981 Fit      -0.004407
 1982 Fit       0.003861
 1983 Fit       0.004968
 1984 Fit       0.004619
 1985 Fit       0.006557
 1986 Fit       0.006656
 1987 Fit       0.006316
 1988 Fit       0.005818
 1989 Fit       0.007670
 1990 Fit       0.007788
 1991 Fit       0.007252
 1992 Fit       0.005342
 1993 Fit       0.006350
 1994 Fit       0.003355
 1995 Fit       0.009237
 1996 Fit       0.011435
 1997 Fit       0.009768
 1998 Fit       0.004520
 1999 Fit       0.001132
 2000 Fit       0.000432
 2001 Fit       0.002314
 2002 Fit      -0.000422
 2003 Fit      -0.001810
 2004 Fit       0.002507
 2005 Fit      -0.003019
 2006 Fit      -0.004297
 2007 Fit      -0.011067
 2008 Fit      -0.012944
 2009 Fit      -0.018462
 2010 Fit      -0.020514
 2011 Fit      -0.015090
 2012 Fit      -0.021798
 2013 Fit      -0.024362
 2014 Fit      -0.017518
 2015 Fit      -0.014252
 2016 Fit      -0.028407
 2017 Fit      -0.028755
 2018 Fit      -0.023415
 2019 Fit      -0.027064
 2020 Fit      -0.012134
 2021 Fit      -0.026854
 2022 Fit      -0.026113
 2023 Fit      -0.023460
 2024 Fit      -0.018058
 2025 Fit      -0.022727
 2026 Fit      -0.021388
 2027 Fit      -0.016228
 2028 Fit      -0.008077
 2029 Fit      -0.017283
 2030 Fit      -0.018516
 2031 Fit      -0.014887
 2032 Fit      -0.007741
 2033 Fit       0.002369
 2034 Fit      -0.014782
 2035 Fit      -0.011885
 2036 Fit      -0.004254
 2037 Fit      -0.010858
 2038 Fit      -0.010404
 2039 Fit      -0.004366
 2040 Fit       0.006075
 2041 Fit      -0.006872
 2042 Fit      -0.001409
 2043 Fit       0.001429
 2044 Fit       0.003034
 2045 Fit       0.004361
 2046 Fit       0.011884
 2047 Fit       0.013816
 2048 Fit       0.011085
 2049 Fit       0.005872
 2050 Fit       0.016666
 2051 Fit       0.018687
 2052 Fit       0.011532
 2053 Fit       0.017963
 2054 Fit       0.020105
 2055 Fit       0.012433
 2056 Fit       0.015974
 2057 Fit       0.017571
 2058 Fit       0.013521
 2059 Fit       0.008363
 2060 Fit       0.010748
 2061 Fit      -0.002845
 2062 Fit      -0.003501
 2063 Fit      -0.004656
 2064 Fit      -0.006324
 2065 Fit      -0.006489
 2066 Fit      -0.012798
 2067 Fit      -0.015265
 2068 Fit      -0.015836
 2069 Fit      -0.016036
 2070 Fit      -0.016665
 2071 Fit      -0.017497
 2072 Fit      -0.017349
 2073 Fit      -0.017953
 2074 Fit      -0.022200
 2075 Fit      -0.023720
 2076 Fit      -0.024304
 2077 Fit      -0.024615
 2078 Fit      -0.023933
 2079 Fit      -0.020413
 2080 Fit      -0.014985
 2081 Fit      -0.022352
 2082 Fit      -0.025923
 2083 Fit      -0.027107
 2084 Fit      -0.026686
 2085 Fit      -0.023851
 2086 Fit      -0.017236
 2087 Fit      -0.020497
 2088 Fit      -0.024351
 2089 Fit      -0.021326
 2090 Fit       0.020271
 2091 Fit       0.017845
 2092 Fit       0.016683
 2093 Fit       0.016608
 2094 Fit       0.012600
 2095 Fit       0.011550
 2096 Fit       0.011040
 2097 Fit       0.010370
 2098 Fit       0.009746
 2099 Fit       0.001838
 2100 Fit       0.001736
 2101 Fit       0.001626
 2102 Fit       0.000862
 2103 Fit      -0.000418
 2104 Fit      -0.001228
 2105 Fit       0.000960
 2106 Fit       0.001331
 2107 Fit       0.001918
 2108 Fit       0.003520
 2109 Fit       0.006307
 2110 Fit       0.002350
 2111 Fit       0.004695
 2112 Fit       0.003227
 2113 Fit       0.005104
 2114 Fit       0.003434
 2115 Fit       0.000456
 2116 Fit       0.002135
 2117 Fit       0.001298
 2118 Fit       0.003560
 2119 Fit       0.002944
 2120 Fit       0.002085
 2121 Fit       0.004079
 2122 Fit       0.004082
 2123 Fit       0.003472
 2124 Fit       0.002692
 2125 Fit       0.005389
 2126 Fit       0.002606
 2127 Fit       0.003098
 2128 Fit       0.003219
 2129 Fit       0.002978
 2130 Fit       0.003372
 2131 Fit       0.003548
 2132 Fit       0.003297
 2133 Fit       0.002679
 2134 Fit       0.003431
 2135 Fit       0.003769
 2136 Fit       0.003700
 2137 Fit       0.003230
 2138 Fit       0.002679
 2139 Fit       0.002572
 2140 Fit       0.001081
 2141 Fit       0.003151
 2142 Fit       0.000175
 2143 Fit       0.001973
 2144 Fit       0.003924
 2145 Fit       0.001568
 2146 Fit       0.006907
 2147 Fit       0.005763
 2148 Fit       0.006014
 2149 Fit       0.003209
 2150 Fit       0.004028
 2151 Fit       0.004213
 2152 Fit       0.002141
 2153 Fit       0.003310
 2154 Fit       0.003965
 2155 Fit       0.003831
 2156 Fit       0.003295
 2157 Fit       0.001185
 2158 Fit       0.003096
 2159 Fit       0.003097
 2160 Fit       0.003657
 2161 Fit       0.002702
 2162 Fit       0.003156
 2163 Fit       0.003398
 2164 Fit       0.003136
 2165 Fit       0.002421
 2166 Fit       0.001884
 2167 Fit       0.002600
 2168 Fit       0.002824
 2169 Fit       0.002435
 2170 Fit       0.002058
 2171 Fit       0.002271
 2172 Fit       0.000404
 2173 Fit      -0.000070
 2174 Fit       0.001508
 2175 Fit      -0.000429
 2176 Fit       0.000552
 2177 Fit      -0.000841
 2178 Fit      -0.000879
 2179 Fit      -0.000496
 2180 Fit      -0.000203
 2181 Fit      -0.000511
 2182 Fit      -0.000901
 2183 Fit      -0.000508
 2184 Fit      -0.000036
 2185 Fit       0.001968
 2186 Fit       0.002379
 2187 Fit       0.000591
 2188 Fit       0.005365
 2189 Fit       0.004032
 2190 Fit       0.002148
 2191 Fit       0.000470
 2192 Fit       0.004129
 2193 Fit       0.003434
 2194 Fit       0.001300
 2195 Fit      -0.000328
 2196 Fit       0.002114
 2197 Fit       0.002261
 2198 Fit       0.000064
 2199 Fit       0.000384
 2200 Fit       0.000176
 2201 Fit       0.001157
 2202 Fit       0.002145
 2203 Fit       0.003023
 2204 Fit       0.000157
 2205 Fit       0.001162
 2206 Fit       0.002207
 2207 Fit       0.003117
 2208 Fit       0.004023
 2209 Fit       0.000786
 2210 Fit       0.001348
 2211 Fit       0.002455
 2212 Fit       0.003243
 2213 Fit       0.002796
 2214 Fit       0.001318
 2215 Fit       0.002275
 2216 Fit       0.000637
 2217 Fit       0.002469
 2218 Fit       0.003609
 2219 Fit       0.003841
 2220 Fit       0.003392
 2221 Fit       0.001243
 2222 Fit       0.002450
 2223 Fit       0.003033
 2224 Fit       0.002911
 2225 Fit       0.002335
 2226 Fit       0.000196
 2227 Fit       0.001301
 2228 Fit       0.001817
 2229 Fit       0.001631
 2230 Fit       0.000986
 2231 Fit       0.000077
 2232 Fit       0.000146
 2233 Fit       0.001755
 2234 Fit       0.003865
 2235 Fit       0.001038
 2236 Fit       0.001000
 2237 Fit       0.001396
 2238 Fit       0.001934
 2239 Fit       0.000617
 2240 Fit       0.000332
 2241 Fit       0.000379
 2242 Fit       0.000301
 2243 Fit       0.000318
 2244 Fit       0.005239
 2245 Fit       0.006101
 2246 Fit       0.006365
 2247 Fit       0.005061
 2248 Fit       0.001916
 2249 Fit       0.003622
 2250 Fit       0.004718
 2251 Fit       0.005042
 2252 Fit       0.002797
 2253 Fit       0.000941
 2254 Fit       0.002474
 2255 Fit       0.003127
 2256 Fit       0.000603
 2257 Fit       0.000809
 2258 Fit       0.002571
 2259 Fit       0.002060
 2260 Fit       0.001516
 2261 Fit       0.001016
 2262 Fit       0.003428
 2263 Fit       0.002864
 2264 Fit       0.002255
 2265 Fit       0.001541
 2266 Fit       0.000804
 2267 Fit       0.001581
 2268 Fit       0.003661
 2269 Fit       0.003095
 2270 Fit       0.002240
 2271 Fit       0.001506
 2272 Fit       0.002799
 2273 Fit       0.004637
 2274 Fit       0.002406
 2275 Fit       0.003299
 2276 Fit       0.004444
 2277 Fit       0.005398
 2278 Fit       0.005869
 2279 Fit       0.005592
 2280 Fit       0.001856
 2281 Fit       0.002600
 2282 Fit       0.002977
 2283 Fit       0.002797
 -----------------------------------------------------------------
 Leave Link  602 at Thu Apr 27 15:51:19 2017, MaxMem=    33554432 cpu:         4.8
 (Enter /home/michal/g09/l9999.exe)

 Test job not archived.
 1\1\GINC-LINUX\SP\RHF\6-31G(d)\C27H46O3\MICHAL\27-Apr-2017\0\\#P HF/6-
 31G* SCF(Conver=6) NoSymm Test Pop=mk IOp(6/33=2) GFInput GFPrint\\MEP
  - Input generated by R.E.D.-III.x MOLECULE\\0,1\C,0,1.7592469,-1.2485
 6129,-0.06259711\H,0,1.87311213,-1.12986152,-1.14711273\C,0,3.15063557
 ,-1.30801426,0.58277567\H,0,3.72931997,-2.12653198,0.14401495\H,0,3.01
 357966,-1.55421348,1.64846012\C,0,3.9125398,-0.00189708,0.45748636\C,0
 ,3.18674059,1.27622467,0.88937909\C,0,1.7468828,1.25544133,0.28783668\
 H,0,1.82239373,1.4452898,-0.79194943\H,0,1.16261961,2.08082975,0.70817
 702\C,0,0.97726216,-0.05851817,0.49258113\H,0,0.78088285,-0.22664594,1
 .56184917\H,0,0.,0.,0.\C,0,5.17149256,0.,0.\H,0,5.6371261,-0.93528355,
 -0.3025472\C,0,6.05694991,1.20662613,-0.103847\H,0,6.30792221,1.402593
 16,-1.15792089\C,0,5.48220766,2.47542302,0.54730925\H,0,5.69821601,2.4
 0432037,1.62120892\C,0,3.9426934,2.53012339,0.33042825\H,0,3.79404147,
 2.50147792,-0.76140807\C,0,3.35176557,3.87153303,0.82475561\H,0,3.3851
 0744,3.91074899,1.91876355\H,0,2.29231126,3.92572053,0.55222747\C,0,4.
 06407601,5.11562442,0.2602948\H,0,3.90515226,5.16108826,-0.82622783\H,
 0,3.59683363,6.01250654,0.68367371\C,0,5.57723753,5.08640783,0.5446692
 \C,0,6.12402132,3.74776935,-0.03632924\H,0,5.83406624,3.75671831,-1.10
 05921\C,0,7.65464684,3.92050903,0.\H,0,8.15767985,3.290859,-0.74047577
 \H,0,8.05400174,3.63113232,0.97718809\C,0,7.86694881,5.43631181,-0.273
 94694\H,0,8.50411189,5.88184097,0.49672474\H,0,8.37359718,5.61347172,-
 1.22915824\C,0,6.45008386,6.09118349,-0.28522612\H,0,6.07784547,5.9848
 2756,-1.31375857\C,0,5.83514744,5.19820156,2.06539686\H,0,5.47991911,4
 .31817573,2.60749333\H,0,6.89688414,5.31090718,2.29841647\H,0,5.312272
 04,6.06319084,2.48307655\C,0,6.49187482,7.62659289,-0.03691532\H,0,7.2
 4686442,7.98164725,-0.75498776\C,0,6.98612658,8.09553583,1.34661152\H,
 0,6.21606382,7.99170546,2.11665745\H,0,7.25368727,9.15725079,1.2994845
 4\H,0,7.8730656,7.55250533,1.68569437\C,0,3.1036118,1.29863416,2.43918
 143\H,0,2.46283307,2.11246392,2.79274676\H,0,2.68652666,0.36718663,2.8
 3078545\H,0,4.09429282,1.41941171,2.88736697\O,0,7.30471108,0.96150089
 ,0.59314688\O,0,8.03418187,-0.06404798,-0.14602858\H,0,8.79817755,0.45
 312379,-0.44996809\O,0,1.05200562,-2.48351399,0.08127098\H,0,0.9210296
 1,-2.65702437,1.02410027\C,0,5.17727269,8.37187844,-0.37503098\H,0,4.3
 9075083,8.04464641,0.31681793\H,0,5.33852887,9.43714916,-0.15496362\C,
 0,4.64960252,8.26337326,-1.81809338\H,0,4.40611392,7.22115052,-2.05247
 196\H,0,3.69713197,8.81023009,-1.86760859\C,0,5.59648404,8.83618555,-2
 .88472136\H,0,6.50733965,8.22366853,-2.95039066\H,0,5.92488944,9.83427
 325,-2.55949152\C,0,4.98973344,8.96062071,-4.29749123\H,0,4.0670964,9.
 55532798,-4.21069548\C,0,5.94745704,9.71643311,-5.23208153\H,0,6.88928
 346,9.16621402,-5.35470415\H,0,5.5095007,9.84940988,-6.22789316\H,0,6.
 19130453,10.7093533,-4.83715471\C,0,4.61525524,7.59679643,-4.90017998\
 H,0,5.50030425,6.95217014,-4.98188016\H,0,4.19814411,7.71491368,-5.906
 7277\H,0,3.87121263,7.06863623,-4.2955236\\Version=EM64L-G09RevD.01\HF
 =-1273.6770444\RMSD=5.797e-07\Dipole=-0.0367761,1.0918984,0.0659374\Qu
 adrupole=-0.399983,-0.2459737,0.6459567,7.3376237,-7.5684097,-3.550234
 7\PG=C01 [X(C27H46O3)]\\@


 WE'RE IN THE POSITION OF A VISITOR FROM ANOTHER
 DIMENSION WHO COMES TO EARTH AND SEES A CHESS MATCH.
 ASSUMING HE KNOWS IT'S A GAME, HE'S GOT TWO PROBLEMS:
 FIRST, FIGURE OUT THE RULES, AND SECOND, FIGURE OUT HOW TO WIN.
 NINETY PERCENT OF SCIENCE (INCLUDING VIRTUALLY ALL OF CHEMISRY)
 IS IN THAT SECOND CATEGORY.  THEY'RE TRYING TO APPLY
 THE LAWS THAT ARE ALREADY KNOWN.

                     -- SHELDON GLASHOW, 1979
 Job cpu time:       0 days  0 hours 12 minutes 32.7 seconds.
 File lengths (MBytes):  RWF=    159 Int=      0 D2E=      0 Chk=     11 Scr=      1
 Normal termination of Gaussian 09 at Thu Apr 27 15:51:19 2017.
