 Entering Gaussian System, Link 0=/home/michal/g09/g09
 Input=JOB2-gau_m1-5-2.com
 Output=JOB2-gau_m1-5-2.log
 Initial command:
 /home/michal/g09/l1.exe "/home/michal/gauss_scratch/Gau-29002.inp" -scrdir="/home/michal/gauss_scratch/"
 Entering Link 1 = /home/michal/g09/l1.exe PID=     29003.
  
 Copyright (c) 1988,1990,1992,1993,1995,1998,2003,2009,2013,
            Gaussian, Inc.  All Rights Reserved.
  
 This is part of the Gaussian(R) 09 program.  It is based on
 the Gaussian(R) 03 system (copyright 2003, Gaussian, Inc.),
 the Gaussian(R) 98 system (copyright 1998, Gaussian, Inc.),
 the Gaussian(R) 94 system (copyright 1995, Gaussian, Inc.),
 the Gaussian 92(TM) system (copyright 1992, Gaussian, Inc.),
 the Gaussian 90(TM) system (copyright 1990, Gaussian, Inc.),
 the Gaussian 88(TM) system (copyright 1988, Gaussian, Inc.),
 the Gaussian 86(TM) system (copyright 1986, Carnegie Mellon
 University), and the Gaussian 82(TM) system (copyright 1983,
 Carnegie Mellon University). Gaussian is a federally registered
 trademark of Gaussian, Inc.
  
 This software contains proprietary and confidential information,
 including trade secrets, belonging to Gaussian, Inc.
  
 This software is provided under written license and may be
 used, copied, transmitted, or stored only in accord with that
 written license.
  
 The following legend is applicable only to US Government
 contracts under FAR:
  
                    RESTRICTED RIGHTS LEGEND
  
 Use, reproduction and disclosure by the US Government is
 subject to restrictions as set forth in subparagraphs (a)
 and (c) of the Commercial Computer Software - Restricted
 Rights clause in FAR 52.227-19.
  
 Gaussian, Inc.
 340 Quinnipiac St., Bldg. 40, Wallingford CT 06492
  
  
 ---------------------------------------------------------------
 Warning -- This program may not be used in any manner that
 competes with the business of Gaussian, Inc. or will provide
 assistance to any competitor of Gaussian, Inc.  The licensee
 of this program is prohibited from giving any competitor of
 Gaussian, Inc. access to this program.  By using this program,
 the user acknowledges that Gaussian, Inc. is engaged in the
 business of creating and licensing software in the field of
 computational chemistry and represents and warrants to the
 licensee that it is not a competitor of Gaussian, Inc. and that
 it will not use this program in any manner prohibited above.
 ---------------------------------------------------------------
  

 Cite this work as:
 Gaussian 09, Revision D.01,
 M. J. Frisch, G. W. Trucks, H. B. Schlegel, G. E. Scuseria, 
 M. A. Robb, J. R. Cheeseman, G. Scalmani, V. Barone, B. Mennucci, 
 G. A. Petersson, H. Nakatsuji, M. Caricato, X. Li, H. P. Hratchian, 
 A. F. Izmaylov, J. Bloino, G. Zheng, J. L. Sonnenberg, M. Hada, 
 M. Ehara, K. Toyota, R. Fukuda, J. Hasegawa, M. Ishida, T. Nakajima, 
 Y. Honda, O. Kitao, H. Nakai, T. Vreven, J. A. Montgomery, Jr., 
 J. E. Peralta, F. Ogliaro, M. Bearpark, J. J. Heyd, E. Brothers, 
 K. N. Kudin, V. N. Staroverov, T. Keith, R. Kobayashi, J. Normand, 
 K. Raghavachari, A. Rendell, J. C. Burant, S. S. Iyengar, J. Tomasi, 
 M. Cossi, N. Rega, J. M. Millam, M. Klene, J. E. Knox, J. B. Cross, 
 V. Bakken, C. Adamo, J. Jaramillo, R. Gomperts, R. E. Stratmann, 
 O. Yazyev, A. J. Austin, R. Cammi, C. Pomelli, J. W. Ochterski, 
 R. L. Martin, K. Morokuma, V. G. Zakrzewski, G. A. Voth, 
 P. Salvador, J. J. Dannenberg, S. Dapprich, A. D. Daniels, 
 O. Farkas, J. B. Foresman, J. V. Ortiz, J. Cioslowski, 
 and D. J. Fox, Gaussian, Inc., Wallingford CT, 2013.
 
 ******************************************
 Gaussian 09:  EM64L-G09RevD.01 24-Apr-2013
                27-Apr-2017 
 ******************************************
 %Mem=256MB
 %NProc=12
 Will use up to   12 processors via shared memory.
 ----------------------------------------------------------------------
 #P HF/6-31G* SCF(Conver=6) NoSymm Test Pop=mk IOp(6/33=2) GFInput GFPr
 int
 ----------------------------------------------------------------------
 1/38=1/1;
 2/12=2,15=1,17=6,18=5,40=1/2;
 3/5=1,6=6,7=1,11=9,16=1,24=110,25=1,30=1/1,2,3;
 4//1;
 5/5=2,6=6,38=5/2;
 6/7=2,8=2,9=2,10=2,15=8,20=1,28=1,33=2/1,2;
 99/5=1,9=1/99;
 Leave Link    1 at Thu Apr 27 15:12:04 2017, MaxMem=    33554432 cpu:         0.6
 (Enter /home/michal/g09/l101.exe)
 ----------------------------------------------
 MEP - Input generated by R.E.D.-III.x MOLECULE
 ----------------------------------------------
 Symbolic Z-matrix:
 Charge =  0 Multiplicity = 1
 C                     7.5175    2.21514   0.06869 
 H                     7.3556    2.18417   1.15312 
 C                     6.82215   1.00738  -0.57558 
 H                     7.20523   0.08099  -0.13604 
 H                     7.10345   0.99211  -1.64115 
 C                     5.31128   1.06234  -0.45374 
 C                     4.61626   2.36057  -0.87867 
 C                     5.40988   3.5648   -0.2822 
 H                     5.2117    3.60662   0.79786 
 H                     5.0243    4.49868  -0.70419 
 C                     6.93126   3.51094  -0.48957 
 H                     7.17686   3.58334  -1.55957 
 H                     7.40583   4.36893   0. 
 C                     4.63254   0.        0. 
 H                     5.17674  -0.89066   0.31602 
 C                     3.13946  -0.09981   0.10919 
 H                     2.85601  -0.19299   1.17026 
 C                     2.37492   1.06855  -0.53156 
 H                     2.31697   0.85618  -1.60465 
 C                     3.15616   2.39285  -0.30556 
 H                     3.27165   2.49371   0.78648 
 C                     2.33973   3.61668  -0.77929 
 H                     2.2903    3.62744  -1.87354 
 H                     2.85745   4.53808  -0.49097 
 C                     0.9051    3.67103  -0.21935 
 H                     0.94397   3.81123   0.87071 
 H                     0.40802   4.55608  -0.62822 
 C                     0.11874   2.38002  -0.52293 
 C                     0.95714   1.20138   0.05258 
 H                     1.09597   1.44467   1.12096 
 C                     0.        0.        0. 
 H                     0.27465  -0.78599   0.70807 
 H                     0.01656  -0.46399  -0.99145 
 C                    -1.38657   0.62364   0.31323 
 H                    -2.13419   0.30047  -0.42125 
 H                    -1.75479   0.29677   1.29044 
 C                    -1.21894   2.18076   0.27224 
 H                    -1.0167    2.52822   1.2982 
 C                    -0.13276   2.23514  -2.04167 
 H                     0.79595   2.15775  -2.61262 
 H                    -0.72682   1.34667  -2.2743 
 H                    -0.67803   3.1027   -2.42763 
 C                    -2.5069    2.90707  -0.19694 
 H                    -2.76497   2.51994  -1.19454 
 C                    -2.34055   4.43323  -0.30734 
 H                    -1.98798   4.8582    0.64096 
 H                    -3.28946   4.91858  -0.55433 
 H                    -1.62788   4.71651  -1.08506 
 C                     4.63029   2.4412   -2.42845 
 H                     4.27676   3.41577  -2.77893 
 H                     5.6389    2.30247  -2.82735 
 H                     3.99882   1.66475  -2.86975 
 O                     2.68617  -1.39293  -0.36595 
 O                     2.93514  -1.48952  -1.79944 
 H                     3.73022  -2.0472   -1.81219 
 O                     8.93868   2.14724  -0.07456 
 H                     9.15848   2.20114  -1.01529 
 C                    -3.68779   2.56343   0.74548 
 H                    -3.70036   1.48412   0.93383 
 H                    -3.50906   3.0398    1.72192 
 C                    -5.08061   2.96386   0.23247 
 H                    -5.13169   4.04815   0.08447 
 H                    -5.24288   2.50891  -0.75622 
 C                    -6.20707   2.5221    1.17908 
 H                    -6.07035   3.00624   2.15839 
 H                    -6.10899   1.44197   1.35929 
 C                    -7.63992   2.8034    0.68229 
 H                    -7.74156   2.34585  -0.31409 
 C                    -8.67116   2.13965   1.60882 
 H                    -8.61223   2.55803   2.62189 
 H                    -9.69294   2.29632   1.24458 
 H                    -8.50362   1.05918   1.68499 
 C                    -7.93331   4.3061    0.54264 
 H                    -7.81801   4.81552   1.50836 
 H                    -8.96096   4.4739    0.20055 
 H                    -7.26458   4.79313  -0.17404 
 
 NAtoms=     76 NQM=       76 NQMF=       0 NMMI=      0 NMMIF=      0
                NMic=       0 NMicF=      0.
                    Isotopes and Nuclear Properties:
 (Nuclear quadrupole moments (NQMom) in fm**2, nuclear magnetic moments (NMagM)
  in nuclear magnetons)

  Atom         1           2           3           4           5           6           7           8           9          10
 IAtWgt=          12           1          12           1           1          12          12          12           1           1
 AtmWgt=  12.0000000   1.0078250  12.0000000   1.0078250   1.0078250  12.0000000  12.0000000  12.0000000   1.0078250   1.0078250
 NucSpn=           0           1           0           1           1           0           0           0           1           1
 AtZEff=   0.0000000   0.0000000   0.0000000   0.0000000   0.0000000   0.0000000   0.0000000   0.0000000   0.0000000   0.0000000
 NQMom=    0.0000000   0.0000000   0.0000000   0.0000000   0.0000000   0.0000000   0.0000000   0.0000000   0.0000000   0.0000000
 NMagM=    0.0000000   2.7928460   0.0000000   2.7928460   2.7928460   0.0000000   0.0000000   0.0000000   2.7928460   2.7928460
 AtZNuc=   6.0000000   1.0000000   6.0000000   1.0000000   1.0000000   6.0000000   6.0000000   6.0000000   1.0000000   1.0000000

  Atom        11          12          13          14          15          16          17          18          19          20
 IAtWgt=          12           1           1          12           1          12           1          12           1          12
 AtmWgt=  12.0000000   1.0078250   1.0078250  12.0000000   1.0078250  12.0000000   1.0078250  12.0000000   1.0078250  12.0000000
 NucSpn=           0           1           1           0           1           0           1           0           1           0
 AtZEff=   0.0000000   0.0000000   0.0000000   0.0000000   0.0000000   0.0000000   0.0000000   0.0000000   0.0000000   0.0000000
 NQMom=    0.0000000   0.0000000   0.0000000   0.0000000   0.0000000   0.0000000   0.0000000   0.0000000   0.0000000   0.0000000
 NMagM=    0.0000000   2.7928460   2.7928460   0.0000000   2.7928460   0.0000000   2.7928460   0.0000000   2.7928460   0.0000000
 AtZNuc=   6.0000000   1.0000000   1.0000000   6.0000000   1.0000000   6.0000000   1.0000000   6.0000000   1.0000000   6.0000000

  Atom        21          22          23          24          25          26          27          28          29          30
 IAtWgt=           1          12           1           1          12           1           1          12          12           1
 AtmWgt=   1.0078250  12.0000000   1.0078250   1.0078250  12.0000000   1.0078250   1.0078250  12.0000000  12.0000000   1.0078250
 NucSpn=           1           0           1           1           0           1           1           0           0           1
 AtZEff=   0.0000000   0.0000000   0.0000000   0.0000000   0.0000000   0.0000000   0.0000000   0.0000000   0.0000000   0.0000000
 NQMom=    0.0000000   0.0000000   0.0000000   0.0000000   0.0000000   0.0000000   0.0000000   0.0000000   0.0000000   0.0000000
 NMagM=    2.7928460   0.0000000   2.7928460   2.7928460   0.0000000   2.7928460   2.7928460   0.0000000   0.0000000   2.7928460
 AtZNuc=   1.0000000   6.0000000   1.0000000   1.0000000   6.0000000   1.0000000   1.0000000   6.0000000   6.0000000   1.0000000

  Atom        31          32          33          34          35          36          37          38          39          40
 IAtWgt=          12           1           1          12           1           1          12           1          12           1
 AtmWgt=  12.0000000   1.0078250   1.0078250  12.0000000   1.0078250   1.0078250  12.0000000   1.0078250  12.0000000   1.0078250
 NucSpn=           0           1           1           0           1           1           0           1           0           1
 AtZEff=   0.0000000   0.0000000   0.0000000   0.0000000   0.0000000   0.0000000   0.0000000   0.0000000   0.0000000   0.0000000
 NQMom=    0.0000000   0.0000000   0.0000000   0.0000000   0.0000000   0.0000000   0.0000000   0.0000000   0.0000000   0.0000000
 NMagM=    0.0000000   2.7928460   2.7928460   0.0000000   2.7928460   2.7928460   0.0000000   2.7928460   0.0000000   2.7928460
 AtZNuc=   6.0000000   1.0000000   1.0000000   6.0000000   1.0000000   1.0000000   6.0000000   1.0000000   6.0000000   1.0000000

  Atom        41          42          43          44          45          46          47          48          49          50
 IAtWgt=           1           1          12           1          12           1           1           1          12           1
 AtmWgt=   1.0078250   1.0078250  12.0000000   1.0078250  12.0000000   1.0078250   1.0078250   1.0078250  12.0000000   1.0078250
 NucSpn=           1           1           0           1           0           1           1           1           0           1
 AtZEff=   0.0000000   0.0000000   0.0000000   0.0000000   0.0000000   0.0000000   0.0000000   0.0000000   0.0000000   0.0000000
 NQMom=    0.0000000   0.0000000   0.0000000   0.0000000   0.0000000   0.0000000   0.0000000   0.0000000   0.0000000   0.0000000
 NMagM=    2.7928460   2.7928460   0.0000000   2.7928460   0.0000000   2.7928460   2.7928460   2.7928460   0.0000000   2.7928460
 AtZNuc=   1.0000000   1.0000000   6.0000000   1.0000000   6.0000000   1.0000000   1.0000000   1.0000000   6.0000000   1.0000000

  Atom        51          52          53          54          55          56          57          58          59          60
 IAtWgt=           1           1          16          16           1          16           1          12           1           1
 AtmWgt=   1.0078250   1.0078250  15.9949146  15.9949146   1.0078250  15.9949146   1.0078250  12.0000000   1.0078250   1.0078250
 NucSpn=           1           1           0           0           1           0           1           0           1           1
 AtZEff=   0.0000000   0.0000000   0.0000000   0.0000000   0.0000000   0.0000000   0.0000000   0.0000000   0.0000000   0.0000000
 NQMom=    0.0000000   0.0000000   0.0000000   0.0000000   0.0000000   0.0000000   0.0000000   0.0000000   0.0000000   0.0000000
 NMagM=    2.7928460   2.7928460   0.0000000   0.0000000   2.7928460   0.0000000   2.7928460   0.0000000   2.7928460   2.7928460
 AtZNuc=   1.0000000   1.0000000   8.0000000   8.0000000   1.0000000   8.0000000   1.0000000   6.0000000   1.0000000   1.0000000

  Atom        61          62          63          64          65          66          67          68          69          70
 IAtWgt=          12           1           1          12           1           1          12           1          12           1
 AtmWgt=  12.0000000   1.0078250   1.0078250  12.0000000   1.0078250   1.0078250  12.0000000   1.0078250  12.0000000   1.0078250
 NucSpn=           0           1           1           0           1           1           0           1           0           1
 AtZEff=   0.0000000   0.0000000   0.0000000   0.0000000   0.0000000   0.0000000   0.0000000   0.0000000   0.0000000   0.0000000
 NQMom=    0.0000000   0.0000000   0.0000000   0.0000000   0.0000000   0.0000000   0.0000000   0.0000000   0.0000000   0.0000000
 NMagM=    0.0000000   2.7928460   2.7928460   0.0000000   2.7928460   2.7928460   0.0000000   2.7928460   0.0000000   2.7928460
 AtZNuc=   6.0000000   1.0000000   1.0000000   6.0000000   1.0000000   1.0000000   6.0000000   1.0000000   6.0000000   1.0000000

  Atom        71          72          73          74          75          76
 IAtWgt=           1           1          12           1           1           1
 AtmWgt=   1.0078250   1.0078250  12.0000000   1.0078250   1.0078250   1.0078250
 NucSpn=           1           1           0           1           1           1
 AtZEff=   0.0000000   0.0000000   0.0000000   0.0000000   0.0000000   0.0000000
 NQMom=    0.0000000   0.0000000   0.0000000   0.0000000   0.0000000   0.0000000
 NMagM=    2.7928460   2.7928460   0.0000000   2.7928460   2.7928460   2.7928460
 AtZNuc=   1.0000000   1.0000000   6.0000000   1.0000000   1.0000000   1.0000000
 Leave Link  101 at Thu Apr 27 15:12:05 2017, MaxMem=    33554432 cpu:         1.0
 (Enter /home/michal/g09/l202.exe)
 Symmetry turned off by external request.
 Stoichiometry    C27H46O3
 Framework group  C1[X(C27H46O3)]
 Deg. of freedom   222
 Full point group                 C1      NOp   1
                          Input orientation:                          
 ---------------------------------------------------------------------
 Center     Atomic      Atomic             Coordinates (Angstroms)
 Number     Number       Type             X           Y           Z
 ---------------------------------------------------------------------
      1          6           0        7.517498    2.215136    0.068695
      2          1           0        7.355603    2.184173    1.153122
      3          6           0        6.822151    1.007377   -0.575580
      4          1           0        7.205228    0.080993   -0.136043
      5          1           0        7.103453    0.992106   -1.641151
      6          6           0        5.311278    1.062336   -0.453745
      7          6           0        4.616261    2.360572   -0.878668
      8          6           0        5.409876    3.564803   -0.282204
      9          1           0        5.211700    3.606620    0.797865
     10          1           0        5.024305    4.498681   -0.704193
     11          6           0        6.931257    3.510936   -0.489571
     12          1           0        7.176860    3.583344   -1.559569
     13          1           0        7.405825    4.368927    0.000000
     14          6           0        4.632544    0.000000    0.000000
     15          1           0        5.176744   -0.890658    0.316025
     16          6           0        3.139458   -0.099813    0.109188
     17          1           0        2.856015   -0.192986    1.170256
     18          6           0        2.374920    1.068549   -0.531559
     19          1           0        2.316974    0.856183   -1.604646
     20          6           0        3.156157    2.392852   -0.305556
     21          1           0        3.271651    2.493709    0.786484
     22          6           0        2.339727    3.616675   -0.779286
     23          1           0        2.290298    3.627443   -1.873545
     24          1           0        2.857447    4.538081   -0.490971
     25          6           0        0.905099    3.671028   -0.219351
     26          1           0        0.943971    3.811226    0.870707
     27          1           0        0.408019    4.556079   -0.628222
     28          6           0        0.118745    2.380018   -0.522933
     29          6           0        0.957135    1.201376    0.052582
     30          1           0        1.095975    1.444673    1.120961
     31          6           0        0.000000    0.000000    0.000000
     32          1           0        0.274655   -0.785986    0.708075
     33          1           0        0.016564   -0.463992   -0.991453
     34          6           0       -1.386571    0.623638    0.313228
     35          1           0       -2.134187    0.300472   -0.421252
     36          1           0       -1.754790    0.296775    1.290440
     37          6           0       -1.218939    2.180756    0.272243
     38          1           0       -1.016703    2.528222    1.298204
     39          6           0       -0.132757    2.235139   -2.041669
     40          1           0        0.795946    2.157750   -2.612618
     41          1           0       -0.726824    1.346669   -2.274298
     42          1           0       -0.678031    3.102705   -2.427625
     43          6           0       -2.506899    2.907068   -0.196935
     44          1           0       -2.764972    2.519938   -1.194536
     45          6           0       -2.340552    4.433234   -0.307344
     46          1           0       -1.987975    4.858196    0.640958
     47          1           0       -3.289457    4.918575   -0.554335
     48          1           0       -1.627877    4.716512   -1.085057
     49          6           0        4.630294    2.441199   -2.428448
     50          1           0        4.276759    3.415770   -2.778933
     51          1           0        5.638905    2.302466   -2.827354
     52          1           0        3.998819    1.664751   -2.869750
     53          8           0        2.686175   -1.392928   -0.365948
     54          8           0        2.935138   -1.489522   -1.799445
     55          1           0        3.730220   -2.047196   -1.812186
     56          8           0        8.938681    2.147236   -0.074559
     57          1           0        9.158483    2.201136   -1.015292
     58          6           0       -3.687789    2.563427    0.745480
     59          1           0       -3.700358    1.484119    0.933827
     60          1           0       -3.509057    3.039802    1.721920
     61          6           0       -5.080607    2.963863    0.232473
     62          1           0       -5.131692    4.048150    0.084469
     63          1           0       -5.242882    2.508912   -0.756222
     64          6           0       -6.207069    2.522095    1.179080
     65          1           0       -6.070350    3.006237    2.158392
     66          1           0       -6.108992    1.441970    1.359294
     67          6           0       -7.639916    2.803399    0.682288
     68          1           0       -7.741560    2.345852   -0.314086
     69          6           0       -8.671164    2.139653    1.608816
     70          1           0       -8.612232    2.558025    2.621892
     71          1           0       -9.692940    2.296322    1.244580
     72          1           0       -8.503619    1.059181    1.684986
     73          6           0       -7.933313    4.306103    0.542638
     74          1           0       -7.818013    4.815521    1.508363
     75          1           0       -8.960960    4.473901    0.200545
     76          1           0       -7.264584    4.793131   -0.174042
 ---------------------------------------------------------------------
 Rotational constants (GHZ):      0.4156373      0.0503978      0.0471128
 Leave Link  202 at Thu Apr 27 15:12:05 2017, MaxMem=    33554432 cpu:         0.6
 (Enter /home/michal/g09/l301.exe)
 Standard basis: 6-31G(d) (6D, 7F)
 Ernie: Thresh=  0.10000D-02 Tol=  0.10000D-05 Strict=F.
 AO basis set in the form of general basis input (Overlap normalization):
      1 0
 S   6 1.00       0.000000000000
      0.3047524880D+04  0.1834737132D-02
      0.4573695180D+03  0.1403732281D-01
      0.1039486850D+03  0.6884262226D-01
      0.2921015530D+02  0.2321844432D+00
      0.9286662960D+01  0.4679413484D+00
      0.3163926960D+01  0.3623119853D+00
 SP   3 1.00       0.000000000000
      0.7868272350D+01 -0.1193324198D+00  0.6899906659D-01
      0.1881288540D+01 -0.1608541517D+00  0.3164239610D+00
      0.5442492580D+00  0.1143456438D+01  0.7443082909D+00
 SP   1 1.00       0.000000000000
      0.1687144782D+00  0.1000000000D+01  0.1000000000D+01
 D   1 1.00       0.000000000000
      0.8000000000D+00  0.1000000000D+01
 ****
      2 0
 S   3 1.00       0.000000000000
      0.1873113696D+02  0.3349460434D-01
      0.2825394365D+01  0.2347269535D+00
      0.6401216923D+00  0.8137573261D+00
 S   1 1.00       0.000000000000
      0.1612777588D+00  0.1000000000D+01
 ****
      3 0
 S   6 1.00       0.000000000000
      0.3047524880D+04  0.1834737132D-02
      0.4573695180D+03  0.1403732281D-01
      0.1039486850D+03  0.6884262226D-01
      0.2921015530D+02  0.2321844432D+00
      0.9286662960D+01  0.4679413484D+00
      0.3163926960D+01  0.3623119853D+00
 SP   3 1.00       0.000000000000
      0.7868272350D+01 -0.1193324198D+00  0.6899906659D-01
      0.1881288540D+01 -0.1608541517D+00  0.3164239610D+00
      0.5442492580D+00  0.1143456438D+01  0.7443082909D+00
 SP   1 1.00       0.000000000000
      0.1687144782D+00  0.1000000000D+01  0.1000000000D+01
 D   1 1.00       0.000000000000
      0.8000000000D+00  0.1000000000D+01
 ****
      4 0
 S   3 1.00       0.000000000000
      0.1873113696D+02  0.3349460434D-01
      0.2825394365D+01  0.2347269535D+00
      0.6401216923D+00  0.8137573261D+00
 S   1 1.00       0.000000000000
      0.1612777588D+00  0.1000000000D+01
 ****
      5 0
 S   3 1.00       0.000000000000
      0.1873113696D+02  0.3349460434D-01
      0.2825394365D+01  0.2347269535D+00
      0.6401216923D+00  0.8137573261D+00
 S   1 1.00       0.000000000000
      0.1612777588D+00  0.1000000000D+01
 ****
      6 0
 S   6 1.00       0.000000000000
      0.3047524880D+04  0.1834737132D-02
      0.4573695180D+03  0.1403732281D-01
      0.1039486850D+03  0.6884262226D-01
      0.2921015530D+02  0.2321844432D+00
      0.9286662960D+01  0.4679413484D+00
      0.3163926960D+01  0.3623119853D+00
 SP   3 1.00       0.000000000000
      0.7868272350D+01 -0.1193324198D+00  0.6899906659D-01
      0.1881288540D+01 -0.1608541517D+00  0.3164239610D+00
      0.5442492580D+00  0.1143456438D+01  0.7443082909D+00
 SP   1 1.00       0.000000000000
      0.1687144782D+00  0.1000000000D+01  0.1000000000D+01
 D   1 1.00       0.000000000000
      0.8000000000D+00  0.1000000000D+01
 ****
      7 0
 S   6 1.00       0.000000000000
      0.3047524880D+04  0.1834737132D-02
      0.4573695180D+03  0.1403732281D-01
      0.1039486850D+03  0.6884262226D-01
      0.2921015530D+02  0.2321844432D+00
      0.9286662960D+01  0.4679413484D+00
      0.3163926960D+01  0.3623119853D+00
 SP   3 1.00       0.000000000000
      0.7868272350D+01 -0.1193324198D+00  0.6899906659D-01
      0.1881288540D+01 -0.1608541517D+00  0.3164239610D+00
      0.5442492580D+00  0.1143456438D+01  0.7443082909D+00
 SP   1 1.00       0.000000000000
      0.1687144782D+00  0.1000000000D+01  0.1000000000D+01
 D   1 1.00       0.000000000000
      0.8000000000D+00  0.1000000000D+01
 ****
      8 0
 S   6 1.00       0.000000000000
      0.3047524880D+04  0.1834737132D-02
      0.4573695180D+03  0.1403732281D-01
      0.1039486850D+03  0.6884262226D-01
      0.2921015530D+02  0.2321844432D+00
      0.9286662960D+01  0.4679413484D+00
      0.3163926960D+01  0.3623119853D+00
 SP   3 1.00       0.000000000000
      0.7868272350D+01 -0.1193324198D+00  0.6899906659D-01
      0.1881288540D+01 -0.1608541517D+00  0.3164239610D+00
      0.5442492580D+00  0.1143456438D+01  0.7443082909D+00
 SP   1 1.00       0.000000000000
      0.1687144782D+00  0.1000000000D+01  0.1000000000D+01
 D   1 1.00       0.000000000000
      0.8000000000D+00  0.1000000000D+01
 ****
      9 0
 S   3 1.00       0.000000000000
      0.1873113696D+02  0.3349460434D-01
      0.2825394365D+01  0.2347269535D+00
      0.6401216923D+00  0.8137573261D+00
 S   1 1.00       0.000000000000
      0.1612777588D+00  0.1000000000D+01
 ****
     10 0
 S   3 1.00       0.000000000000
      0.1873113696D+02  0.3349460434D-01
      0.2825394365D+01  0.2347269535D+00
      0.6401216923D+00  0.8137573261D+00
 S   1 1.00       0.000000000000
      0.1612777588D+00  0.1000000000D+01
 ****
     11 0
 S   6 1.00       0.000000000000
      0.3047524880D+04  0.1834737132D-02
      0.4573695180D+03  0.1403732281D-01
      0.1039486850D+03  0.6884262226D-01
      0.2921015530D+02  0.2321844432D+00
      0.9286662960D+01  0.4679413484D+00
      0.3163926960D+01  0.3623119853D+00
 SP   3 1.00       0.000000000000
      0.7868272350D+01 -0.1193324198D+00  0.6899906659D-01
      0.1881288540D+01 -0.1608541517D+00  0.3164239610D+00
      0.5442492580D+00  0.1143456438D+01  0.7443082909D+00
 SP   1 1.00       0.000000000000
      0.1687144782D+00  0.1000000000D+01  0.1000000000D+01
 D   1 1.00       0.000000000000
      0.8000000000D+00  0.1000000000D+01
 ****
     12 0
 S   3 1.00       0.000000000000
      0.1873113696D+02  0.3349460434D-01
      0.2825394365D+01  0.2347269535D+00
      0.6401216923D+00  0.8137573261D+00
 S   1 1.00       0.000000000000
      0.1612777588D+00  0.1000000000D+01
 ****
     13 0
 S   3 1.00       0.000000000000
      0.1873113696D+02  0.3349460434D-01
      0.2825394365D+01  0.2347269535D+00
      0.6401216923D+00  0.8137573261D+00
 S   1 1.00       0.000000000000
      0.1612777588D+00  0.1000000000D+01
 ****
     14 0
 S   6 1.00       0.000000000000
      0.3047524880D+04  0.1834737132D-02
      0.4573695180D+03  0.1403732281D-01
      0.1039486850D+03  0.6884262226D-01
      0.2921015530D+02  0.2321844432D+00
      0.9286662960D+01  0.4679413484D+00
      0.3163926960D+01  0.3623119853D+00
 SP   3 1.00       0.000000000000
      0.7868272350D+01 -0.1193324198D+00  0.6899906659D-01
      0.1881288540D+01 -0.1608541517D+00  0.3164239610D+00
      0.5442492580D+00  0.1143456438D+01  0.7443082909D+00
 SP   1 1.00       0.000000000000
      0.1687144782D+00  0.1000000000D+01  0.1000000000D+01
 D   1 1.00       0.000000000000
      0.8000000000D+00  0.1000000000D+01
 ****
     15 0
 S   3 1.00       0.000000000000
      0.1873113696D+02  0.3349460434D-01
      0.2825394365D+01  0.2347269535D+00
      0.6401216923D+00  0.8137573261D+00
 S   1 1.00       0.000000000000
      0.1612777588D+00  0.1000000000D+01
 ****
     16 0
 S   6 1.00       0.000000000000
      0.3047524880D+04  0.1834737132D-02
      0.4573695180D+03  0.1403732281D-01
      0.1039486850D+03  0.6884262226D-01
      0.2921015530D+02  0.2321844432D+00
      0.9286662960D+01  0.4679413484D+00
      0.3163926960D+01  0.3623119853D+00
 SP   3 1.00       0.000000000000
      0.7868272350D+01 -0.1193324198D+00  0.6899906659D-01
      0.1881288540D+01 -0.1608541517D+00  0.3164239610D+00
      0.5442492580D+00  0.1143456438D+01  0.7443082909D+00
 SP   1 1.00       0.000000000000
      0.1687144782D+00  0.1000000000D+01  0.1000000000D+01
 D   1 1.00       0.000000000000
      0.8000000000D+00  0.1000000000D+01
 ****
     17 0
 S   3 1.00       0.000000000000
      0.1873113696D+02  0.3349460434D-01
      0.2825394365D+01  0.2347269535D+00
      0.6401216923D+00  0.8137573261D+00
 S   1 1.00       0.000000000000
      0.1612777588D+00  0.1000000000D+01
 ****
     18 0
 S   6 1.00       0.000000000000
      0.3047524880D+04  0.1834737132D-02
      0.4573695180D+03  0.1403732281D-01
      0.1039486850D+03  0.6884262226D-01
      0.2921015530D+02  0.2321844432D+00
      0.9286662960D+01  0.4679413484D+00
      0.3163926960D+01  0.3623119853D+00
 SP   3 1.00       0.000000000000
      0.7868272350D+01 -0.1193324198D+00  0.6899906659D-01
      0.1881288540D+01 -0.1608541517D+00  0.3164239610D+00
      0.5442492580D+00  0.1143456438D+01  0.7443082909D+00
 SP   1 1.00       0.000000000000
      0.1687144782D+00  0.1000000000D+01  0.1000000000D+01
 D   1 1.00       0.000000000000
      0.8000000000D+00  0.1000000000D+01
 ****
     19 0
 S   3 1.00       0.000000000000
      0.1873113696D+02  0.3349460434D-01
      0.2825394365D+01  0.2347269535D+00
      0.6401216923D+00  0.8137573261D+00
 S   1 1.00       0.000000000000
      0.1612777588D+00  0.1000000000D+01
 ****
     20 0
 S   6 1.00       0.000000000000
      0.3047524880D+04  0.1834737132D-02
      0.4573695180D+03  0.1403732281D-01
      0.1039486850D+03  0.6884262226D-01
      0.2921015530D+02  0.2321844432D+00
      0.9286662960D+01  0.4679413484D+00
      0.3163926960D+01  0.3623119853D+00
 SP   3 1.00       0.000000000000
      0.7868272350D+01 -0.1193324198D+00  0.6899906659D-01
      0.1881288540D+01 -0.1608541517D+00  0.3164239610D+00
      0.5442492580D+00  0.1143456438D+01  0.7443082909D+00
 SP   1 1.00       0.000000000000
      0.1687144782D+00  0.1000000000D+01  0.1000000000D+01
 D   1 1.00       0.000000000000
      0.8000000000D+00  0.1000000000D+01
 ****
     21 0
 S   3 1.00       0.000000000000
      0.1873113696D+02  0.3349460434D-01
      0.2825394365D+01  0.2347269535D+00
      0.6401216923D+00  0.8137573261D+00
 S   1 1.00       0.000000000000
      0.1612777588D+00  0.1000000000D+01
 ****
     22 0
 S   6 1.00       0.000000000000
      0.3047524880D+04  0.1834737132D-02
      0.4573695180D+03  0.1403732281D-01
      0.1039486850D+03  0.6884262226D-01
      0.2921015530D+02  0.2321844432D+00
      0.9286662960D+01  0.4679413484D+00
      0.3163926960D+01  0.3623119853D+00
 SP   3 1.00       0.000000000000
      0.7868272350D+01 -0.1193324198D+00  0.6899906659D-01
      0.1881288540D+01 -0.1608541517D+00  0.3164239610D+00
      0.5442492580D+00  0.1143456438D+01  0.7443082909D+00
 SP   1 1.00       0.000000000000
      0.1687144782D+00  0.1000000000D+01  0.1000000000D+01
 D   1 1.00       0.000000000000
      0.8000000000D+00  0.1000000000D+01
 ****
     23 0
 S   3 1.00       0.000000000000
      0.1873113696D+02  0.3349460434D-01
      0.2825394365D+01  0.2347269535D+00
      0.6401216923D+00  0.8137573261D+00
 S   1 1.00       0.000000000000
      0.1612777588D+00  0.1000000000D+01
 ****
     24 0
 S   3 1.00       0.000000000000
      0.1873113696D+02  0.3349460434D-01
      0.2825394365D+01  0.2347269535D+00
      0.6401216923D+00  0.8137573261D+00
 S   1 1.00       0.000000000000
      0.1612777588D+00  0.1000000000D+01
 ****
     25 0
 S   6 1.00       0.000000000000
      0.3047524880D+04  0.1834737132D-02
      0.4573695180D+03  0.1403732281D-01
      0.1039486850D+03  0.6884262226D-01
      0.2921015530D+02  0.2321844432D+00
      0.9286662960D+01  0.4679413484D+00
      0.3163926960D+01  0.3623119853D+00
 SP   3 1.00       0.000000000000
      0.7868272350D+01 -0.1193324198D+00  0.6899906659D-01
      0.1881288540D+01 -0.1608541517D+00  0.3164239610D+00
      0.5442492580D+00  0.1143456438D+01  0.7443082909D+00
 SP   1 1.00       0.000000000000
      0.1687144782D+00  0.1000000000D+01  0.1000000000D+01
 D   1 1.00       0.000000000000
      0.8000000000D+00  0.1000000000D+01
 ****
     26 0
 S   3 1.00       0.000000000000
      0.1873113696D+02  0.3349460434D-01
      0.2825394365D+01  0.2347269535D+00
      0.6401216923D+00  0.8137573261D+00
 S   1 1.00       0.000000000000
      0.1612777588D+00  0.1000000000D+01
 ****
     27 0
 S   3 1.00       0.000000000000
      0.1873113696D+02  0.3349460434D-01
      0.2825394365D+01  0.2347269535D+00
      0.6401216923D+00  0.8137573261D+00
 S   1 1.00       0.000000000000
      0.1612777588D+00  0.1000000000D+01
 ****
     28 0
 S   6 1.00       0.000000000000
      0.3047524880D+04  0.1834737132D-02
      0.4573695180D+03  0.1403732281D-01
      0.1039486850D+03  0.6884262226D-01
      0.2921015530D+02  0.2321844432D+00
      0.9286662960D+01  0.4679413484D+00
      0.3163926960D+01  0.3623119853D+00
 SP   3 1.00       0.000000000000
      0.7868272350D+01 -0.1193324198D+00  0.6899906659D-01
      0.1881288540D+01 -0.1608541517D+00  0.3164239610D+00
      0.5442492580D+00  0.1143456438D+01  0.7443082909D+00
 SP   1 1.00       0.000000000000
      0.1687144782D+00  0.1000000000D+01  0.1000000000D+01
 D   1 1.00       0.000000000000
      0.8000000000D+00  0.1000000000D+01
 ****
     29 0
 S   6 1.00       0.000000000000
      0.3047524880D+04  0.1834737132D-02
      0.4573695180D+03  0.1403732281D-01
      0.1039486850D+03  0.6884262226D-01
      0.2921015530D+02  0.2321844432D+00
      0.9286662960D+01  0.4679413484D+00
      0.3163926960D+01  0.3623119853D+00
 SP   3 1.00       0.000000000000
      0.7868272350D+01 -0.1193324198D+00  0.6899906659D-01
      0.1881288540D+01 -0.1608541517D+00  0.3164239610D+00
      0.5442492580D+00  0.1143456438D+01  0.7443082909D+00
 SP   1 1.00       0.000000000000
      0.1687144782D+00  0.1000000000D+01  0.1000000000D+01
 D   1 1.00       0.000000000000
      0.8000000000D+00  0.1000000000D+01
 ****
     30 0
 S   3 1.00       0.000000000000
      0.1873113696D+02  0.3349460434D-01
      0.2825394365D+01  0.2347269535D+00
      0.6401216923D+00  0.8137573261D+00
 S   1 1.00       0.000000000000
      0.1612777588D+00  0.1000000000D+01
 ****
     31 0
 S   6 1.00       0.000000000000
      0.3047524880D+04  0.1834737132D-02
      0.4573695180D+03  0.1403732281D-01
      0.1039486850D+03  0.6884262226D-01
      0.2921015530D+02  0.2321844432D+00
      0.9286662960D+01  0.4679413484D+00
      0.3163926960D+01  0.3623119853D+00
 SP   3 1.00       0.000000000000
      0.7868272350D+01 -0.1193324198D+00  0.6899906659D-01
      0.1881288540D+01 -0.1608541517D+00  0.3164239610D+00
      0.5442492580D+00  0.1143456438D+01  0.7443082909D+00
 SP   1 1.00       0.000000000000
      0.1687144782D+00  0.1000000000D+01  0.1000000000D+01
 D   1 1.00       0.000000000000
      0.8000000000D+00  0.1000000000D+01
 ****
     32 0
 S   3 1.00       0.000000000000
      0.1873113696D+02  0.3349460434D-01
      0.2825394365D+01  0.2347269535D+00
      0.6401216923D+00  0.8137573261D+00
 S   1 1.00       0.000000000000
      0.1612777588D+00  0.1000000000D+01
 ****
     33 0
 S   3 1.00       0.000000000000
      0.1873113696D+02  0.3349460434D-01
      0.2825394365D+01  0.2347269535D+00
      0.6401216923D+00  0.8137573261D+00
 S   1 1.00       0.000000000000
      0.1612777588D+00  0.1000000000D+01
 ****
     34 0
 S   6 1.00       0.000000000000
      0.3047524880D+04  0.1834737132D-02
      0.4573695180D+03  0.1403732281D-01
      0.1039486850D+03  0.6884262226D-01
      0.2921015530D+02  0.2321844432D+00
      0.9286662960D+01  0.4679413484D+00
      0.3163926960D+01  0.3623119853D+00
 SP   3 1.00       0.000000000000
      0.7868272350D+01 -0.1193324198D+00  0.6899906659D-01
      0.1881288540D+01 -0.1608541517D+00  0.3164239610D+00
      0.5442492580D+00  0.1143456438D+01  0.7443082909D+00
 SP   1 1.00       0.000000000000
      0.1687144782D+00  0.1000000000D+01  0.1000000000D+01
 D   1 1.00       0.000000000000
      0.8000000000D+00  0.1000000000D+01
 ****
     35 0
 S   3 1.00       0.000000000000
      0.1873113696D+02  0.3349460434D-01
      0.2825394365D+01  0.2347269535D+00
      0.6401216923D+00  0.8137573261D+00
 S   1 1.00       0.000000000000
      0.1612777588D+00  0.1000000000D+01
 ****
     36 0
 S   3 1.00       0.000000000000
      0.1873113696D+02  0.3349460434D-01
      0.2825394365D+01  0.2347269535D+00
      0.6401216923D+00  0.8137573261D+00
 S   1 1.00       0.000000000000
      0.1612777588D+00  0.1000000000D+01
 ****
     37 0
 S   6 1.00       0.000000000000
      0.3047524880D+04  0.1834737132D-02
      0.4573695180D+03  0.1403732281D-01
      0.1039486850D+03  0.6884262226D-01
      0.2921015530D+02  0.2321844432D+00
      0.9286662960D+01  0.4679413484D+00
      0.3163926960D+01  0.3623119853D+00
 SP   3 1.00       0.000000000000
      0.7868272350D+01 -0.1193324198D+00  0.6899906659D-01
      0.1881288540D+01 -0.1608541517D+00  0.3164239610D+00
      0.5442492580D+00  0.1143456438D+01  0.7443082909D+00
 SP   1 1.00       0.000000000000
      0.1687144782D+00  0.1000000000D+01  0.1000000000D+01
 D   1 1.00       0.000000000000
      0.8000000000D+00  0.1000000000D+01
 ****
     38 0
 S   3 1.00       0.000000000000
      0.1873113696D+02  0.3349460434D-01
      0.2825394365D+01  0.2347269535D+00
      0.6401216923D+00  0.8137573261D+00
 S   1 1.00       0.000000000000
      0.1612777588D+00  0.1000000000D+01
 ****
     39 0
 S   6 1.00       0.000000000000
      0.3047524880D+04  0.1834737132D-02
      0.4573695180D+03  0.1403732281D-01
      0.1039486850D+03  0.6884262226D-01
      0.2921015530D+02  0.2321844432D+00
      0.9286662960D+01  0.4679413484D+00
      0.3163926960D+01  0.3623119853D+00
 SP   3 1.00       0.000000000000
      0.7868272350D+01 -0.1193324198D+00  0.6899906659D-01
      0.1881288540D+01 -0.1608541517D+00  0.3164239610D+00
      0.5442492580D+00  0.1143456438D+01  0.7443082909D+00
 SP   1 1.00       0.000000000000
      0.1687144782D+00  0.1000000000D+01  0.1000000000D+01
 D   1 1.00       0.000000000000
      0.8000000000D+00  0.1000000000D+01
 ****
     40 0
 S   3 1.00       0.000000000000
      0.1873113696D+02  0.3349460434D-01
      0.2825394365D+01  0.2347269535D+00
      0.6401216923D+00  0.8137573261D+00
 S   1 1.00       0.000000000000
      0.1612777588D+00  0.1000000000D+01
 ****
     41 0
 S   3 1.00       0.000000000000
      0.1873113696D+02  0.3349460434D-01
      0.2825394365D+01  0.2347269535D+00
      0.6401216923D+00  0.8137573261D+00
 S   1 1.00       0.000000000000
      0.1612777588D+00  0.1000000000D+01
 ****
     42 0
 S   3 1.00       0.000000000000
      0.1873113696D+02  0.3349460434D-01
      0.2825394365D+01  0.2347269535D+00
      0.6401216923D+00  0.8137573261D+00
 S   1 1.00       0.000000000000
      0.1612777588D+00  0.1000000000D+01
 ****
     43 0
 S   6 1.00       0.000000000000
      0.3047524880D+04  0.1834737132D-02
      0.4573695180D+03  0.1403732281D-01
      0.1039486850D+03  0.6884262226D-01
      0.2921015530D+02  0.2321844432D+00
      0.9286662960D+01  0.4679413484D+00
      0.3163926960D+01  0.3623119853D+00
 SP   3 1.00       0.000000000000
      0.7868272350D+01 -0.1193324198D+00  0.6899906659D-01
      0.1881288540D+01 -0.1608541517D+00  0.3164239610D+00
      0.5442492580D+00  0.1143456438D+01  0.7443082909D+00
 SP   1 1.00       0.000000000000
      0.1687144782D+00  0.1000000000D+01  0.1000000000D+01
 D   1 1.00       0.000000000000
      0.8000000000D+00  0.1000000000D+01
 ****
     44 0
 S   3 1.00       0.000000000000
      0.1873113696D+02  0.3349460434D-01
      0.2825394365D+01  0.2347269535D+00
      0.6401216923D+00  0.8137573261D+00
 S   1 1.00       0.000000000000
      0.1612777588D+00  0.1000000000D+01
 ****
     45 0
 S   6 1.00       0.000000000000
      0.3047524880D+04  0.1834737132D-02
      0.4573695180D+03  0.1403732281D-01
      0.1039486850D+03  0.6884262226D-01
      0.2921015530D+02  0.2321844432D+00
      0.9286662960D+01  0.4679413484D+00
      0.3163926960D+01  0.3623119853D+00
 SP   3 1.00       0.000000000000
      0.7868272350D+01 -0.1193324198D+00  0.6899906659D-01
      0.1881288540D+01 -0.1608541517D+00  0.3164239610D+00
      0.5442492580D+00  0.1143456438D+01  0.7443082909D+00
 SP   1 1.00       0.000000000000
      0.1687144782D+00  0.1000000000D+01  0.1000000000D+01
 D   1 1.00       0.000000000000
      0.8000000000D+00  0.1000000000D+01
 ****
     46 0
 S   3 1.00       0.000000000000
      0.1873113696D+02  0.3349460434D-01
      0.2825394365D+01  0.2347269535D+00
      0.6401216923D+00  0.8137573261D+00
 S   1 1.00       0.000000000000
      0.1612777588D+00  0.1000000000D+01
 ****
     47 0
 S   3 1.00       0.000000000000
      0.1873113696D+02  0.3349460434D-01
      0.2825394365D+01  0.2347269535D+00
      0.6401216923D+00  0.8137573261D+00
 S   1 1.00       0.000000000000
      0.1612777588D+00  0.1000000000D+01
 ****
     48 0
 S   3 1.00       0.000000000000
      0.1873113696D+02  0.3349460434D-01
      0.2825394365D+01  0.2347269535D+00
      0.6401216923D+00  0.8137573261D+00
 S   1 1.00       0.000000000000
      0.1612777588D+00  0.1000000000D+01
 ****
     49 0
 S   6 1.00       0.000000000000
      0.3047524880D+04  0.1834737132D-02
      0.4573695180D+03  0.1403732281D-01
      0.1039486850D+03  0.6884262226D-01
      0.2921015530D+02  0.2321844432D+00
      0.9286662960D+01  0.4679413484D+00
      0.3163926960D+01  0.3623119853D+00
 SP   3 1.00       0.000000000000
      0.7868272350D+01 -0.1193324198D+00  0.6899906659D-01
      0.1881288540D+01 -0.1608541517D+00  0.3164239610D+00
      0.5442492580D+00  0.1143456438D+01  0.7443082909D+00
 SP   1 1.00       0.000000000000
      0.1687144782D+00  0.1000000000D+01  0.1000000000D+01
 D   1 1.00       0.000000000000
      0.8000000000D+00  0.1000000000D+01
 ****
     50 0
 S   3 1.00       0.000000000000
      0.1873113696D+02  0.3349460434D-01
      0.2825394365D+01  0.2347269535D+00
      0.6401216923D+00  0.8137573261D+00
 S   1 1.00       0.000000000000
      0.1612777588D+00  0.1000000000D+01
 ****
     51 0
 S   3 1.00       0.000000000000
      0.1873113696D+02  0.3349460434D-01
      0.2825394365D+01  0.2347269535D+00
      0.6401216923D+00  0.8137573261D+00
 S   1 1.00       0.000000000000
      0.1612777588D+00  0.1000000000D+01
 ****
     52 0
 S   3 1.00       0.000000000000
      0.1873113696D+02  0.3349460434D-01
      0.2825394365D+01  0.2347269535D+00
      0.6401216923D+00  0.8137573261D+00
 S   1 1.00       0.000000000000
      0.1612777588D+00  0.1000000000D+01
 ****
     53 0
 S   6 1.00       0.000000000000
      0.5484671660D+04  0.1831074430D-02
      0.8252349460D+03  0.1395017220D-01
      0.1880469580D+03  0.6844507810D-01
      0.5296450000D+02  0.2327143360D+00
      0.1689757040D+02  0.4701928980D+00
      0.5799635340D+01  0.3585208530D+00
 SP   3 1.00       0.000000000000
      0.1553961625D+02 -0.1107775495D+00  0.7087426823D-01
      0.3599933586D+01 -0.1480262627D+00  0.3397528391D+00
      0.1013761750D+01  0.1130767015D+01  0.7271585773D+00
 SP   1 1.00       0.000000000000
      0.2700058226D+00  0.1000000000D+01  0.1000000000D+01
 D   1 1.00       0.000000000000
      0.8000000000D+00  0.1000000000D+01
 ****
     54 0
 S   6 1.00       0.000000000000
      0.5484671660D+04  0.1831074430D-02
      0.8252349460D+03  0.1395017220D-01
      0.1880469580D+03  0.6844507810D-01
      0.5296450000D+02  0.2327143360D+00
      0.1689757040D+02  0.4701928980D+00
      0.5799635340D+01  0.3585208530D+00
 SP   3 1.00       0.000000000000
      0.1553961625D+02 -0.1107775495D+00  0.7087426823D-01
      0.3599933586D+01 -0.1480262627D+00  0.3397528391D+00
      0.1013761750D+01  0.1130767015D+01  0.7271585773D+00
 SP   1 1.00       0.000000000000
      0.2700058226D+00  0.1000000000D+01  0.1000000000D+01
 D   1 1.00       0.000000000000
      0.8000000000D+00  0.1000000000D+01
 ****
     55 0
 S   3 1.00       0.000000000000
      0.1873113696D+02  0.3349460434D-01
      0.2825394365D+01  0.2347269535D+00
      0.6401216923D+00  0.8137573261D+00
 S   1 1.00       0.000000000000
      0.1612777588D+00  0.1000000000D+01
 ****
     56 0
 S   6 1.00       0.000000000000
      0.5484671660D+04  0.1831074430D-02
      0.8252349460D+03  0.1395017220D-01
      0.1880469580D+03  0.6844507810D-01
      0.5296450000D+02  0.2327143360D+00
      0.1689757040D+02  0.4701928980D+00
      0.5799635340D+01  0.3585208530D+00
 SP   3 1.00       0.000000000000
      0.1553961625D+02 -0.1107775495D+00  0.7087426823D-01
      0.3599933586D+01 -0.1480262627D+00  0.3397528391D+00
      0.1013761750D+01  0.1130767015D+01  0.7271585773D+00
 SP   1 1.00       0.000000000000
      0.2700058226D+00  0.1000000000D+01  0.1000000000D+01
 D   1 1.00       0.000000000000
      0.8000000000D+00  0.1000000000D+01
 ****
     57 0
 S   3 1.00       0.000000000000
      0.1873113696D+02  0.3349460434D-01
      0.2825394365D+01  0.2347269535D+00
      0.6401216923D+00  0.8137573261D+00
 S   1 1.00       0.000000000000
      0.1612777588D+00  0.1000000000D+01
 ****
     58 0
 S   6 1.00       0.000000000000
      0.3047524880D+04  0.1834737132D-02
      0.4573695180D+03  0.1403732281D-01
      0.1039486850D+03  0.6884262226D-01
      0.2921015530D+02  0.2321844432D+00
      0.9286662960D+01  0.4679413484D+00
      0.3163926960D+01  0.3623119853D+00
 SP   3 1.00       0.000000000000
      0.7868272350D+01 -0.1193324198D+00  0.6899906659D-01
      0.1881288540D+01 -0.1608541517D+00  0.3164239610D+00
      0.5442492580D+00  0.1143456438D+01  0.7443082909D+00
 SP   1 1.00       0.000000000000
      0.1687144782D+00  0.1000000000D+01  0.1000000000D+01
 D   1 1.00       0.000000000000
      0.8000000000D+00  0.1000000000D+01
 ****
     59 0
 S   3 1.00       0.000000000000
      0.1873113696D+02  0.3349460434D-01
      0.2825394365D+01  0.2347269535D+00
      0.6401216923D+00  0.8137573261D+00
 S   1 1.00       0.000000000000
      0.1612777588D+00  0.1000000000D+01
 ****
     60 0
 S   3 1.00       0.000000000000
      0.1873113696D+02  0.3349460434D-01
      0.2825394365D+01  0.2347269535D+00
      0.6401216923D+00  0.8137573261D+00
 S   1 1.00       0.000000000000
      0.1612777588D+00  0.1000000000D+01
 ****
     61 0
 S   6 1.00       0.000000000000
      0.3047524880D+04  0.1834737132D-02
      0.4573695180D+03  0.1403732281D-01
      0.1039486850D+03  0.6884262226D-01
      0.2921015530D+02  0.2321844432D+00
      0.9286662960D+01  0.4679413484D+00
      0.3163926960D+01  0.3623119853D+00
 SP   3 1.00       0.000000000000
      0.7868272350D+01 -0.1193324198D+00  0.6899906659D-01
      0.1881288540D+01 -0.1608541517D+00  0.3164239610D+00
      0.5442492580D+00  0.1143456438D+01  0.7443082909D+00
 SP   1 1.00       0.000000000000
      0.1687144782D+00  0.1000000000D+01  0.1000000000D+01
 D   1 1.00       0.000000000000
      0.8000000000D+00  0.1000000000D+01
 ****
     62 0
 S   3 1.00       0.000000000000
      0.1873113696D+02  0.3349460434D-01
      0.2825394365D+01  0.2347269535D+00
      0.6401216923D+00  0.8137573261D+00
 S   1 1.00       0.000000000000
      0.1612777588D+00  0.1000000000D+01
 ****
     63 0
 S   3 1.00       0.000000000000
      0.1873113696D+02  0.3349460434D-01
      0.2825394365D+01  0.2347269535D+00
      0.6401216923D+00  0.8137573261D+00
 S   1 1.00       0.000000000000
      0.1612777588D+00  0.1000000000D+01
 ****
     64 0
 S   6 1.00       0.000000000000
      0.3047524880D+04  0.1834737132D-02
      0.4573695180D+03  0.1403732281D-01
      0.1039486850D+03  0.6884262226D-01
      0.2921015530D+02  0.2321844432D+00
      0.9286662960D+01  0.4679413484D+00
      0.3163926960D+01  0.3623119853D+00
 SP   3 1.00       0.000000000000
      0.7868272350D+01 -0.1193324198D+00  0.6899906659D-01
      0.1881288540D+01 -0.1608541517D+00  0.3164239610D+00
      0.5442492580D+00  0.1143456438D+01  0.7443082909D+00
 SP   1 1.00       0.000000000000
      0.1687144782D+00  0.1000000000D+01  0.1000000000D+01
 D   1 1.00       0.000000000000
      0.8000000000D+00  0.1000000000D+01
 ****
     65 0
 S   3 1.00       0.000000000000
      0.1873113696D+02  0.3349460434D-01
      0.2825394365D+01  0.2347269535D+00
      0.6401216923D+00  0.8137573261D+00
 S   1 1.00       0.000000000000
      0.1612777588D+00  0.1000000000D+01
 ****
     66 0
 S   3 1.00       0.000000000000
      0.1873113696D+02  0.3349460434D-01
      0.2825394365D+01  0.2347269535D+00
      0.6401216923D+00  0.8137573261D+00
 S   1 1.00       0.000000000000
      0.1612777588D+00  0.1000000000D+01
 ****
     67 0
 S   6 1.00       0.000000000000
      0.3047524880D+04  0.1834737132D-02
      0.4573695180D+03  0.1403732281D-01
      0.1039486850D+03  0.6884262226D-01
      0.2921015530D+02  0.2321844432D+00
      0.9286662960D+01  0.4679413484D+00
      0.3163926960D+01  0.3623119853D+00
 SP   3 1.00       0.000000000000
      0.7868272350D+01 -0.1193324198D+00  0.6899906659D-01
      0.1881288540D+01 -0.1608541517D+00  0.3164239610D+00
      0.5442492580D+00  0.1143456438D+01  0.7443082909D+00
 SP   1 1.00       0.000000000000
      0.1687144782D+00  0.1000000000D+01  0.1000000000D+01
 D   1 1.00       0.000000000000
      0.8000000000D+00  0.1000000000D+01
 ****
     68 0
 S   3 1.00       0.000000000000
      0.1873113696D+02  0.3349460434D-01
      0.2825394365D+01  0.2347269535D+00
      0.6401216923D+00  0.8137573261D+00
 S   1 1.00       0.000000000000
      0.1612777588D+00  0.1000000000D+01
 ****
     69 0
 S   6 1.00       0.000000000000
      0.3047524880D+04  0.1834737132D-02
      0.4573695180D+03  0.1403732281D-01
      0.1039486850D+03  0.6884262226D-01
      0.2921015530D+02  0.2321844432D+00
      0.9286662960D+01  0.4679413484D+00
      0.3163926960D+01  0.3623119853D+00
 SP   3 1.00       0.000000000000
      0.7868272350D+01 -0.1193324198D+00  0.6899906659D-01
      0.1881288540D+01 -0.1608541517D+00  0.3164239610D+00
      0.5442492580D+00  0.1143456438D+01  0.7443082909D+00
 SP   1 1.00       0.000000000000
      0.1687144782D+00  0.1000000000D+01  0.1000000000D+01
 D   1 1.00       0.000000000000
      0.8000000000D+00  0.1000000000D+01
 ****
     70 0
 S   3 1.00       0.000000000000
      0.1873113696D+02  0.3349460434D-01
      0.2825394365D+01  0.2347269535D+00
      0.6401216923D+00  0.8137573261D+00
 S   1 1.00       0.000000000000
      0.1612777588D+00  0.1000000000D+01
 ****
     71 0
 S   3 1.00       0.000000000000
      0.1873113696D+02  0.3349460434D-01
      0.2825394365D+01  0.2347269535D+00
      0.6401216923D+00  0.8137573261D+00
 S   1 1.00       0.000000000000
      0.1612777588D+00  0.1000000000D+01
 ****
     72 0
 S   3 1.00       0.000000000000
      0.1873113696D+02  0.3349460434D-01
      0.2825394365D+01  0.2347269535D+00
      0.6401216923D+00  0.8137573261D+00
 S   1 1.00       0.000000000000
      0.1612777588D+00  0.1000000000D+01
 ****
     73 0
 S   6 1.00       0.000000000000
      0.3047524880D+04  0.1834737132D-02
      0.4573695180D+03  0.1403732281D-01
      0.1039486850D+03  0.6884262226D-01
      0.2921015530D+02  0.2321844432D+00
      0.9286662960D+01  0.4679413484D+00
      0.3163926960D+01  0.3623119853D+00
 SP   3 1.00       0.000000000000
      0.7868272350D+01 -0.1193324198D+00  0.6899906659D-01
      0.1881288540D+01 -0.1608541517D+00  0.3164239610D+00
      0.5442492580D+00  0.1143456438D+01  0.7443082909D+00
 SP   1 1.00       0.000000000000
      0.1687144782D+00  0.1000000000D+01  0.1000000000D+01
 D   1 1.00       0.000000000000
      0.8000000000D+00  0.1000000000D+01
 ****
     74 0
 S   3 1.00       0.000000000000
      0.1873113696D+02  0.3349460434D-01
      0.2825394365D+01  0.2347269535D+00
      0.6401216923D+00  0.8137573261D+00
 S   1 1.00       0.000000000000
      0.1612777588D+00  0.1000000000D+01
 ****
     75 0
 S   3 1.00       0.000000000000
      0.1873113696D+02  0.3349460434D-01
      0.2825394365D+01  0.2347269535D+00
      0.6401216923D+00  0.8137573261D+00
 S   1 1.00       0.000000000000
      0.1612777588D+00  0.1000000000D+01
 ****
     76 0
 S   3 1.00       0.000000000000
      0.1873113696D+02  0.3349460434D-01
      0.2825394365D+01  0.2347269535D+00
      0.6401216923D+00  0.8137573261D+00
 S   1 1.00       0.000000000000
      0.1612777588D+00  0.1000000000D+01
 ****

 AO basis set (Overlap normalization):
 Atom C1       Shell     1 S   6     bf    1 -     1         14.206012915844          4.186000235918          0.129814283164
      0.3047524880D+04  0.1834737132D-02
      0.4573695180D+03  0.1403732281D-01
      0.1039486850D+03  0.6884262226D-01
      0.2921015530D+02  0.2321844432D+00
      0.9286662960D+01  0.4679413484D+00
      0.3163926960D+01  0.3623119853D+00
 Atom C1       Shell     2 SP   3    bf    2 -     5         14.206012915844          4.186000235918          0.129814283164
      0.7868272350D+01 -0.1193324198D+00  0.6899906659D-01
      0.1881288540D+01 -0.1608541517D+00  0.3164239610D+00
      0.5442492580D+00  0.1143456438D+01  0.7443082909D+00
 Atom C1       Shell     3 SP   1    bf    6 -     9         14.206012915844          4.186000235918          0.129814283164
      0.1687144782D+00  0.1000000000D+01  0.1000000000D+01
 Atom C1       Shell     4 D   1     bf   10 -    15         14.206012915844          4.186000235918          0.129814283164
      0.8000000000D+00  0.1000000000D+01
 Atom H2       Shell     5 S   3     bf   16 -    16         13.900074626417          4.127487965364          2.179085117956
      0.1873113696D+02  0.3349460434D-01
      0.2825394365D+01  0.2347269535D+00
      0.6401216923D+00  0.8137573261D+00
 Atom H2       Shell     6 S   1     bf   17 -    17         13.900074626417          4.127487965364          2.179085117956
      0.1612777588D+00  0.1000000000D+01
 Atom C3       Shell     7 S   6     bf   18 -    18         12.891997801980          1.903667436253         -1.087688057340
      0.3047524880D+04  0.1834737132D-02
      0.4573695180D+03  0.1403732281D-01
      0.1039486850D+03  0.6884262226D-01
      0.2921015530D+02  0.2321844432D+00
      0.9286662960D+01  0.4679413484D+00
      0.3163926960D+01  0.3623119853D+00
 Atom C3       Shell     8 SP   3    bf   19 -    22         12.891997801980          1.903667436253         -1.087688057340
      0.7868272350D+01 -0.1193324198D+00  0.6899906659D-01
      0.1881288540D+01 -0.1608541517D+00  0.3164239610D+00
      0.5442492580D+00  0.1143456438D+01  0.7443082909D+00
 Atom C3       Shell     9 SP   1    bf   23 -    26         12.891997801980          1.903667436253         -1.087688057340
      0.1687144782D+00  0.1000000000D+01  0.1000000000D+01
 Atom C3       Shell    10 D   1     bf   27 -    32         12.891997801980          1.903667436253         -1.087688057340
      0.8000000000D+00  0.1000000000D+01
 Atom H4       Shell    11 S   3     bf   33 -    33         13.615907701691          0.153055439058         -0.257083955604
      0.1873113696D+02  0.3349460434D-01
      0.2825394365D+01  0.2347269535D+00
      0.6401216923D+00  0.8137573261D+00
 Atom H4       Shell    12 S   1     bf   34 -    34         13.615907701691          0.153055439058         -0.257083955604
      0.1612777588D+00  0.1000000000D+01
 Atom H5       Shell    13 S   3     bf   35 -    35         13.423580862311          1.874809031635         -3.101325932711
      0.1873113696D+02  0.3349460434D-01
      0.2825394365D+01  0.2347269535D+00
      0.6401216923D+00  0.8137573261D+00
 Atom H5       Shell    14 S   1     bf   36 -    36         13.423580862311          1.874809031635         -3.101325932711
      0.1612777588D+00  0.1000000000D+01
 Atom C6       Shell    15 S   6     bf   37 -    37         10.036860023038          2.007523704263         -0.857452971584
      0.3047524880D+04  0.1834737132D-02
      0.4573695180D+03  0.1403732281D-01
      0.1039486850D+03  0.6884262226D-01
      0.2921015530D+02  0.2321844432D+00
      0.9286662960D+01  0.4679413484D+00
      0.3163926960D+01  0.3623119853D+00
 Atom C6       Shell    16 SP   3    bf   38 -    41         10.036860023038          2.007523704263         -0.857452971584
      0.7868272350D+01 -0.1193324198D+00  0.6899906659D-01
      0.1881288540D+01 -0.1608541517D+00  0.3164239610D+00
      0.5442492580D+00  0.1143456438D+01  0.7443082909D+00
 Atom C6       Shell    17 SP   1    bf   42 -    45         10.036860023038          2.007523704263         -0.857452971584
      0.1687144782D+00  0.1000000000D+01  0.1000000000D+01
 Atom C6       Shell    18 D   1     bf   46 -    51         10.036860023038          2.007523704263         -0.857452971584
      0.8000000000D+00  0.1000000000D+01
 Atom C7       Shell    19 S   6     bf   52 -    52          8.723469822709          4.460835239465         -1.660441428196
      0.3047524880D+04  0.1834737132D-02
      0.4573695180D+03  0.1403732281D-01
      0.1039486850D+03  0.6884262226D-01
      0.2921015530D+02  0.2321844432D+00
      0.9286662960D+01  0.4679413484D+00
      0.3163926960D+01  0.3623119853D+00
 Atom C7       Shell    20 SP   3    bf   53 -    56          8.723469822709          4.460835239465         -1.660441428196
      0.7868272350D+01 -0.1193324198D+00  0.6899906659D-01
      0.1881288540D+01 -0.1608541517D+00  0.3164239610D+00
      0.5442492580D+00  0.1143456438D+01  0.7443082909D+00
 Atom C7       Shell    21 SP   1    bf   57 -    60          8.723469822709          4.460835239465         -1.660441428196
      0.1687144782D+00  0.1000000000D+01  0.1000000000D+01
 Atom C7       Shell    22 D   1     bf   61 -    66          8.723469822709          4.460835239465         -1.660441428196
      0.8000000000D+00  0.1000000000D+01
 Atom C8       Shell    23 S   6     bf   67 -    67         10.223184430816          6.736502181374         -0.533287404331
      0.3047524880D+04  0.1834737132D-02
      0.4573695180D+03  0.1403732281D-01
      0.1039486850D+03  0.6884262226D-01
      0.2921015530D+02  0.2321844432D+00
      0.9286662960D+01  0.4679413484D+00
      0.3163926960D+01  0.3623119853D+00
 Atom C8       Shell    24 SP   3    bf   68 -    71         10.223184430816          6.736502181374         -0.533287404331
      0.7868272350D+01 -0.1193324198D+00  0.6899906659D-01
      0.1881288540D+01 -0.1608541517D+00  0.3164239610D+00
      0.5442492580D+00  0.1143456438D+01  0.7443082909D+00
 Atom C8       Shell    25 SP   1    bf   72 -    75         10.223184430816          6.736502181374         -0.533287404331
      0.1687144782D+00  0.1000000000D+01  0.1000000000D+01
 Atom C8       Shell    26 D   1     bf   76 -    81         10.223184430816          6.736502181374         -0.533287404331
      0.8000000000D+00  0.1000000000D+01
 Atom H9       Shell    27 S   3     bf   82 -    82          9.848685308815          6.815524688998          1.507746057556
      0.1873113696D+02  0.3349460434D-01
      0.2825394365D+01  0.2347269535D+00
      0.6401216923D+00  0.8137573261D+00
 Atom H9       Shell    28 S   1     bf   83 -    83          9.848685308815          6.815524688998          1.507746057556
      0.1612777588D+00  0.1000000000D+01
 Atom H10      Shell    29 S   3     bf   84 -    84          9.494560439191          8.501275124805         -1.330732802866
      0.1873113696D+02  0.3349460434D-01
      0.2825394365D+01  0.2347269535D+00
      0.6401216923D+00  0.8137573261D+00
 Atom H10      Shell    30 S   1     bf   85 -    85          9.494560439191          8.501275124805         -1.330732802866
      0.1612777588D+00  0.1000000000D+01
 Atom C11      Shell    31 S   6     bf   86 -    86         13.098176938626          6.634708303774         -0.925155433856
      0.3047524880D+04  0.1834737132D-02
      0.4573695180D+03  0.1403732281D-01
      0.1039486850D+03  0.6884262226D-01
      0.2921015530D+02  0.2321844432D+00
      0.9286662960D+01  0.4679413484D+00
      0.3163926960D+01  0.3623119853D+00
 Atom C11      Shell    32 SP   3    bf   87 -    90         13.098176938626          6.634708303774         -0.925155433856
      0.7868272350D+01 -0.1193324198D+00  0.6899906659D-01
      0.1881288540D+01 -0.1608541517D+00  0.3164239610D+00
      0.5442492580D+00  0.1143456438D+01  0.7443082909D+00
 Atom C11      Shell    33 SP   1    bf   91 -    94         13.098176938626          6.634708303774         -0.925155433856
      0.1687144782D+00  0.1000000000D+01  0.1000000000D+01
 Atom C11      Shell    34 D   1     bf   95 -   100         13.098176938626          6.634708303774         -0.925155433856
      0.8000000000D+00  0.1000000000D+01
 Atom H12      Shell    35 S   3     bf  101 -   101         13.562300177521          6.771538781022         -2.947158767770
      0.1873113696D+02  0.3349460434D-01
      0.2825394365D+01  0.2347269535D+00
      0.6401216923D+00  0.8137573261D+00
 Atom H12      Shell    36 S   1     bf  102 -   102         13.562300177521          6.771538781022         -2.947158767770
      0.1612777588D+00  0.1000000000D+01
 Atom H13      Shell    37 S   3     bf  103 -   103         13.994981378229          8.256076167077          0.000000000000
      0.1873113696D+02  0.3349460434D-01
      0.2825394365D+01  0.2347269535D+00
      0.6401216923D+00  0.8137573261D+00
 Atom H13      Shell    38 S   1     bf  104 -   104         13.994981378229          8.256076167077          0.000000000000
      0.1612777588D+00  0.1000000000D+01
 Atom C14      Shell    39 S   6     bf  105 -   105          8.754238532577          0.000000000000          0.000000000000
      0.3047524880D+04  0.1834737132D-02
      0.4573695180D+03  0.1403732281D-01
      0.1039486850D+03  0.6884262226D-01
      0.2921015530D+02  0.2321844432D+00
      0.9286662960D+01  0.4679413484D+00
      0.3163926960D+01  0.3623119853D+00
 Atom C14      Shell    40 SP   3    bf  106 -   109          8.754238532577          0.000000000000          0.000000000000
      0.7868272350D+01 -0.1193324198D+00  0.6899906659D-01
      0.1881288540D+01 -0.1608541517D+00  0.3164239610D+00
      0.5442492580D+00  0.1143456438D+01  0.7443082909D+00
 Atom C14      Shell    41 SP   1    bf  110 -   113          8.754238532577          0.000000000000          0.000000000000
      0.1687144782D+00  0.1000000000D+01  0.1000000000D+01
 Atom C14      Shell    42 D   1     bf  114 -   119          8.754238532577          0.000000000000          0.000000000000
      0.8000000000D+00  0.1000000000D+01
 Atom H15      Shell    43 S   3     bf  120 -   120          9.782628627929         -1.683099868139          0.597200436584
      0.1873113696D+02  0.3349460434D-01
      0.2825394365D+01  0.2347269535D+00
      0.6401216923D+00  0.8137573261D+00
 Atom H15      Shell    44 S   1     bf  121 -   121          9.782628627929         -1.683099868139          0.597200436584
      0.1612777588D+00  0.1000000000D+01
 Atom C16      Shell    45 S   6     bf  122 -   122          5.932715769005         -0.188618591995          0.206334698902
      0.3047524880D+04  0.1834737132D-02
      0.4573695180D+03  0.1403732281D-01
      0.1039486850D+03  0.6884262226D-01
      0.2921015530D+02  0.2321844432D+00
      0.9286662960D+01  0.4679413484D+00
      0.3163926960D+01  0.3623119853D+00
 Atom C16      Shell    46 SP   3    bf  123 -   126          5.932715769005         -0.188618591995          0.206334698902
      0.7868272350D+01 -0.1193324198D+00  0.6899906659D-01
      0.1881288540D+01 -0.1608541517D+00  0.3164239610D+00
      0.5442492580D+00  0.1143456438D+01  0.7443082909D+00
 Atom C16      Shell    47 SP   1    bf  127 -   130          5.932715769005         -0.188618591995          0.206334698902
      0.1687144782D+00  0.1000000000D+01  0.1000000000D+01
 Atom C16      Shell    48 D   1     bf  131 -   136          5.932715769005         -0.188618591995          0.206334698902
      0.8000000000D+00  0.1000000000D+01
 Atom H17      Shell    49 S   3     bf  137 -   137          5.397085595598         -0.364690309536          2.211464214640
      0.1873113696D+02  0.3349460434D-01
      0.2825394365D+01  0.2347269535D+00
      0.6401216923D+00  0.8137573261D+00
 Atom H17      Shell    50 S   1     bf  138 -   138          5.397085595598         -0.364690309536          2.211464214640
      0.1612777588D+00  0.1000000000D+01
 Atom C18      Shell    51 S   6     bf  139 -   139          4.487948614280          2.019264969569         -1.004500064197
      0.3047524880D+04  0.1834737132D-02
      0.4573695180D+03  0.1403732281D-01
      0.1039486850D+03  0.6884262226D-01
      0.2921015530D+02  0.2321844432D+00
      0.9286662960D+01  0.4679413484D+00
      0.3163926960D+01  0.3623119853D+00
 Atom C18      Shell    52 SP   3    bf  140 -   143          4.487948614280          2.019264969569         -1.004500064197
      0.7868272350D+01 -0.1193324198D+00  0.6899906659D-01
      0.1881288540D+01 -0.1608541517D+00  0.3164239610D+00
      0.5442492580D+00  0.1143456438D+01  0.7443082909D+00
 Atom C18      Shell    53 SP   1    bf  144 -   147          4.487948614280          2.019264969569         -1.004500064197
      0.1687144782D+00  0.1000000000D+01  0.1000000000D+01
 Atom C18      Shell    54 D   1     bf  148 -   153          4.487948614280          2.019264969569         -1.004500064197
      0.8000000000D+00  0.1000000000D+01
 Atom H19      Shell    55 S   3     bf  154 -   154          4.378447035113          1.617951503016         -3.032341877073
      0.1873113696D+02  0.3349460434D-01
      0.2825394365D+01  0.2347269535D+00
      0.6401216923D+00  0.8137573261D+00
 Atom H19      Shell    56 S   1     bf  155 -   155          4.378447035113          1.617951503016         -3.032341877073
      0.1612777588D+00  0.1000000000D+01
 Atom C20      Shell    57 S   6     bf  156 -   156          5.964271455321          4.521835032117         -0.577416515753
      0.3047524880D+04  0.1834737132D-02
      0.4573695180D+03  0.1403732281D-01
      0.1039486850D+03  0.6884262226D-01
      0.2921015530D+02  0.2321844432D+00
      0.9286662960D+01  0.4679413484D+00
      0.3163926960D+01  0.3623119853D+00
 Atom C20      Shell    58 SP   3    bf  157 -   160          5.964271455321          4.521835032117         -0.577416515753
      0.7868272350D+01 -0.1193324198D+00  0.6899906659D-01
      0.1881288540D+01 -0.1608541517D+00  0.3164239610D+00
      0.5442492580D+00  0.1143456438D+01  0.7443082909D+00
 Atom C20      Shell    59 SP   1    bf  161 -   164          5.964271455321          4.521835032117         -0.577416515753
      0.1687144782D+00  0.1000000000D+01  0.1000000000D+01
 Atom C20      Shell    60 D   1     bf  165 -   170          5.964271455321          4.521835032117         -0.577416515753
      0.8000000000D+00  0.1000000000D+01
 Atom H21      Shell    61 S   3     bf  171 -   171          6.182523447518          4.712427405263          1.486239141129
      0.1873113696D+02  0.3349460434D-01
      0.2825394365D+01  0.2347269535D+00
      0.6401216923D+00  0.8137573261D+00
 Atom H21      Shell    62 S   1     bf  172 -   172          6.182523447518          4.712427405263          1.486239141129
      0.1612777588D+00  0.1000000000D+01
 Atom C22      Shell    63 S   6     bf  173 -   173          4.421442802184          6.834526187620         -1.472638026260
      0.3047524880D+04  0.1834737132D-02
      0.4573695180D+03  0.1403732281D-01
      0.1039486850D+03  0.6884262226D-01
      0.2921015530D+02  0.2321844432D+00
      0.9286662960D+01  0.4679413484D+00
      0.3163926960D+01  0.3623119853D+00
 Atom C22      Shell    64 SP   3    bf  174 -   177          4.421442802184          6.834526187620         -1.472638026260
      0.7868272350D+01 -0.1193324198D+00  0.6899906659D-01
      0.1881288540D+01 -0.1608541517D+00  0.3164239610D+00
      0.5442492580D+00  0.1143456438D+01  0.7443082909D+00
 Atom C22      Shell    65 SP   1    bf  178 -   181          4.421442802184          6.834526187620         -1.472638026260
      0.1687144782D+00  0.1000000000D+01  0.1000000000D+01
 Atom C22      Shell    66 D   1     bf  182 -   187          4.421442802184          6.834526187620         -1.472638026260
      0.8000000000D+00  0.1000000000D+01
 Atom H23      Shell    67 S   3     bf  188 -   188          4.328035302394          6.854874172804         -3.540486305130
      0.1873113696D+02  0.3349460434D-01
      0.2825394365D+01  0.2347269535D+00
      0.6401216923D+00  0.8137573261D+00
 Atom H23      Shell    68 S   1     bf  189 -   189          4.328035302394          6.854874172804         -3.540486305130
      0.1612777588D+00  0.1000000000D+01
 Atom H24      Shell    69 S   3     bf  190 -   190          5.399792288133          8.575729880907         -0.927800993751
      0.1873113696D+02  0.3349460434D-01
      0.2825394365D+01  0.2347269535D+00
      0.6401216923D+00  0.8137573261D+00
 Atom H24      Shell    70 S   1     bf  191 -   191          5.399792288133          8.575729880907         -0.927800993751
      0.1612777588D+00  0.1000000000D+01
 Atom C25      Shell    71 S   6     bf  192 -   192          1.710388326080          6.937237206004         -0.414512617776
      0.3047524880D+04  0.1834737132D-02
      0.4573695180D+03  0.1403732281D-01
      0.1039486850D+03  0.6884262226D-01
      0.2921015530D+02  0.2321844432D+00
      0.9286662960D+01  0.4679413484D+00
      0.3163926960D+01  0.3623119853D+00
 Atom C25      Shell    72 SP   3    bf  193 -   196          1.710388326080          6.937237206004         -0.414512617776
      0.7868272350D+01 -0.1193324198D+00  0.6899906659D-01
      0.1881288540D+01 -0.1608541517D+00  0.3164239610D+00
      0.5442492580D+00  0.1143456438D+01  0.7443082909D+00
 Atom C25      Shell    73 SP   1    bf  197 -   200          1.710388326080          6.937237206004         -0.414512617776
      0.1687144782D+00  0.1000000000D+01  0.1000000000D+01
 Atom C25      Shell    74 D   1     bf  201 -   206          1.710388326080          6.937237206004         -0.414512617776
      0.8000000000D+00  0.1000000000D+01
 Atom H26      Shell    75 S   3     bf  207 -   207          1.783845873701          7.202173219355          1.645398565671
      0.1873113696D+02  0.3349460434D-01
      0.2825394365D+01  0.2347269535D+00
      0.6401216923D+00  0.8137573261D+00
 Atom H26      Shell    76 S   1     bf  208 -   208          1.783845873701          7.202173219355          1.645398565671
      0.1612777588D+00  0.1000000000D+01
 Atom H27      Shell    77 S   3     bf  209 -   209          0.771044544959          8.609741908839         -1.187167568448
      0.1873113696D+02  0.3349460434D-01
      0.2825394365D+01  0.2347269535D+00
      0.6401216923D+00  0.8137573261D+00
 Atom H27      Shell    78 S   1     bf  210 -   210          0.771044544959          8.609741908839         -1.187167568448
      0.1612777588D+00  0.1000000000D+01
 Atom C28      Shell    79 S   6     bf  211 -   211          0.224395265088          4.497581625523         -0.988200514896
      0.3047524880D+04  0.1834737132D-02
      0.4573695180D+03  0.1403732281D-01
      0.1039486850D+03  0.6884262226D-01
      0.2921015530D+02  0.2321844432D+00
      0.9286662960D+01  0.4679413484D+00
      0.3163926960D+01  0.3623119853D+00
 Atom C28      Shell    80 SP   3    bf  212 -   215          0.224395265088          4.497581625523         -0.988200514896
      0.7868272350D+01 -0.1193324198D+00  0.6899906659D-01
      0.1881288540D+01 -0.1608541517D+00  0.3164239610D+00
      0.5442492580D+00  0.1143456438D+01  0.7443082909D+00
 Atom C28      Shell    81 SP   1    bf  216 -   219          0.224395265088          4.497581625523         -0.988200514896
      0.1687144782D+00  0.1000000000D+01  0.1000000000D+01
 Atom C28      Shell    82 D   1     bf  220 -   225          0.224395265088          4.497581625523         -0.988200514896
      0.8000000000D+00  0.1000000000D+01
 Atom C29      Shell    83 S   6     bf  226 -   226          1.808723513528          2.270271981670          0.099366316513
      0.3047524880D+04  0.1834737132D-02
      0.4573695180D+03  0.1403732281D-01
      0.1039486850D+03  0.6884262226D-01
      0.2921015530D+02  0.2321844432D+00
      0.9286662960D+01  0.4679413484D+00
      0.3163926960D+01  0.3623119853D+00
 Atom C29      Shell    84 SP   3    bf  227 -   230          1.808723513528          2.270271981670          0.099366316513
      0.7868272350D+01 -0.1193324198D+00  0.6899906659D-01
      0.1881288540D+01 -0.1608541517D+00  0.3164239610D+00
      0.5442492580D+00  0.1143456438D+01  0.7443082909D+00
 Atom C29      Shell    85 SP   1    bf  231 -   234          1.808723513528          2.270271981670          0.099366316513
      0.1687144782D+00  0.1000000000D+01  0.1000000000D+01
 Atom C29      Shell    86 D   1     bf  235 -   240          1.808723513528          2.270271981670          0.099366316513
      0.8000000000D+00  0.1000000000D+01
 Atom H30      Shell    87 S   3     bf  241 -   241          2.071092466209          2.730035471198          2.118309598002
      0.1873113696D+02  0.3349460434D-01
      0.2825394365D+01  0.2347269535D+00
      0.6401216923D+00  0.8137573261D+00
 Atom H30      Shell    88 S   1     bf  242 -   242          2.071092466209          2.730035471198          2.118309598002
      0.1612777588D+00  0.1000000000D+01
 Atom C31      Shell    89 S   6     bf  243 -   243          0.000000000000          0.000000000000          0.000000000000
      0.3047524880D+04  0.1834737132D-02
      0.4573695180D+03  0.1403732281D-01
      0.1039486850D+03  0.6884262226D-01
      0.2921015530D+02  0.2321844432D+00
      0.9286662960D+01  0.4679413484D+00
      0.3163926960D+01  0.3623119853D+00
 Atom C31      Shell    90 SP   3    bf  244 -   247          0.000000000000          0.000000000000          0.000000000000
      0.7868272350D+01 -0.1193324198D+00  0.6899906659D-01
      0.1881288540D+01 -0.1608541517D+00  0.3164239610D+00
      0.5442492580D+00  0.1143456438D+01  0.7443082909D+00
 Atom C31      Shell    91 SP   1    bf  248 -   251          0.000000000000          0.000000000000          0.000000000000
      0.1687144782D+00  0.1000000000D+01  0.1000000000D+01
 Atom C31      Shell    92 D   1     bf  252 -   257          0.000000000000          0.000000000000          0.000000000000
      0.8000000000D+00  0.1000000000D+01
 Atom H32      Shell    93 S   3     bf  258 -   258          0.519022560952         -1.485298208693          1.338067018961
      0.1873113696D+02  0.3349460434D-01
      0.2825394365D+01  0.2347269535D+00
      0.6401216923D+00  0.8137573261D+00
 Atom H32      Shell    94 S   1     bf  259 -   259          0.519022560952         -1.485298208693          1.338067018961
      0.1612777588D+00  0.1000000000D+01
 Atom H33      Shell    95 S   3     bf  260 -   260          0.031300535494         -0.876818166898         -1.873575361724
      0.1873113696D+02  0.3349460434D-01
      0.2825394365D+01  0.2347269535D+00
      0.6401216923D+00  0.8137573261D+00
 Atom H33      Shell    96 S   1     bf  261 -   261          0.031300535494         -0.876818166898         -1.873575361724
      0.1612777588D+00  0.1000000000D+01
 Atom C34      Shell    97 S   6     bf  262 -   262         -2.620238527836          1.178504534732          0.591915193843
      0.3047524880D+04  0.1834737132D-02
      0.4573695180D+03  0.1403732281D-01
      0.1039486850D+03  0.6884262226D-01
      0.2921015530D+02  0.2321844432D+00
      0.9286662960D+01  0.4679413484D+00
      0.3163926960D+01  0.3623119853D+00
 Atom C34      Shell    98 SP   3    bf  263 -   266         -2.620238527836          1.178504534732          0.591915193843
      0.7868272350D+01 -0.1193324198D+00  0.6899906659D-01
      0.1881288540D+01 -0.1608541517D+00  0.3164239610D+00
      0.5442492580D+00  0.1143456438D+01  0.7443082909D+00
 Atom C34      Shell    99 SP   1    bf  267 -   270         -2.620238527836          1.178504534732          0.591915193843
      0.1687144782D+00  0.1000000000D+01  0.1000000000D+01
 Atom C34      Shell   100 D   1     bf  271 -   276         -2.620238527836          1.178504534732          0.591915193843
      0.8000000000D+00  0.1000000000D+01
 Atom H35      Shell   101 S   3     bf  277 -   277         -4.033029135337          0.567809242580         -0.796050289321
      0.1873113696D+02  0.3349460434D-01
      0.2825394365D+01  0.2347269535D+00
      0.6401216923D+00  0.8137573261D+00
 Atom H35      Shell   102 S   1     bf  278 -   278         -4.033029135337          0.567809242580         -0.796050289321
      0.1612777588D+00  0.1000000000D+01
 Atom H36      Shell   103 S   3     bf  279 -   279         -3.316072974261          0.560822849478          2.438577378339
      0.1873113696D+02  0.3349460434D-01
      0.2825394365D+01  0.2347269535D+00
      0.6401216923D+00  0.8137573261D+00
 Atom H36      Shell   104 S   1     bf  280 -   280         -3.316072974261          0.560822849478          2.438577378339
      0.1612777588D+00  0.1000000000D+01
 Atom C37      Shell   105 S   6     bf  281 -   281         -2.303460277981          4.121030979038          0.514464087986
      0.3047524880D+04  0.1834737132D-02
      0.4573695180D+03  0.1403732281D-01
      0.1039486850D+03  0.6884262226D-01
      0.2921015530D+02  0.2321844432D+00
      0.9286662960D+01  0.4679413484D+00
      0.3163926960D+01  0.3623119853D+00
 Atom C37      Shell   106 SP   3    bf  282 -   285         -2.303460277981          4.121030979038          0.514464087986
      0.7868272350D+01 -0.1193324198D+00  0.6899906659D-01
      0.1881288540D+01 -0.1608541517D+00  0.3164239610D+00
      0.5442492580D+00  0.1143456438D+01  0.7443082909D+00
[...]
 1656 Fit      -0.001700
 1657 Fit       0.000152
 1658 Fit       0.000975
 1659 Fit      -0.001750
 1660 Fit      -0.000384
 1661 Fit      -0.003127
 1662 Fit      -0.003148
 1663 Fit      -0.001970
 1664 Fit      -0.003075
 1665 Fit      -0.003341
 1666 Fit      -0.002968
 1667 Fit      -0.002291
 1668 Fit       0.002107
 1669 Fit       0.002265
 1670 Fit       0.001895
 1671 Fit       0.001160
 1672 Fit       0.000336
 1673 Fit       0.000660
 1674 Fit       0.000619
 1675 Fit       0.000118
 1676 Fit      -0.000896
 1677 Fit      -0.002149
 1678 Fit      -0.000954
 1679 Fit      -0.001328
 1680 Fit      -0.001768
 1681 Fit      -0.002504
 1682 Fit      -0.002075
 1683 Fit      -0.000726
 1684 Fit      -0.001987
 1685 Fit       0.000022
 1686 Fit       0.001325
 1687 Fit       0.002158
 1688 Fit      -0.002178
 1689 Fit       0.000032
 1690 Fit       0.001492
 1691 Fit       0.001857
 1692 Fit       0.001127
 1693 Fit      -0.001055
 1694 Fit       0.000336
 1695 Fit      -0.000517
 1696 Fit      -0.001969
 1697 Fit       0.001500
 1698 Fit      -0.000831
 1699 Fit       0.003964
 1700 Fit       0.001905
 1701 Fit      -0.000386
 1702 Fit       0.001182
 1703 Fit       0.001629
 1704 Fit      -0.000603
 1705 Fit      -0.000738
 1706 Fit      -0.000076
 1707 Fit       0.000926
 1708 Fit      -0.004952
 1709 Fit      -0.001099
 1710 Fit       0.003619
 1711 Fit       0.004090
 1712 Fit       0.001731
 1713 Fit      -0.002126
 1714 Fit      -0.011644
 1715 Fit      -0.002716
 1716 Fit       0.003807
 1717 Fit       0.003165
 1718 Fit       0.000823
 1719 Fit       0.000486
 1720 Fit      -0.004571
 1721 Fit      -0.012788
 1722 Fit       0.011302
 1723 Fit       0.008141
 1724 Fit       0.006873
 1725 Fit       0.000909
 1726 Fit       0.003249
 1727 Fit      -0.003900
 1728 Fit       0.007023
 1729 Fit       0.002075
 1730 Fit      -0.006238
 1731 Fit       0.008050
 1732 Fit       0.003846
 1733 Fit      -0.001846
 1734 Fit       0.007105
 1735 Fit       0.010532
 1736 Fit       0.021113
 1737 Fit       0.006303
 1738 Fit       0.009332
 1739 Fit       0.009892
 1740 Fit       0.012788
 1741 Fit       0.016488
 1742 Fit       0.009588
 1743 Fit       0.012006
 1744 Fit       0.005427
 1745 Fit       0.006073
 1746 Fit       0.006354
 1747 Fit       0.006030
 1748 Fit       0.005688
 1749 Fit       0.006208
 1750 Fit       0.007094
 1751 Fit       0.006607
 1752 Fit       0.006422
 1753 Fit       0.005278
 1754 Fit       0.005447
 1755 Fit       0.005986
 1756 Fit       0.006137
 1757 Fit       0.006822
 1758 Fit       0.007501
 1759 Fit       0.007684
 1760 Fit       0.008291
 1761 Fit       0.008291
 1762 Fit       0.008780
 1763 Fit       0.005986
 1764 Fit       0.005876
 1765 Fit       0.007141
 1766 Fit       0.009862
 1767 Fit       0.006401
 1768 Fit       0.020521
 1769 Fit       0.012018
 1770 Fit       0.008899
 1771 Fit       0.008476
 1772 Fit       0.016297
 1773 Fit       0.011633
 1774 Fit       0.010015
 1775 Fit       0.002589
 1776 Fit      -0.004504
 1777 Fit       0.001216
 1778 Fit       0.004426
 1779 Fit      -0.002919
 1780 Fit       0.002202
 1781 Fit       0.004506
 1782 Fit      -0.004568
 1783 Fit       0.001292
 1784 Fit       0.004015
 1785 Fit       0.005452
 1786 Fit      -0.001181
 1787 Fit       0.002513
 1788 Fit       0.004512
 1789 Fit       0.005959
 1790 Fit       0.004736
 1791 Fit       0.002346
 1792 Fit       0.000196
 1793 Fit       0.000589
 1794 Fit       0.002105
 1795 Fit       0.000843
 1796 Fit       0.014239
 1797 Fit       0.002364
 1798 Fit       0.002746
 1799 Fit       0.003721
 1800 Fit       0.002452
 1801 Fit       0.005589
 1802 Fit       0.005845
 1803 Fit       0.001274
 1804 Fit       0.007301
 1805 Fit       0.008558
 1806 Fit       0.013041
 1807 Fit       0.011565
 1808 Fit       0.005174
 1809 Fit       0.004494
 1810 Fit       0.006097
 1811 Fit       0.006509
 1812 Fit       0.004519
 1813 Fit       0.002839
 1814 Fit       0.003468
 1815 Fit      -0.001325
 1816 Fit      -0.002253
 1817 Fit       0.000672
 1818 Fit       0.006463
 1819 Fit       0.006453
 1820 Fit       0.007019
 1821 Fit       0.006308
 1822 Fit       0.007673
 1823 Fit       0.006017
 1824 Fit       0.006131
 1825 Fit       0.004329
 1826 Fit       0.005003
 1827 Fit       0.003915
 1828 Fit       0.004778
 1829 Fit       0.005198
 1830 Fit       0.005611
 1831 Fit       0.006169
 1832 Fit       0.004659
 1833 Fit       0.006550
 1834 Fit       0.004679
 1835 Fit       0.006948
 1836 Fit       0.004906
 1837 Fit       0.007876
 1838 Fit       0.005120
 1839 Fit       0.002587
 1840 Fit       0.000863
 1841 Fit       0.004389
 1842 Fit       0.005355
 1843 Fit       0.004163
 1844 Fit       0.003381
 1845 Fit       0.005523
 1846 Fit       0.004979
 1847 Fit       0.003445
 1848 Fit       0.002314
 1849 Fit       0.002293
 1850 Fit       0.000435
 1851 Fit       0.002439
 1852 Fit       0.001268
 1853 Fit       0.003572
 1854 Fit       0.002940
 1855 Fit       0.004161
 1856 Fit       0.004349
 1857 Fit       0.004215
 1858 Fit       0.004006
 1859 Fit       0.006201
 1860 Fit       0.005335
 1861 Fit       0.003972
 1862 Fit       0.002303
 1863 Fit       0.002228
 1864 Fit       0.005046
 1865 Fit       0.000179
 1866 Fit      -0.008832
 1867 Fit      -0.009654
 1868 Fit      -0.014540
 1869 Fit      -0.024537
 1870 Fit      -0.000390
 1871 Fit      -0.002643
 1872 Fit      -0.002152
 1873 Fit      -0.004929
 1874 Fit      -0.006323
 1875 Fit      -0.007757
 1876 Fit      -0.008148
 1877 Fit      -0.010584
 1878 Fit      -0.015634
 1879 Fit      -0.016141
 1880 Fit      -0.010045
 1881 Fit      -0.016243
 1882 Fit      -0.003732
 1883 Fit      -0.008663
 1884 Fit      -0.016095
 1885 Fit      -0.010108
 1886 Fit      -0.002278
 1887 Fit      -0.004800
 1888 Fit      -0.007107
 1889 Fit      -0.008086
 1890 Fit      -0.001334
 1891 Fit      -0.003769
 1892 Fit      -0.000934
 1893 Fit      -0.002847
 1894 Fit      -0.005731
 1895 Fit      -0.000089
 1896 Fit      -0.001797
 1897 Fit      -0.004517
 1898 Fit       0.000404
 1899 Fit      -0.001296
 1900 Fit       0.000090
 1901 Fit       0.000290
 1902 Fit       0.000418
 1903 Fit      -0.000667
 1904 Fit      -0.000519
 1905 Fit      -0.000421
 1906 Fit      -0.000513
 1907 Fit      -0.000773
 1908 Fit      -0.001251
 1909 Fit      -0.002160
 1910 Fit      -0.002422
 1911 Fit      -0.002880
 1912 Fit      -0.004497
 1913 Fit       0.001736
 1914 Fit       0.003142
 1915 Fit       0.002908
 1916 Fit       0.001938
 1917 Fit       0.000245
 1918 Fit       0.001598
 1919 Fit      -0.012771
 1920 Fit       0.001371
 1921 Fit      -0.002306
 1922 Fit      -0.006399
 1923 Fit      -0.000504
 1924 Fit      -0.001235
 1925 Fit      -0.002515
 1926 Fit      -0.003572
 1927 Fit      -0.003358
 1928 Fit      -0.002323
 1929 Fit      -0.006648
 1930 Fit       0.001581
 1931 Fit       0.001655
 1932 Fit      -0.001936
 1933 Fit      -0.000956
 1934 Fit       0.000319
 1935 Fit      -0.001399
 1936 Fit      -0.000984
 1937 Fit      -0.001961
 1938 Fit      -0.004871
 1939 Fit      -0.009091
 1940 Fit      -0.002529
 1941 Fit      -0.003284
 1942 Fit       0.004808
 1943 Fit       0.002615
 1944 Fit       0.002822
 1945 Fit       0.001816
 1946 Fit       0.000365
 1947 Fit      -0.001155
 1948 Fit       0.000662
 1949 Fit       0.000785
 1950 Fit      -0.000837
 1951 Fit       0.000611
 1952 Fit       0.000677
 1953 Fit      -0.000145
 1954 Fit       0.000109
 1955 Fit      -0.000020
 1956 Fit      -0.000723
 1957 Fit      -0.000987
 1958 Fit      -0.000388
 1959 Fit      -0.001174
 1960 Fit      -0.001145
 1961 Fit       0.000372
 1962 Fit      -0.000924
 1963 Fit      -0.000579
 1964 Fit      -0.000115
 1965 Fit      -0.001006
 1966 Fit      -0.000049
 1967 Fit      -0.000527
 1968 Fit       0.002197
 1969 Fit       0.002669
 1970 Fit       0.002176
 1971 Fit       0.001401
 1972 Fit       0.001795
 1973 Fit       0.001499
 1974 Fit       0.000745
 1975 Fit      -0.000051
 1976 Fit       0.000625
 1977 Fit       0.000126
 1978 Fit      -0.000697
 1979 Fit       0.000400
 1980 Fit      -0.000118
 1981 Fit       0.001603
 1982 Fit       0.000416
 1983 Fit       0.002029
 1984 Fit       0.000185
 1985 Fit       0.001460
 1986 Fit       0.001839
 1987 Fit       0.000108
 1988 Fit      -0.000023
 1989 Fit       0.001381
 1990 Fit       0.003271
 1991 Fit       0.001044
 1992 Fit       0.003557
 1993 Fit       0.001357
 1994 Fit       0.009003
 1995 Fit       0.004159
 1996 Fit       0.003364
 1997 Fit       0.004258
 1998 Fit       0.005413
 1999 Fit       0.004614
 2000 Fit       0.003626
 2001 Fit       0.002332
 2002 Fit       0.003671
 2003 Fit       0.003146
 2004 Fit       0.008512
 2005 Fit       0.008460
 2006 Fit       0.007949
 2007 Fit       0.007111
 2008 Fit       0.007029
 2009 Fit       0.006506
 2010 Fit       0.005699
 2011 Fit       0.005605
 2012 Fit       0.005325
 2013 Fit       0.003806
 2014 Fit       0.014761
 2015 Fit       0.012567
 2016 Fit       0.008791
 2017 Fit       0.008731
 2018 Fit       0.013079
 2019 Fit       0.009251
 2020 Fit       0.007293
 2021 Fit       0.007108
 2022 Fit      -0.000305
 2023 Fit      -0.005001
 2024 Fit      -0.003052
 2025 Fit       0.001943
 2026 Fit       0.001458
 2027 Fit       0.000335
 2028 Fit       0.002088
 2029 Fit       0.002029
 2030 Fit      -0.007580
 2031 Fit      -0.004490
 2032 Fit      -0.015329
 2033 Fit      -0.013271
 2034 Fit      -0.007806
 2035 Fit      -0.020074
 2036 Fit      -0.016309
 2037 Fit      -0.009728
 2038 Fit      -0.001136
 2039 Fit      -0.023444
 2040 Fit      -0.018476
 2041 Fit      -0.009750
 2042 Fit      -0.026156
 2043 Fit      -0.021691
 2044 Fit      -0.012147
 2045 Fit      -0.022250
 2046 Fit      -0.022116
 2047 Fit      -0.015988
 2048 Fit      -0.004316
 2049 Fit       0.000971
 2050 Fit      -0.016361
 2051 Fit      -0.019319
 2052 Fit      -0.018793
 2053 Fit      -0.012956
 2054 Fit      -0.002175
 2055 Fit       0.000962
 2056 Fit      -0.005527
 2057 Fit      -0.011479
 2058 Fit      -0.014669
 2059 Fit      -0.009916
 2060 Fit      -0.000022
 2061 Fit      -0.007500
 2062 Fit       0.008033
 2063 Fit      -0.000267
 2064 Fit       0.010436
 2065 Fit       0.016764
 2066 Fit       0.019386
 2067 Fit       0.017279
 2068 Fit       0.002729
 2069 Fit       0.012484
 2070 Fit       0.017978
 2071 Fit       0.019722
 2072 Fit       0.015691
 2073 Fit       0.008538
 2074 Fit       0.005444
 2075 Fit       0.014008
 2076 Fit       0.017364
 2077 Fit       0.010817
 2078 Fit       0.010176
 2079 Fit      -0.021539
 2080 Fit      -0.017616
 2081 Fit      -0.018285
 2082 Fit      -0.024320
 2083 Fit      -0.023160
 2084 Fit      -0.019407
 2085 Fit      -0.011711
 2086 Fit      -0.013488
 2087 Fit      -0.020524
 2088 Fit      -0.023697
 2089 Fit      -0.021452
 2090 Fit      -0.020894
 2091 Fit      -0.019216
 2092 Fit      -0.014580
 2093 Fit      -0.016476
 2094 Fit      -0.020527
 2095 Fit      -0.021571
 2096 Fit      -0.013198
 2097 Fit      -0.012871
 2098 Fit      -0.012408
 2099 Fit      -0.010484
 2100 Fit      -0.012733
 2101 Fit      -0.014192
 2102 Fit      -0.013846
 2103 Fit       0.000099
 2104 Fit       0.000955
 2105 Fit      -0.001938
 2106 Fit      -0.002717
 2107 Fit      -0.001443
 2108 Fit       0.004592
 2109 Fit       0.004928
 2110 Fit       0.005132
 2111 Fit       0.006011
 2112 Fit       0.002892
 2113 Fit       0.003751
 2114 Fit       0.014053
 2115 Fit       0.014519
 2116 Fit       0.015368
 2117 Fit       0.013983
 2118 Fit       0.013652
 2119 Fit       0.020068
 2120 Fit       0.021120
 2121 Fit       0.020550
 2122 Fit       0.023915
 2123 Fit      -0.002353
 2124 Fit      -0.000811
 2125 Fit      -0.000971
 2126 Fit      -0.001469
 2127 Fit      -0.000264
 2128 Fit       0.000111
 2129 Fit       0.000739
 2130 Fit       0.001271
 2131 Fit       0.000845
 2132 Fit      -0.001842
 2133 Fit      -0.000908
 2134 Fit       0.002099
 2135 Fit       0.001660
 2136 Fit       0.000969
 2137 Fit      -0.000205
 2138 Fit      -0.000431
 2139 Fit      -0.000091
 2140 Fit       0.003326
 2141 Fit       0.001118
 2142 Fit       0.000014
 2143 Fit      -0.000023
 2144 Fit       0.000778
 2145 Fit       0.000523
 2146 Fit       0.000608
 2147 Fit      -0.000455
 2148 Fit      -0.000284
 2149 Fit       0.000353
 2150 Fit       0.000741
 2151 Fit       0.000696
 2152 Fit       0.000348
 2153 Fit      -0.003576
 2154 Fit       0.000035
 2155 Fit      -0.000238
 2156 Fit       0.000924
 2157 Fit       0.001243
 2158 Fit      -0.001577
 2159 Fit      -0.001659
 2160 Fit       0.001119
 2161 Fit       0.001617
 2162 Fit      -0.002873
 2163 Fit       0.000480
 2164 Fit      -0.002767
 2165 Fit      -0.002573
 2166 Fit      -0.000651
 2167 Fit      -0.001039
 2168 Fit       0.000611
 2169 Fit       0.000043
 2170 Fit       0.000652
 2171 Fit       0.000176
 2172 Fit       0.000076
 2173 Fit      -0.000098
 2174 Fit      -0.000510
 2175 Fit      -0.000103
 2176 Fit      -0.000274
 2177 Fit      -0.000154
 2178 Fit      -0.000091
 2179 Fit       0.000181
 2180 Fit       0.000455
 2181 Fit      -0.000431
 2182 Fit      -0.000612
 2183 Fit       0.000056
 2184 Fit       0.000440
 2185 Fit       0.000690
 2186 Fit       0.000278
 2187 Fit      -0.002976
 2188 Fit      -0.003126
 2189 Fit      -0.002738
 2190 Fit      -0.002695
 2191 Fit      -0.003216
 2192 Fit      -0.002438
 2193 Fit      -0.002521
 2194 Fit      -0.002852
 2195 Fit      -0.003133
 2196 Fit      -0.002594
 2197 Fit      -0.002271
 2198 Fit      -0.001996
 2199 Fit      -0.001550
 2200 Fit      -0.001210
 2201 Fit      -0.000034
 2202 Fit      -0.000049
 2203 Fit       0.000962
 2204 Fit       0.000375
 2205 Fit      -0.000754
 2206 Fit      -0.001487
 2207 Fit      -0.001303
 2208 Fit       0.001666
 2209 Fit       0.000689
 2210 Fit      -0.000549
 2211 Fit      -0.001569
 2212 Fit      -0.002459
 2213 Fit      -0.002647
 2214 Fit      -0.001973
 2215 Fit      -0.001809
 2216 Fit      -0.002221
 2217 Fit      -0.000902
 2218 Fit      -0.000169
 2219 Fit      -0.000254
 2220 Fit      -0.001105
 2221 Fit       0.001119
 2222 Fit       0.000790
 2223 Fit      -0.000167
 2224 Fit      -0.001599
 2225 Fit       0.001411
 2226 Fit       0.000544
 2227 Fit      -0.000877
 2228 Fit       0.000579
 2229 Fit      -0.000721
 2230 Fit      -0.002665
 2231 Fit      -0.002357
 2232 Fit      -0.002019
 2233 Fit      -0.000865
 2234 Fit      -0.000669
 2235 Fit      -0.001611
 2236 Fit      -0.001335
 2237 Fit      -0.000117
 2238 Fit       0.000454
 2239 Fit       0.000563
 2240 Fit      -0.001258
 2241 Fit      -0.000013
 2242 Fit       0.000669
 2243 Fit       0.001118
 2244 Fit      -0.001625
 2245 Fit      -0.000368
 2246 Fit       0.000286
 2247 Fit      -0.002284
 2248 Fit      -0.002272
 2249 Fit      -0.000166
 2250 Fit      -0.001299
 2251 Fit      -0.002008
 2252 Fit      -0.002441
 2253 Fit      -0.002325
 2254 Fit      -0.001882
 2255 Fit      -0.002443
 2256 Fit      -0.001767
 2257 Fit      -0.001529
 2258 Fit      -0.001381
 2259 Fit      -0.001190
 2260 Fit       0.001672
 2261 Fit       0.001902
 2262 Fit       0.001492
 2263 Fit       0.000921
 2264 Fit       0.000502
 2265 Fit       0.000913
 2266 Fit       0.000757
 2267 Fit       0.000328
 2268 Fit      -0.000415
 2269 Fit      -0.001298
 2270 Fit      -0.000229
 2271 Fit      -0.000335
 2272 Fit      -0.000624
 2273 Fit      -0.001131
 2274 Fit      -0.001809
 2275 Fit      -0.001418
 2276 Fit      -0.001150
 2277 Fit      -0.000025
 2278 Fit       0.000736
 2279 Fit      -0.001909
 2280 Fit      -0.000410
 2281 Fit       0.000751
 2282 Fit       0.001434
 2283 Fit      -0.001690
 2284 Fit      -0.000218
 2285 Fit       0.000824
 2286 Fit       0.001085
 2287 Fit       0.000506
 2288 Fit      -0.001010
 2289 Fit      -0.000088
 2290 Fit      -0.000590
 2291 Fit       0.000725
 2292 Fit      -0.001036
 2293 Fit       0.002124
 2294 Fit       0.000277
 2295 Fit      -0.001407
 2296 Fit       0.002754
 2297 Fit       0.001478
 2298 Fit      -0.000171
 2299 Fit       0.000677
 2300 Fit       0.001016
 2301 Fit      -0.000467
 2302 Fit      -0.000550
 2303 Fit      -0.000170
 -----------------------------------------------------------------
 Leave Link  602 at Thu Apr 27 15:13:07 2017, MaxMem=    33554432 cpu:         4.1
 (Enter /home/michal/g09/l9999.exe)

 Test job not archived.
 1\1\GINC-LINUX\SP\RHF\6-31G(d)\C27H46O3\MICHAL\27-Apr-2017\0\\#P HF/6-
 31G* SCF(Conver=6) NoSymm Test Pop=mk IOp(6/33=2) GFInput GFPrint\\MEP
  - Input generated by R.E.D.-III.x MOLECULE\\0,1\C,0,7.51749826,2.2151
 3592,0.06869476\H,0,7.35560269,2.18417256,1.15312218\C,0,6.82215141,1.
 00737742,-0.57557973\H,0,7.20522803,0.08099345,-0.13604297\H,0,7.10345
 305,0.99210621,-1.641151\C,0,5.31127757,1.06233579,-0.45374457\C,0,4.6
 1626141,2.36057234,-0.87866776\C,0,5.4098762,3.56480342,-0.28220354\H,
 0,5.2116998,3.60662033,0.79786485\H,0,5.02430499,4.49868104,-0.7041934
 7\C,0,6.93125671,3.51093642,-0.48957117\H,0,7.17686015,3.58334399,-1.5
 5956925\H,0,7.40582518,4.36892734,0.\C,0,4.63254351,0.,0.\H,0,5.176744
 11,-0.89065809,0.31602486\C,0,3.13945797,-0.09981266,0.10918762\H,0,2.
 85601469,-0.1929858,1.17025646\C,0,2.37492012,1.068549,-0.53155854\H,0
 ,2.31697438,0.85618306,-1.60464621\C,0,3.15615652,2.39285204,-0.305555
 66\H,0,3.2716505,2.49370918,0.78648388\C,0,2.33972676,3.61667549,-0.77
 928648\H,0,2.29029764,3.62744318,-1.87354466\H,0,2.85744701,4.5380808,
 -0.49097114\C,0,0.90509852,3.67102782,-0.21935063\H,0,0.94397058,3.811
 22592,0.87070742\H,0,0.4080192,4.55607919,-0.62822202\C,0,0.11874486,2
 .38001769,-0.52293319\C,0,0.95713526,1.20137619,0.05258239\H,0,1.09597
 493,1.44467255,1.12096116\C,0,0.,0.,0.\H,0,0.27465491,-0.78598596,0.70
 807457\H,0,0.01656353,-0.46399219,-0.99145338\C,0,-1.38657051,0.623637
 74,0.31322803\H,0,-2.1341871,0.30047171,-0.42125167\H,0,-1.75479024,0.
 29677467,1.29043957\C,0,-1.21893868,2.18075567,0.27224267\H,0,-1.01670
 306,2.52822162,1.29820351\C,0,-0.13275662,2.235139,-2.04166936\H,0,0.7
 9594635,2.15775002,-2.61261844\H,0,-0.72682384,1.34666931,-2.27429789\
 H,0,-0.67803077,3.10270464,-2.42762549\C,0,-2.50689864,2.90706764,-0.1
 9693525\H,0,-2.76497195,2.51993757,-1.1945356\C,0,-2.34055186,4.433233
 74,-0.30734399\H,0,-1.98797545,4.85819649,0.64095789\H,0,-3.28945667,4
 .91857509,-0.55433462\H,0,-1.62787664,4.71651175,-1.08505664\C,0,4.630
 29448,2.44119949,-2.42844778\H,0,4.27675879,3.41576966,-2.77893287\H,0
 ,5.63890469,2.30246555,-2.82735379\H,0,3.99881936,1.66475069,-2.869749
 84\O,0,2.6861748,-1.39292792,-0.36594793\O,0,2.93513826,-1.48952217,-1
 .79944464\H,0,3.73021972,-2.04719553,-1.81218598\O,0,8.93868097,2.1472
 3609,-0.07455856\H,0,9.1584829,2.20113641,-1.01529183\C,0,-3.68778898,
 2.56342665,0.74548008\H,0,-3.70035762,1.48411852,0.9338274\H,0,-3.5090
 5741,3.03980183,1.7219198\C,0,-5.08060738,2.96386274,0.23247342\H,0,-5
 .131692,4.04814974,0.08446897\H,0,-5.24288235,2.50891197,-0.75622154\C
 ,0,-6.20706909,2.52209508,1.17907952\H,0,-6.07034967,3.00623712,2.1583
 9225\H,0,-6.1089921,1.44196971,1.35929432\C,0,-7.63991631,2.80339873,0
 .68228817\H,0,-7.74156014,2.34585187,-0.31408647\C,0,-8.67116404,2.139
 65304,1.6088162\H,0,-8.61223193,2.5580252,2.62189151\H,0,-9.69293974,2
 .2963223,1.24457976\H,0,-8.50361916,1.05918109,1.68498578\C,0,-7.93331
 339,4.30610331,0.54263808\H,0,-7.81801308,4.8155207,1.50836337\H,0,-8.
 96096035,4.47390057,0.2005454\H,0,-7.26458397,4.79313118,-0.1740417\\V
 ersion=EM64L-G09RevD.01\HF=-1273.6849483\RMSD=5.165e-07\Dipole=0.27943
 42,0.4682064,-0.4401967\Quadrupole=-5.4021546,2.801975,2.6001796,-0.13
 6612,-10.2330311,-2.3179765\PG=C01 [X(C27H46O3)]\\@


 MAN IS THE MEASURE OF ALL THINGS.
  -- PROTAGORAS (5TH CENTURY B.C.)
 Job cpu time:       0 days  0 hours 11 minutes 47.1 seconds.
 File lengths (MBytes):  RWF=    159 Int=      0 D2E=      0 Chk=     11 Scr=      1
 Normal termination of Gaussian 09 at Thu Apr 27 15:13:07 2017.
