 Entering Gaussian System, Link 0=g09
 Input=1HPP_mp2qz_004.com
 Output=1HPP_mp2qz_004.log
 Initial command:
 /home/michal/g09/l1.exe "/home/michal/gauss_scratch/Gau-9656.inp" -scrdir="/home/michal/gauss_scratch/"
 Entering Link 1 = /home/michal/g09/l1.exe PID=      9657.
  
 Copyright (c) 1988,1990,1992,1993,1995,1998,2003,2009,2013,
            Gaussian, Inc.  All Rights Reserved.
  
 This is part of the Gaussian(R) 09 program.  It is based on
 the Gaussian(R) 03 system (copyright 2003, Gaussian, Inc.),
 the Gaussian(R) 98 system (copyright 1998, Gaussian, Inc.),
 the Gaussian(R) 94 system (copyright 1995, Gaussian, Inc.),
 the Gaussian 92(TM) system (copyright 1992, Gaussian, Inc.),
 the Gaussian 90(TM) system (copyright 1990, Gaussian, Inc.),
 the Gaussian 88(TM) system (copyright 1988, Gaussian, Inc.),
 the Gaussian 86(TM) system (copyright 1986, Carnegie Mellon
 University), and the Gaussian 82(TM) system (copyright 1983,
 Carnegie Mellon University). Gaussian is a federally registered
 trademark of Gaussian, Inc.
  
 This software contains proprietary and confidential information,
 including trade secrets, belonging to Gaussian, Inc.
  
 This software is provided under written license and may be
 used, copied, transmitted, or stored only in accord with that
 written license.
  
 The following legend is applicable only to US Government
 contracts under FAR:
  
                    RESTRICTED RIGHTS LEGEND
  
 Use, reproduction and disclosure by the US Government is
 subject to restrictions as set forth in subparagraphs (a)
 and (c) of the Commercial Computer Software - Restricted
 Rights clause in FAR 52.227-19.
  
 Gaussian, Inc.
 340 Quinnipiac St., Bldg. 40, Wallingford CT 06492
  
  
 ---------------------------------------------------------------
 Warning -- This program may not be used in any manner that
 competes with the business of Gaussian, Inc. or will provide
 assistance to any competitor of Gaussian, Inc.  The licensee
 of this program is prohibited from giving any competitor of
 Gaussian, Inc. access to this program.  By using this program,
 the user acknowledges that Gaussian, Inc. is engaged in the
 business of creating and licensing software in the field of
 computational chemistry and represents and warrants to the
 licensee that it is not a competitor of Gaussian, Inc. and that
 it will not use this program in any manner prohibited above.
 ---------------------------------------------------------------
  

 Cite this work as:
 Gaussian 09, Revision D.01,
 M. J. Frisch, G. W. Trucks, H. B. Schlegel, G. E. Scuseria, 
 M. A. Robb, J. R. Cheeseman, G. Scalmani, V. Barone, B. Mennucci, 
 G. A. Petersson, H. Nakatsuji, M. Caricato, X. Li, H. P. Hratchian, 
 A. F. Izmaylov, J. Bloino, G. Zheng, J. L. Sonnenberg, M. Hada, 
 M. Ehara, K. Toyota, R. Fukuda, J. Hasegawa, M. Ishida, T. Nakajima, 
 Y. Honda, O. Kitao, H. Nakai, T. Vreven, J. A. Montgomery, Jr., 
 J. E. Peralta, F. Ogliaro, M. Bearpark, J. J. Heyd, E. Brothers, 
 K. N. Kudin, V. N. Staroverov, T. Keith, R. Kobayashi, J. Normand, 
 K. Raghavachari, A. Rendell, J. C. Burant, S. S. Iyengar, J. Tomasi, 
 M. Cossi, N. Rega, J. M. Millam, M. Klene, J. E. Knox, J. B. Cross, 
 V. Bakken, C. Adamo, J. Jaramillo, R. Gomperts, R. E. Stratmann, 
 O. Yazyev, A. J. Austin, R. Cammi, C. Pomelli, J. W. Ochterski, 
 R. L. Martin, K. Morokuma, V. G. Zakrzewski, G. A. Voth, 
 P. Salvador, J. J. Dannenberg, S. Dapprich, A. D. Daniels, 
 O. Farkas, J. B. Foresman, J. V. Ortiz, J. Cioslowski, 
 and D. J. Fox, Gaussian, Inc., Wallingford CT, 2013.
 
 ******************************************
 Gaussian 09:  EM64L-G09RevD.01 24-Apr-2013
                21-Dec-2017 
 ******************************************
 %Mem=26GB
 %NProc=12
 Will use up to   12 processors via shared memory.
 %RWF=/home/michal/Cholesterol_grant/peroxy_params,20GB
 ------------------------
 #P MP2/cc-pVQZ SP Nosymm
 ------------------------
 1/38=1/1;
 2/12=2,15=1,17=6,18=5,40=1/2;
 3/5=16,6=2,11=9,16=1,25=1,30=1/1,2,3;
 4//1;
 5/5=2,38=5/2;
 8/10=1/1;
 9/16=-3/6;
 6/7=2,8=2,9=2,10=2/1;
 99/5=1,9=1/99;
 Leave Link    1 at Thu Dec 21 16:32:32 2017, MaxMem=  3489660928 cpu:         0.3
 (Enter /home/michal/g09/l101.exe)
 ------
 PEscan
 ------
 Symbolic Z-matrix:
 Charge =  0 Multiplicity = 1
 C                    -0.56722  -1.0338   -3.64636 
 C                    -0.04558  -0.36476  -2.38385 
 O                     0.837    -1.29693  -1.75805 
 O                     0.77244  -1.04594  -0.32162 
 H                     0.44202  -1.91745  -0.04735 
 H                    -1.14286  -1.93692  -3.39099 
 H                     0.48629   0.57959  -2.60605 
 H                    -0.87466  -0.14018  -1.69231 
 H                    -1.21811  -0.33922  -4.20221 
 H                     0.26581  -1.32651  -4.30563 
 
 NAtoms=     10 NQM=       10 NQMF=       0 NMMI=      0 NMMIF=      0
                NMic=       0 NMicF=      0.
                    Isotopes and Nuclear Properties:
 (Nuclear quadrupole moments (NQMom) in fm**2, nuclear magnetic moments (NMagM)
  in nuclear magnetons)

  Atom         1           2           3           4           5           6           7           8           9          10
 IAtWgt=          12          12          16          16           1           1           1           1           1           1
 AtmWgt=  12.0000000  12.0000000  15.9949146  15.9949146   1.0078250   1.0078250   1.0078250   1.0078250   1.0078250   1.0078250
 NucSpn=           0           0           0           0           1           1           1           1           1           1
 AtZEff=   0.0000000   0.0000000   0.0000000   0.0000000   0.0000000   0.0000000   0.0000000   0.0000000   0.0000000   0.0000000
 NQMom=    0.0000000   0.0000000   0.0000000   0.0000000   0.0000000   0.0000000   0.0000000   0.0000000   0.0000000   0.0000000
 NMagM=    0.0000000   0.0000000   0.0000000   0.0000000   2.7928460   2.7928460   2.7928460   2.7928460   2.7928460   2.7928460
 AtZNuc=   6.0000000   6.0000000   8.0000000   8.0000000   1.0000000   1.0000000   1.0000000   1.0000000   1.0000000   1.0000000
 Leave Link  101 at Thu Dec 21 16:32:32 2017, MaxMem=  3489660928 cpu:         0.5
 (Enter /home/michal/g09/l202.exe)
                          Input orientation:                          
 ---------------------------------------------------------------------
 Center     Atomic      Atomic             Coordinates (Angstroms)
 Number     Number       Type             X           Y           Z
 ---------------------------------------------------------------------
      1          6           0       -0.567220   -1.033800   -3.646360
      2          6           0       -0.045580   -0.364760   -2.383850
      3          8           0        0.837000   -1.296930   -1.758050
      4          8           0        0.772440   -1.045940   -0.321620
      5          1           0        0.442020   -1.917450   -0.047350
      6          1           0       -1.142860   -1.936920   -3.390990
      7          1           0        0.486290    0.579590   -2.606050
      8          1           0       -0.874660   -0.140180   -1.692310
      9          1           0       -1.218110   -0.339220   -4.202210
     10          1           0        0.265810   -1.326510   -4.305630
 ---------------------------------------------------------------------
                    Distance matrix (angstroms):
                    1          2          3          4          5
     1  C    0.000000
     2  C    1.521070   0.000000
     3  O    2.367865   1.428116   0.000000
     4  O    3.584513   2.320766   1.459622   0.000000
     5  H    3.840869   2.847426   1.862136   0.971561   0.000000
     6  H    1.101000   2.165650   2.644981   3.726024   3.700291
     7  H    2.189784   1.106370   2.088882   2.818306   3.575488
     8  H    2.170573   1.102741   2.066923   2.326399   2.756488
     9  H    1.102301   2.163773   3.333857   4.418226   4.744439
    10  H    1.101932   2.171443   2.610995   4.025882   4.302698
                    6          7          8          9         10
     6  H    0.000000
     7  H    3.098884   0.000000
     8  H    2.487111   1.790300   0.000000
     9  H    1.793428   2.509366   2.541097   0.000000
    10  H    1.787042   2.563279   3.088283   1.785345   0.000000
 Symmetry turned off by external request.
 Stoichiometry    C2H6O2
 Framework group  C1[X(C2H6O2)]
 Deg. of freedom    24
 Full point group                 C1      NOp   1
 Rotational constants (GHZ):     27.2123338      4.1919183      3.9915341
 Leave Link  202 at Thu Dec 21 16:32:32 2017, MaxMem=  3489660928 cpu:         0.0
 (Enter /home/michal/g09/l301.exe)
 Standard basis: CC-pVQZ (5D, 7F)
 Ernie: Thresh=  0.10000D-02 Tol=  0.10000D-05 Strict=F.
 Ernie:  12 primitive shells out of 204 were deleted.
   400 basis functions,   578 primitive gaussians,   490 cartesian basis functions
    17 alpha electrons       17 beta electrons
       nuclear repulsion energy       130.6623176978 Hartrees.
 IExCor=    0 DFT=F Ex=HF Corr=None ExCW=0 ScaHFX=  1.000000
 ScaDFX=  1.000000  1.000000  1.000000  1.000000 ScalE2=  1.000000  1.000000
 IRadAn=      0 IRanWt=     -1 IRanGd=            0 ICorTp=0 IEmpDi=  4
 NAtoms=   10 NActive=   10 NUniq=   10 SFac= 1.00D+00 NAtFMM=   60 NAOKFM=F Big=F
 Integral buffers will be    131072 words long.
 Raffenetti 1 integral format.
 Two-electron integral symmetry is turned off.
 Leave Link  301 at Thu Dec 21 16:32:32 2017, MaxMem=  3489660928 cpu:         0.3
 (Enter /home/michal/g09/l302.exe)
 NPDir=0 NMtPBC=     1 NCelOv=     1 NCel=       1 NClECP=     1 NCelD=      1
         NCelK=      1 NCelE2=     1 NClLst=     1 CellRange=     0.0.
 One-electron integrals computed using PRISM.
 NBasis=   400 RedAO= T EigKep=  1.38D-04  NBF=   400
 NBsUse=   400 1.00D-06 EigRej= -1.00D+00 NBFU=   400
 Leave Link  302 at Thu Dec 21 16:32:33 2017, MaxMem=  3489660928 cpu:         6.1
 (Enter /home/michal/g09/l303.exe)
 DipDrv:  MaxL=1.
 Leave Link  303 at Thu Dec 21 16:32:33 2017, MaxMem=  3489660928 cpu:         0.5
 (Enter /home/michal/g09/l401.exe)
 ExpMin= 8.99D-02 ExpMax= 6.14D+04 ExpMxC= 5.91D+02 IAcc=2 IRadAn=         4 AccDes= 0.00D+00
 Harris functional with IExCor=  205 and IRadAn=       4 diagonalized for initial guess.
 HarFok:  IExCor=  205 AccDes= 0.00D+00 IRadAn=         4 IDoV= 1 UseB2=F ITyADJ=14
 ICtDFT=  3500011 ScaDFX=  1.000000  1.000000  1.000000  1.000000
 FoFCou: FMM=F IPFlag=           0 FMFlag=      100000 FMFlg1=           0
         NFxFlg=           0 DoJE=T BraDBF=F KetDBF=T FulRan=T
         wScrn=  0.000000 ICntrl=     500 IOpCl=  0 I1Cent=   200000004 NGrid=           0
         NMat0=    1 NMatS0=      1 NMatT0=    0 NMatD0=    1 NMtDS0=    0 NMtDT0=    0
 Symmetry not used in FoFCou.
 Harris En= -229.244006568428    
 JPrj=0 DoOrth=F DoCkMO=F.
 Leave Link  401 at Thu Dec 21 16:32:34 2017, MaxMem=  3489660928 cpu:        11.4
 (Enter /home/michal/g09/l502.exe)
 Closed shell SCF:
 Using DIIS extrapolation, IDIIS=  1040.
 Two-electron integral symmetry not used.
 Keep R1 ints in memory in canonical form, NReq=3275992930.
 IVT=      747690 IEndB=      747690 NGot=  3489660928 MDV=   272853139
 LenX=   272853139 LenY=   272612549
 Requested convergence on RMS density matrix=1.00D-08 within 128 cycles.
 Requested convergence on MAX density matrix=1.00D-06.
 Requested convergence on             energy=1.00D-06.
 No special actions if energy rises.
 FoFCou: FMM=F IPFlag=           0 FMFlag=           0 FMFlg1=           0
         NFxFlg=           0 DoJE=F BraDBF=F KetDBF=F FulRan=T
         wScrn=  0.000000 ICntrl=     600 IOpCl=  0 I1Cent=           0 NGrid=           0
         NMat0=    1 NMatS0=  80200 NMatT0=    0 NMatD0=    1 NMtDS0=    0 NMtDT0=    0
 Symmetry not used in FoFCou.

 Cycle   1  Pass 1  IDiag  1:
 E= -228.741577657919    
 DIIS: error= 3.54D-02 at cycle   1 NSaved=   1.
 NSaved= 1 IEnMin= 1 EnMin= -228.741577657919     IErMin= 1 ErrMin= 3.54D-02
 ErrMax= 3.54D-02  0.00D+00 EMaxC= 1.00D-01 BMatC= 4.77D-01 BMatP= 4.77D-01
 IDIUse=3 WtCom= 6.46D-01 WtEn= 3.54D-01
 Coeff-Com:  0.100D+01
 Coeff-En:   0.100D+01
 Coeff:      0.100D+01
 Gap=     0.700 Goal=   None    Shift=    0.000
 GapD=    0.700 DampG=2.000 DampE=0.500 DampFc=1.0000 IDamp=-1.
 RMSDP=7.61D-04 MaxDP=3.66D-02              OVMax= 1.17D-01

 Cycle   2  Pass 1  IDiag  1:
 E= -228.911626934945     Delta-E=       -0.170049277026 Rises=F Damp=F
 DIIS: error= 1.10D-02 at cycle   2 NSaved=   2.
 NSaved= 2 IEnMin= 2 EnMin= -228.911626934945     IErMin= 2 ErrMin= 1.10D-02
 ErrMax= 1.10D-02  0.00D+00 EMaxC= 1.00D-01 BMatC= 3.54D-02 BMatP= 4.77D-01
 IDIUse=3 WtCom= 8.90D-01 WtEn= 1.10D-01
 Coeff-Com:  0.122D+00 0.878D+00
 Coeff-En:   0.000D+00 0.100D+01
 Coeff:      0.108D+00 0.892D+00
 Gap=     0.620 Goal=   None    Shift=    0.000
 RMSDP=3.20D-04 MaxDP=1.83D-02 DE=-1.70D-01 OVMax= 4.48D-02

 Cycle   3  Pass 1  IDiag  1:
 E= -228.937427265344     Delta-E=       -0.025800330399 Rises=F Damp=F
 DIIS: error= 3.32D-03 at cycle   3 NSaved=   3.
 NSaved= 3 IEnMin= 3 EnMin= -228.937427265344     IErMin= 3 ErrMin= 3.32D-03
 ErrMax= 3.32D-03  0.00D+00 EMaxC= 1.00D-01 BMatC= 3.78D-03 BMatP= 3.54D-02
 IDIUse=3 WtCom= 9.67D-01 WtEn= 3.32D-02
 Coeff-Com: -0.205D-01 0.212D+00 0.808D+00
 Coeff-En:   0.000D+00 0.000D+00 0.100D+01
 Coeff:     -0.198D-01 0.205D+00 0.815D+00
 Gap=     0.559 Goal=   None    Shift=    0.000
 RMSDP=7.37D-05 MaxDP=4.25D-03 DE=-2.58D-02 OVMax= 1.12D-02

 Cycle   4  Pass 1  IDiag  1:
 E= -228.940438814364     Delta-E=       -0.003011549021 Rises=F Damp=F
 DIIS: error= 5.15D-04 at cycle   4 NSaved=   4.
 NSaved= 4 IEnMin= 4 EnMin= -228.940438814364     IErMin= 4 ErrMin= 5.15D-04
 ErrMax= 5.15D-04  0.00D+00 EMaxC= 1.00D-01 BMatC= 1.99D-04 BMatP= 3.78D-03
 IDIUse=3 WtCom= 9.95D-01 WtEn= 5.15D-03
 Coeff-Com: -0.847D-02 0.452D-01 0.252D+00 0.711D+00
 Coeff-En:   0.000D+00 0.000D+00 0.000D+00 0.100D+01
 Coeff:     -0.843D-02 0.450D-01 0.251D+00 0.713D+00
 Gap=     0.554 Goal=   None    Shift=    0.000
 RMSDP=1.89D-05 MaxDP=8.73D-04 DE=-3.01D-03 OVMax= 2.78D-03

 Cycle   5  Pass 1  IDiag  1:
 E= -228.940580208982     Delta-E=       -0.000141394617 Rises=F Damp=F
 DIIS: error= 3.18D-04 at cycle   5 NSaved=   5.
 NSaved= 5 IEnMin= 5 EnMin= -228.940580208982     IErMin= 5 ErrMin= 3.18D-04
 ErrMax= 3.18D-04  0.00D+00 EMaxC= 1.00D-01 BMatC= 1.68D-05 BMatP= 1.99D-04
 IDIUse=3 WtCom= 9.97D-01 WtEn= 3.18D-03
 Coeff-Com:  0.186D-02-0.265D-01-0.878D-01 0.102D+00 0.101D+01
 Coeff-En:   0.000D+00 0.000D+00 0.000D+00 0.000D+00 0.100D+01
 Coeff:      0.185D-02-0.264D-01-0.875D-01 0.102D+00 0.101D+01
 Gap=     0.556 Goal=   None    Shift=    0.000
 RMSDP=1.19D-05 MaxDP=5.00D-04 DE=-1.41D-04 OVMax= 1.64D-03

 Cycle   6  Pass 1  IDiag  1:
 E= -228.940604470008     Delta-E=       -0.000024261026 Rises=F Damp=F
 DIIS: error= 4.91D-05 at cycle   6 NSaved=   6.
 NSaved= 6 IEnMin= 6 EnMin= -228.940604470008     IErMin= 6 ErrMin= 4.91D-05
 ErrMax= 4.91D-05  0.00D+00 EMaxC= 1.00D-01 BMatC= 8.08D-07 BMatP= 1.68D-05
 IDIUse=1 WtCom= 1.00D+00 WtEn= 0.00D+00
 Coeff-Com:  0.642D-03-0.499D-02-0.197D-01-0.439D-01 0.641D-01 0.100D+01
 Coeff:      0.642D-03-0.499D-02-0.197D-01-0.439D-01 0.641D-01 0.100D+01
 Gap=     0.556 Goal=   None    Shift=    0.000
 RMSDP=3.03D-06 MaxDP=1.39D-04 DE=-2.43D-05 OVMax= 3.60D-04

 Cycle   7  Pass 1  IDiag  1:
 E= -228.940605936976     Delta-E=       -0.000001466969 Rises=F Damp=F
 DIIS: error= 1.65D-05 at cycle   7 NSaved=   7.
 NSaved= 7 IEnMin= 7 EnMin= -228.940605936976     IErMin= 7 ErrMin= 1.65D-05
 ErrMax= 1.65D-05  0.00D+00 EMaxC= 1.00D-01 BMatC= 7.88D-08 BMatP= 8.08D-07
 IDIUse=1 WtCom= 1.00D+00 WtEn= 0.00D+00
 Coeff-Com: -0.172D-04 0.968D-03 0.298D-02-0.128D-01-0.592D-01 0.105D+00
 Coeff-Com:  0.964D+00
 Coeff:     -0.172D-04 0.968D-03 0.298D-02-0.128D-01-0.592D-01 0.105D+00
 Coeff:      0.964D+00
 Gap=     0.556 Goal=   None    Shift=    0.000
 RMSDP=8.55D-07 MaxDP=4.02D-05 DE=-1.47D-06 OVMax= 1.26D-04

 Cycle   8  Pass 1  IDiag  1:
 E= -228.940606091349     Delta-E=       -0.000000154372 Rises=F Damp=F
 DIIS: error= 4.09D-06 at cycle   8 NSaved=   8.
 NSaved= 8 IEnMin= 8 EnMin= -228.940606091349     IErMin= 8 ErrMin= 4.09D-06
 ErrMax= 4.09D-06  0.00D+00 EMaxC= 1.00D-01 BMatC= 1.30D-08 BMatP= 7.88D-08
 IDIUse=1 WtCom= 1.00D+00 WtEn= 0.00D+00
 Coeff-Com: -0.824D-04 0.664D-03 0.266D-02 0.701D-02-0.704D-02-0.152D+00
 Coeff-Com:  0.454D-01 0.110D+01
 Coeff:     -0.824D-04 0.664D-03 0.266D-02 0.701D-02-0.704D-02-0.152D+00
 Coeff:      0.454D-01 0.110D+01
 Gap=     0.556 Goal=   None    Shift=    0.000
 RMSDP=4.15D-07 MaxDP=1.58D-05 DE=-1.54D-07 OVMax= 7.90D-05

 Cycle   9  Pass 1  IDiag  1:
 E= -228.940606125268     Delta-E=       -0.000000033920 Rises=F Damp=F
 DIIS: error= 1.45D-06 at cycle   9 NSaved=   9.
 NSaved= 9 IEnMin= 9 EnMin= -228.940606125268     IErMin= 9 ErrMin= 1.45D-06
 ErrMax= 1.45D-06  0.00D+00 EMaxC= 1.00D-01 BMatC= 1.73D-09 BMatP= 1.30D-08
 IDIUse=1 WtCom= 1.00D+00 WtEn= 0.00D+00
 Coeff-Com:  0.198D-04-0.242D-03-0.967D-03-0.344D-03 0.883D-02 0.237D-01
 Coeff-Com: -0.113D+00-0.297D+00 0.138D+01
 Coeff:      0.198D-04-0.242D-03-0.967D-03-0.344D-03 0.883D-02 0.237D-01
 Coeff:     -0.113D+00-0.297D+00 0.138D+01
 Gap=     0.556 Goal=   None    Shift=    0.000
 RMSDP=2.04D-07 MaxDP=9.75D-06 DE=-3.39D-08 OVMax= 4.93D-05

 Cycle  10  Pass 1  IDiag  1:
 E= -228.940606132543     Delta-E=       -0.000000007275 Rises=F Damp=F
 DIIS: error= 5.44D-07 at cycle  10 NSaved=  10.
 NSaved=10 IEnMin=10 EnMin= -228.940606132543     IErMin=10 ErrMin= 5.44D-07
 ErrMax= 5.44D-07  0.00D+00 EMaxC= 1.00D-01 BMatC= 2.89D-10 BMatP= 1.73D-09
 IDIUse=1 WtCom= 1.00D+00 WtEn= 0.00D+00
 Coeff-Com:  0.727D-05-0.511D-04-0.195D-03-0.895D-03-0.544D-03 0.159D-01
 Coeff-Com:  0.159D-01-0.107D+00-0.234D+00 0.131D+01
 Coeff:      0.727D-05-0.511D-04-0.195D-03-0.895D-03-0.544D-03 0.159D-01
 Coeff:      0.159D-01-0.107D+00-0.234D+00 0.131D+01
 Gap=     0.556 Goal=   None    Shift=    0.000
 RMSDP=8.91D-08 MaxDP=4.40D-06 DE=-7.27D-09 OVMax= 2.46D-05

 Cycle  11  Pass 1  IDiag  1:
 E= -228.940606133868     Delta-E=       -0.000000001325 Rises=F Damp=F
 DIIS: error= 2.79D-07 at cycle  11 NSaved=  11.
 NSaved=11 IEnMin=11 EnMin= -228.940606133868     IErMin=11 ErrMin= 2.79D-07
 ErrMax= 2.79D-07  0.00D+00 EMaxC= 1.00D-01 BMatC= 5.52D-11 BMatP= 2.89D-10
 IDIUse=1 WtCom= 1.00D+00 WtEn= 0.00D+00
 Coeff-Com: -0.412D-05 0.491D-04 0.203D-03 0.237D-03-0.154D-02-0.795D-02
 Coeff-Com:  0.219D-01 0.764D-01-0.280D+00-0.542D-01 0.125D+01
 Coeff:     -0.412D-05 0.491D-04 0.203D-03 0.237D-03-0.154D-02-0.795D-02
 Coeff:      0.219D-01 0.764D-01-0.280D+00-0.542D-01 0.125D+01
 Gap=     0.556 Goal=   None    Shift=    0.000
 RMSDP=3.98D-08 MaxDP=1.87D-06 DE=-1.33D-09 OVMax= 1.15D-05

 Cycle  12  Pass 1  IDiag  1:
 E= -228.940606134107     Delta-E=       -0.000000000238 Rises=F Damp=F
 DIIS: error= 8.98D-08 at cycle  12 NSaved=  12.
 NSaved=12 IEnMin=12 EnMin= -228.940606134107     IErMin=12 ErrMin= 8.98D-08
 ErrMax= 8.98D-08  0.00D+00 EMaxC= 1.00D-01 BMatC= 5.86D-12 BMatP= 5.52D-11
 IDIUse=1 WtCom= 1.00D+00 WtEn= 0.00D+00
 Coeff-Com: -0.855D-06 0.344D-05 0.141D-04 0.164D-03 0.273D-03-0.253D-02
 Coeff-Com: -0.394D-02 0.160D-01 0.441D-01-0.184D+00-0.129D+00 0.126D+01
 Coeff:     -0.855D-06 0.344D-05 0.141D-04 0.164D-03 0.273D-03-0.253D-02
 Coeff:     -0.394D-02 0.160D-01 0.441D-01-0.184D+00-0.129D+00 0.126D+01
 Gap=     0.556 Goal=   None    Shift=    0.000
 RMSDP=1.38D-08 MaxDP=6.11D-07 DE=-2.38D-10 OVMax= 4.04D-06

 Cycle  13  Pass 1  IDiag  1:
 E= -228.940606134127     Delta-E=       -0.000000000021 Rises=F Damp=F
 DIIS: error= 2.09D-08 at cycle  13 NSaved=  13.
 NSaved=13 IEnMin=13 EnMin= -228.940606134127     IErMin=13 ErrMin= 2.09D-08
 ErrMax= 2.09D-08  0.00D+00 EMaxC= 1.00D-01 BMatC= 3.51D-13 BMatP= 5.86D-12
 IDIUse=1 WtCom= 1.00D+00 WtEn= 0.00D+00
 Coeff-Com:  0.416D-06-0.444D-05-0.175D-04-0.362D-04 0.758D-04 0.928D-03
 Coeff-Com: -0.128D-02-0.785D-02 0.170D-01 0.312D-01-0.887D-01-0.161D+00
 Coeff-Com:  0.121D+01
 Coeff:      0.416D-06-0.444D-05-0.175D-04-0.362D-04 0.758D-04 0.928D-03
 Coeff:     -0.128D-02-0.785D-02 0.170D-01 0.312D-01-0.887D-01-0.161D+00
 Coeff:      0.121D+01
 Gap=     0.556 Goal=   None    Shift=    0.000
 RMSDP=2.94D-09 MaxDP=1.24D-07 DE=-2.05D-11 OVMax= 6.77D-07

 SCF Done:  E(RHF) =  -228.940606134     A.U. after   13 cycles
            NFock= 13  Conv=0.29D-08     -V/T= 2.0017
 KE= 2.285582974796D+02 PE=-8.009434112773D+02 EE= 2.127821899657D+02
 Leave Link  502 at Thu Dec 21 16:34:25 2017, MaxMem=  3489660928 cpu:       723.9
 (Enter /home/michal/g09/l801.exe)
 ExpMin= 8.99D-02 ExpMax= 6.14D+04 ExpMxC= 5.91D+02 IAcc=3 IRadAn=         5 AccDes= 0.00D+00
 HarFok:  IExCor=  205 AccDes= 0.00D+00 IRadAn=         5 IDoV=-2 UseB2=F ITyADJ=14
 ICtDFT= 12500011 ScaDFX=  1.000000  1.000000  1.000000  1.000000
 Largest valence mixing into a core orbital is  1.82D-04
 Largest core mixing into a valence orbital is  3.05D-05
 Range of M.O.s used for correlation:     5   400
 NBasis=   400 NAE=    17 NBE=    17 NFC=     4 NFV=     0
 NROrb=    396 NOA=    13 NOB=    13 NVA=   383 NVB=   383

 **** Warning!!: The largest alpha MO coefficient is  0.19322738D+02

 Leave Link  801 at Thu Dec 21 16:34:26 2017, MaxMem=  3489660928 cpu:         1.2
 (Enter /home/michal/g09/l906.exe)
 FulOut=F Deriv=F AODrv=F NAtomX=    10
   MMem=        1311  MDisk=          13 MDiskD=          13
  W3Min=     2439710 MinDsk=     3998052 NBas6D=         490
 NBas2D=      121807    NTT=      120295    LW2=     4508827
    MDV=  3488921348 MDiskM=       15813 NBas2p=      114989
 Fully direct method using O(OVN) memory.
 IMap=   1   2   3   4   5   6   7   8   9  10  11  12  13
 JobTyp=1 Pass  1:  I=   1 to  13 NPSUse= 12 ParTrn=T ParDer=T DoDerP=F.
 Spin components of T(2) and E(2):
     alpha-alpha T2 =       0.2891834156D-01 E2=     -0.1038880647D+00
     alpha-beta  T2 =       0.1788212324D+00 E2=     -0.6942823753D+00
     beta-beta   T2 =       0.2891834156D-01 E2=     -0.1038880647D+00
 The integrals were generated   1 times.
 ANorm=    0.1112051220D+01
 E2 =    -0.9020585048D+00 EUMP2 =    -0.22984266463888D+03
 Leave Link  906 at Thu Dec 21 16:38:37 2017, MaxMem=  3489660928 cpu:      3001.0
 (Enter /home/michal/g09/l601.exe)
 Copying SCF densities to generalized density rwf, IOpCl= 0 IROHF=0.

 **********************************************************************

            Population analysis using the SCF density.

 **********************************************************************

 Alpha  occ. eigenvalues --  -20.61894 -20.61665 -11.28291 -11.22677  -1.46439
 Alpha  occ. eigenvalues --   -1.22486  -1.00401  -0.83989  -0.71038  -0.66721
 Alpha  occ. eigenvalues --   -0.65084  -0.58700  -0.54630  -0.54015  -0.49602
 Alpha  occ. eigenvalues --   -0.49033  -0.44373
 Alpha virt. eigenvalues --    0.11181   0.13179   0.15528   0.17294   0.18836
 Alpha virt. eigenvalues --    0.20687   0.22639   0.26782   0.27548   0.29443
 Alpha virt. eigenvalues --    0.31103   0.35364   0.37058   0.44868   0.46358
 Alpha virt. eigenvalues --    0.46873   0.47943   0.49033   0.51961   0.52721
 Alpha virt. eigenvalues --    0.54209   0.55006   0.56806   0.59867   0.60910
 Alpha virt. eigenvalues --    0.62203   0.63827   0.66770   0.68022   0.71537
 Alpha virt. eigenvalues --    0.74056   0.76102   0.81741   0.82915   0.85065
 Alpha virt. eigenvalues --    0.86930   0.87784   0.89308   0.92387   0.94212
 Alpha virt. eigenvalues --    0.96721   0.97426   0.99305   1.01695   1.03371
 Alpha virt. eigenvalues --    1.05894   1.10049   1.11854   1.12956   1.14514
 Alpha virt. eigenvalues --    1.15082   1.15496   1.18845   1.19173   1.20111
 Alpha virt. eigenvalues --    1.21683   1.24477   1.26441   1.37016   1.39645
 Alpha virt. eigenvalues --    1.44149   1.47734   1.54420   1.56416   1.59217
 Alpha virt. eigenvalues --    1.60396   1.64315   1.66461   1.70410   1.76453
 Alpha virt. eigenvalues --    1.76776   1.77394   1.81590   1.88875   1.92488
 Alpha virt. eigenvalues --    1.94796   1.96016   1.96488   2.01173   2.02563
 Alpha virt. eigenvalues --    2.04814   2.06860   2.09032   2.09715   2.12909
 Alpha virt. eigenvalues --    2.15429   2.17637   2.18896   2.21859   2.24184
 Alpha virt. eigenvalues --    2.25759   2.27215   2.30264   2.33045   2.33799
 Alpha virt. eigenvalues --    2.35037   2.35991   2.39514   2.41080   2.44852
 Alpha virt. eigenvalues --    2.45910   2.47968   2.51489   2.54964   2.57178
 Alpha virt. eigenvalues --    2.59834   2.63341   2.63898   2.64298   2.68088
 Alpha virt. eigenvalues --    2.69320   2.73004   2.74332   2.75578   2.76967
 Alpha virt. eigenvalues --    2.78798   2.81283   2.83619   2.86610   2.89250
 Alpha virt. eigenvalues --    2.91209   2.92146   2.96028   3.02839   3.04416
 Alpha virt. eigenvalues --    3.07158   3.08562   3.13144   3.13836   3.17795
 Alpha virt. eigenvalues --    3.21231   3.22497   3.23117   3.27138   3.30339
 Alpha virt. eigenvalues --    3.34158   3.37992   3.38967   3.40602   3.42240
 Alpha virt. eigenvalues --    3.42758   3.44573   3.53916   3.56305   3.56750
 Alpha virt. eigenvalues --    3.60253   3.63082   3.67273   3.68611   3.72829
 Alpha virt. eigenvalues --    3.73444   3.76475   3.79820   3.86699   3.90576
 Alpha virt. eigenvalues --    3.95687   3.97134   3.99803   4.05659   4.07024
 Alpha virt. eigenvalues --    4.09359   4.10706   4.14528   4.16840   4.17190
 Alpha virt. eigenvalues --    4.21147   4.24243   4.33449   4.35276   4.38325
 Alpha virt. eigenvalues --    4.41792   4.46487   4.49888   4.52560   4.52930
 Alpha virt. eigenvalues --    4.65961   4.68443   4.77737   4.79188   4.86055
 Alpha virt. eigenvalues --    4.92152   4.98112   5.04667   5.10945   5.32533
 Alpha virt. eigenvalues --    5.41584   5.50438   5.57906   5.62572   5.67979
 Alpha virt. eigenvalues --    5.71585   5.72419   5.74981   5.76964   5.85529
 Alpha virt. eigenvalues --    5.92133   5.99307   6.04869   6.09206   6.10442
 Alpha virt. eigenvalues --    6.11851   6.13794   6.17518   6.21436   6.22723
 Alpha virt. eigenvalues --    6.23031   6.25226   6.29015   6.31737   6.34577
 Alpha virt. eigenvalues --    6.37880   6.39001   6.40917   6.43520   6.44377
 Alpha virt. eigenvalues --    6.49154   6.49982   6.52103   6.52458   6.53548
 Alpha virt. eigenvalues --    6.55137   6.58802   6.61366   6.63019   6.69107
 Alpha virt. eigenvalues --    6.72038   6.75001   6.79003   6.81702   6.84423
 Alpha virt. eigenvalues --    6.85381   6.94447   6.96397   7.03296   7.05722
 Alpha virt. eigenvalues --    7.07397   7.09027   7.12416   7.18492   7.22762
 Alpha virt. eigenvalues --    7.25057   7.29507   7.33445   7.35411   7.38821
 Alpha virt. eigenvalues --    7.41650   7.46789   7.52991   7.57876   7.59961
 Alpha virt. eigenvalues --    7.61696   7.66933   7.77826   7.78904   7.80481
 Alpha virt. eigenvalues --    7.84840   7.87335   7.88763   7.91143   7.94659
 Alpha virt. eigenvalues --    7.97224   8.02644   8.04142   8.05881   8.08352
 Alpha virt. eigenvalues --    8.12029   8.12607   8.16359   8.17373   8.17970
 Alpha virt. eigenvalues --    8.22754   8.23711   8.26387   8.30908   8.31848
 Alpha virt. eigenvalues --    8.33280   8.36707   8.43140   8.45413   8.48462
 Alpha virt. eigenvalues --    8.52605   8.64586   8.65807   8.67211   8.73108
 Alpha virt. eigenvalues --    8.74259   8.75546   8.81286   8.81686   8.82986
 Alpha virt. eigenvalues --    8.85314   8.87008   8.89039   8.91888   8.95173
 Alpha virt. eigenvalues --    8.95647   8.97865   9.01660   9.04330   9.06383
 Alpha virt. eigenvalues --    9.09001   9.14478   9.16866   9.22955   9.25882
 Alpha virt. eigenvalues --    9.30445   9.32969   9.36296   9.37406   9.41113
 Alpha virt. eigenvalues --    9.42758   9.47242   9.51074   9.52698   9.54799
 Alpha virt. eigenvalues --    9.76452   9.82880   9.91284  10.00854  10.10905
 Alpha virt. eigenvalues --   10.11737  10.12421  10.14855  10.22333  10.24818
 Alpha virt. eigenvalues --   10.31043  10.31402  10.37049  10.41913  10.43718
 Alpha virt. eigenvalues --   10.48365  10.51202  10.57388  10.60682  10.65554
 Alpha virt. eigenvalues --   10.66656  10.70038  10.73995  10.77631  10.88530
 Alpha virt. eigenvalues --   10.91978  10.96470  11.02339  11.13917  11.34247
 Alpha virt. eigenvalues --   11.37682  11.46858  11.61414  11.63875  11.65482
 Alpha virt. eigenvalues --   11.74762  11.82331  11.86473  11.93881  11.97965
 Alpha virt. eigenvalues --   12.02221  12.08084  12.25879  12.34761  12.44211
 Alpha virt. eigenvalues --   12.50607  12.59964  12.60641  12.72487  12.75828
 Alpha virt. eigenvalues --   12.79949  12.80313  12.84525  13.08675  13.14950
 Alpha virt. eigenvalues --   13.22101  13.27811  13.56828  13.69463  14.06550
 Alpha virt. eigenvalues --   14.34672  14.37832  15.08254  16.57190  26.22068
 Alpha virt. eigenvalues --   26.98154  42.56956  44.31627
          Condensed to atoms (all electrons):
               1          2          3          4          5          6
     1  C    4.690774   0.382105  -0.034547   0.006067  -0.001465   0.411015
     2  C    0.382105   4.495156   0.295768  -0.056514  -0.000417  -0.034607
     3  O   -0.034547   0.295768   8.029573   0.090502  -0.033601   0.000465
     4  O    0.006067  -0.056514   0.090502   7.917654   0.334417   0.000318
     5  H   -0.001465  -0.000417  -0.033601   0.334417   0.420753  -0.000065
     6  H    0.411015  -0.034607   0.000465   0.000318  -0.000065   0.598670
     7  H   -0.040721   0.420394  -0.046234   0.004435  -0.000305   0.008437
     8  H   -0.029224   0.407636  -0.055504   0.002589   0.003449  -0.009649
     9  H    0.411657  -0.035785   0.003756  -0.000388   0.000043  -0.022779
    10  H    0.410201  -0.029393  -0.003196  -0.000219   0.000086  -0.025904
               7          8          9         10
     1  C   -0.040721  -0.029224   0.411657   0.410201
     2  C    0.420394   0.407636  -0.035785  -0.029393
     3  O   -0.046234  -0.055504   0.003756  -0.003196
     4  O    0.004435   0.002589  -0.000388  -0.000219
     5  H   -0.000305   0.003449   0.000043   0.000086
     6  H    0.008437  -0.009649  -0.022779  -0.025904
     7  H    0.669877  -0.062106   0.002079  -0.008238
     8  H   -0.062106   0.688095  -0.002466   0.008574
     9  H    0.002079  -0.002466   0.605259  -0.026245
    10  H   -0.008238   0.008574  -0.026245   0.595343
 Mulliken charges:
               1
     1  C   -0.205861
     2  C    0.155657
     3  O   -0.246984
     4  O   -0.298861
     5  H    0.277104
     6  H    0.074100
     7  H    0.052383
     8  H    0.048605
     9  H    0.064868
    10  H    0.078990
 Sum of Mulliken charges =   0.00000
 Mulliken charges with hydrogens summed into heavy atoms:
               1
     1  C    0.012096
     2  C    0.256645
     3  O   -0.246984
     4  O   -0.021757
 Electronic spatial extent (au):  <R**2>=            953.8306
 Charge=              0.0000 electrons
 Dipole moment (field-independent basis, Debye):
    X=             -1.7840    Y=             -0.3778    Z=             -0.4812  Tot=              1.8860
 Quadrupole moment (field-independent basis, Debye-Ang):
   XX=            -27.2134   YY=            -22.5343   ZZ=            -21.6524
   XY=              1.8534   XZ=              2.1403   YZ=             -2.3493
 Traceless Quadrupole moment (field-independent basis, Debye-Ang):
   XX=             -3.4134   YY=              1.2657   ZZ=              2.1477
   XY=              1.8534   XZ=              2.1403   YZ=             -2.3493
 Octapole moment (field-independent basis, Debye-Ang**2):
  XXX=            -14.5169  YYY=             61.6468  ZZZ=            150.1046  XYY=             -5.4616
  XXY=             25.8815  XXZ=             55.8381  XZZ=             -6.6407  YZZ=             25.7807
  YYZ=             58.3845  XYZ=             -3.2131
 Hexadecapole moment (field-independent basis, Debye-Ang**3):
 XXXX=            -98.2043 YYYY=           -168.8886 ZZZZ=           -931.2591 XXXY=             19.7786
 XXXZ=            -22.1192 YYYX=             18.3431 YYYZ=           -150.5008 ZZZX=            -23.6208
 ZZZY=           -144.9818 XXYY=            -49.0437 XXZZ=           -178.7269 YYZZ=           -199.0790
 XXYZ=            -51.4262 YYXZ=             -2.9045 ZZXY=              7.9026
 N-N= 1.306623176978D+02 E-N=-8.009434103984D+02  KE= 2.285582974796D+02
 Leave Link  601 at Thu Dec 21 16:38:37 2017, MaxMem=  3489660928 cpu:         0.5
 (Enter /home/michal/g09/l9999.exe)
 1\1\GINC-LINUX\SP\RMP2-FC\CC-pVQZ\C2H6O2\MICHAL\21-Dec-2017\0\\#P MP2/
 cc-pVQZ SP Nosymm\\PEscan\\0,1\C,0,-0.56722,-1.0338,-3.64636\C,0,-0.04
 558,-0.36476,-2.38385\O,0,0.837,-1.29693,-1.75805\O,0,0.77244,-1.04594
 ,-0.32162\H,0,0.44202,-1.91745,-0.04735\H,0,-1.14286,-1.93692,-3.39099
 \H,0,0.48629,0.57959,-2.60605\H,0,-0.87466,-0.14018,-1.69231\H,0,-1.21
 811,-0.33922,-4.20221\H,0,0.26581,-1.32651,-4.30563\\Version=EM64L-G09
 RevD.01\HF=-228.9406061\MP2=-229.8426646\RMSD=2.937e-09\PG=C01 [X(C2H6
 O2)]\\@


 REPARTEE - WHAT YOU THINK OF AFTER YOU BECOME A DEPARTEE.
 Job cpu time:       0 days  1 hours  2 minutes 26.9 seconds.
 File lengths (MBytes):  RWF=    699 Int=      0 D2E=      0 Chk=      8 Scr=      1
 Normal termination of Gaussian 09 at Thu Dec 21 16:38:37 2017.
