 Entering Gaussian System, Link 0=g09
 Input=1HPP_mp2qz_031.com
 Output=1HPP_mp2qz_031.log
 Initial command:
 /home/michal/g09/l1.exe "/home/michal/gauss_scratch/Gau-13722.inp" -scrdir="/home/michal/gauss_scratch/"
 Entering Link 1 = /home/michal/g09/l1.exe PID=     13723.
  
 Copyright (c) 1988,1990,1992,1993,1995,1998,2003,2009,2013,
            Gaussian, Inc.  All Rights Reserved.
  
 This is part of the Gaussian(R) 09 program.  It is based on
 the Gaussian(R) 03 system (copyright 2003, Gaussian, Inc.),
 the Gaussian(R) 98 system (copyright 1998, Gaussian, Inc.),
 the Gaussian(R) 94 system (copyright 1995, Gaussian, Inc.),
 the Gaussian 92(TM) system (copyright 1992, Gaussian, Inc.),
 the Gaussian 90(TM) system (copyright 1990, Gaussian, Inc.),
 the Gaussian 88(TM) system (copyright 1988, Gaussian, Inc.),
 the Gaussian 86(TM) system (copyright 1986, Carnegie Mellon
 University), and the Gaussian 82(TM) system (copyright 1983,
 Carnegie Mellon University). Gaussian is a federally registered
 trademark of Gaussian, Inc.
  
 This software contains proprietary and confidential information,
 including trade secrets, belonging to Gaussian, Inc.
  
 This software is provided under written license and may be
 used, copied, transmitted, or stored only in accord with that
 written license.
  
 The following legend is applicable only to US Government
 contracts under FAR:
  
                    RESTRICTED RIGHTS LEGEND
  
 Use, reproduction and disclosure by the US Government is
 subject to restrictions as set forth in subparagraphs (a)
 and (c) of the Commercial Computer Software - Restricted
 Rights clause in FAR 52.227-19.
  
 Gaussian, Inc.
 340 Quinnipiac St., Bldg. 40, Wallingford CT 06492
  
  
 ---------------------------------------------------------------
 Warning -- This program may not be used in any manner that
 competes with the business of Gaussian, Inc. or will provide
 assistance to any competitor of Gaussian, Inc.  The licensee
 of this program is prohibited from giving any competitor of
 Gaussian, Inc. access to this program.  By using this program,
 the user acknowledges that Gaussian, Inc. is engaged in the
 business of creating and licensing software in the field of
 computational chemistry and represents and warrants to the
 licensee that it is not a competitor of Gaussian, Inc. and that
 it will not use this program in any manner prohibited above.
 ---------------------------------------------------------------
  

 Cite this work as:
 Gaussian 09, Revision D.01,
 M. J. Frisch, G. W. Trucks, H. B. Schlegel, G. E. Scuseria, 
 M. A. Robb, J. R. Cheeseman, G. Scalmani, V. Barone, B. Mennucci, 
 G. A. Petersson, H. Nakatsuji, M. Caricato, X. Li, H. P. Hratchian, 
 A. F. Izmaylov, J. Bloino, G. Zheng, J. L. Sonnenberg, M. Hada, 
 M. Ehara, K. Toyota, R. Fukuda, J. Hasegawa, M. Ishida, T. Nakajima, 
 Y. Honda, O. Kitao, H. Nakai, T. Vreven, J. A. Montgomery, Jr., 
 J. E. Peralta, F. Ogliaro, M. Bearpark, J. J. Heyd, E. Brothers, 
 K. N. Kudin, V. N. Staroverov, T. Keith, R. Kobayashi, J. Normand, 
 K. Raghavachari, A. Rendell, J. C. Burant, S. S. Iyengar, J. Tomasi, 
 M. Cossi, N. Rega, J. M. Millam, M. Klene, J. E. Knox, J. B. Cross, 
 V. Bakken, C. Adamo, J. Jaramillo, R. Gomperts, R. E. Stratmann, 
 O. Yazyev, A. J. Austin, R. Cammi, C. Pomelli, J. W. Ochterski, 
 R. L. Martin, K. Morokuma, V. G. Zakrzewski, G. A. Voth, 
 P. Salvador, J. J. Dannenberg, S. Dapprich, A. D. Daniels, 
 O. Farkas, J. B. Foresman, J. V. Ortiz, J. Cioslowski, 
 and D. J. Fox, Gaussian, Inc., Wallingford CT, 2013.
 
 ******************************************
 Gaussian 09:  EM64L-G09RevD.01 24-Apr-2013
                21-Dec-2017 
 ******************************************
 %Mem=26GB
 %NProc=12
 Will use up to   12 processors via shared memory.
 %RWF=/home/michal/Cholesterol_grant/peroxy_params,20GB
 ------------------------
 #P MP2/cc-pVQZ SP Nosymm
 ------------------------
 1/38=1/1;
 2/12=2,15=1,17=6,18=5,40=1/2;
 3/5=16,6=2,11=9,16=1,25=1,30=1/1,2,3;
 4//1;
 5/5=2,38=5/2;
 8/10=1/1;
 9/16=-3/6;
 6/7=2,8=2,9=2,10=2/1;
 99/5=1,9=1/99;
 Leave Link    1 at Thu Dec 21 19:23:30 2017, MaxMem=  3489660928 cpu:         0.3
 (Enter /home/michal/g09/l101.exe)
 ------
 PEscan
 ------
 Symbolic Z-matrix:
 Charge =  0 Multiplicity = 1
 C                    -0.92236  -0.99614  -3.47833 
 C                    -0.05708  -0.41058  -2.37329 
 O                    -0.02092  -1.3229   -1.26529 
 O                     1.36661  -1.70431  -1.04717 
 H                     1.50961  -1.26527  -0.19172 
 H                    -1.93382  -1.21509  -3.10045 
 H                     0.97439  -0.24191  -2.71791 
 H                    -0.46817   0.55179  -2.01264 
 H                    -1.01212  -0.28414  -4.31616 
 H                    -0.48098  -1.93357  -3.85146 
 
 NAtoms=     10 NQM=       10 NQMF=       0 NMMI=      0 NMMIF=      0
                NMic=       0 NMicF=      0.
                    Isotopes and Nuclear Properties:
 (Nuclear quadrupole moments (NQMom) in fm**2, nuclear magnetic moments (NMagM)
  in nuclear magnetons)

  Atom         1           2           3           4           5           6           7           8           9          10
 IAtWgt=          12          12          16          16           1           1           1           1           1           1
 AtmWgt=  12.0000000  12.0000000  15.9949146  15.9949146   1.0078250   1.0078250   1.0078250   1.0078250   1.0078250   1.0078250
 NucSpn=           0           0           0           0           1           1           1           1           1           1
 AtZEff=   0.0000000   0.0000000   0.0000000   0.0000000   0.0000000   0.0000000   0.0000000   0.0000000   0.0000000   0.0000000
 NQMom=    0.0000000   0.0000000   0.0000000   0.0000000   0.0000000   0.0000000   0.0000000   0.0000000   0.0000000   0.0000000
 NMagM=    0.0000000   0.0000000   0.0000000   0.0000000   2.7928460   2.7928460   2.7928460   2.7928460   2.7928460   2.7928460
 AtZNuc=   6.0000000   6.0000000   8.0000000   8.0000000   1.0000000   1.0000000   1.0000000   1.0000000   1.0000000   1.0000000
 Leave Link  101 at Thu Dec 21 19:23:30 2017, MaxMem=  3489660928 cpu:         0.5
 (Enter /home/michal/g09/l202.exe)
                          Input orientation:                          
 ---------------------------------------------------------------------
 Center     Atomic      Atomic             Coordinates (Angstroms)
 Number     Number       Type             X           Y           Z
 ---------------------------------------------------------------------
      1          6           0       -0.922360   -0.996140   -3.478330
      2          6           0       -0.057080   -0.410580   -2.373290
      3          8           0       -0.020920   -1.322900   -1.265290
      4          8           0        1.366610   -1.704310   -1.047170
      5          1           0        1.509610   -1.265270   -0.191720
      6          1           0       -1.933820   -1.215090   -3.100450
      7          1           0        0.974390   -0.241910   -2.717910
      8          1           0       -0.468170    0.551790   -2.012640
      9          1           0       -1.012120   -0.284140   -4.316160
     10          1           0       -0.480980   -1.933570   -3.851460
 ---------------------------------------------------------------------
                    Distance matrix (angstroms):
                    1          2          3          4          5
     1  C    0.000000
     2  C    1.520758   0.000000
     3  O    2.411828   1.435723   0.000000
     4  O    3.413419   2.336498   1.455434   0.000000
     5  H    4.097403   2.818556   1.870400   0.972111   0.000000
     6  H    1.101719   2.167522   2.653040   3.917669   4.507820
     7  H    2.178247   1.100519   2.066225   2.254733   2.777654
     8  H    2.179592   1.106896   2.067130   3.064072   3.244853
     9  H    1.103159   2.168601   3.371840   4.285036   4.932823
    10  H    1.101280   2.164296   2.696822   3.366035   4.219333
                    6          7          8          9         10
     6  H    0.000000
     7  H    3.090486   0.000000
     8  H    2.540340   1.791185   0.000000
     9  H    1.787218   2.549982   2.510152   0.000000
    10  H    1.786330   2.502948   3.091672   1.794067   0.000000
 Symmetry turned off by external request.
 Stoichiometry    C2H6O2
 Framework group  C1[X(C2H6O2)]
 Deg. of freedom    24
 Full point group                 C1      NOp   1
 Rotational constants (GHZ):     22.8526125      4.2668896      4.2456601
 Leave Link  202 at Thu Dec 21 19:23:30 2017, MaxMem=  3489660928 cpu:         0.0
 (Enter /home/michal/g09/l301.exe)
 Standard basis: CC-pVQZ (5D, 7F)
 Ernie: Thresh=  0.10000D-02 Tol=  0.10000D-05 Strict=F.
 Ernie:  12 primitive shells out of 204 were deleted.
   400 basis functions,   578 primitive gaussians,   490 cartesian basis functions
    17 alpha electrons       17 beta electrons
       nuclear repulsion energy       130.7291544295 Hartrees.
 IExCor=    0 DFT=F Ex=HF Corr=None ExCW=0 ScaHFX=  1.000000
 ScaDFX=  1.000000  1.000000  1.000000  1.000000 ScalE2=  1.000000  1.000000
 IRadAn=      0 IRanWt=     -1 IRanGd=            0 ICorTp=0 IEmpDi=  4
 NAtoms=   10 NActive=   10 NUniq=   10 SFac= 1.00D+00 NAtFMM=   60 NAOKFM=F Big=F
 Integral buffers will be    131072 words long.
 Raffenetti 1 integral format.
 Two-electron integral symmetry is turned off.
 Leave Link  301 at Thu Dec 21 19:23:30 2017, MaxMem=  3489660928 cpu:         0.3
 (Enter /home/michal/g09/l302.exe)
 NPDir=0 NMtPBC=     1 NCelOv=     1 NCel=       1 NClECP=     1 NCelD=      1
         NCelK=      1 NCelE2=     1 NClLst=     1 CellRange=     0.0.
 One-electron integrals computed using PRISM.
 NBasis=   400 RedAO= T EigKep=  1.37D-04  NBF=   400
 NBsUse=   400 1.00D-06 EigRej= -1.00D+00 NBFU=   400
 Leave Link  302 at Thu Dec 21 19:23:30 2017, MaxMem=  3489660928 cpu:         6.1
 (Enter /home/michal/g09/l303.exe)
 DipDrv:  MaxL=1.
 Leave Link  303 at Thu Dec 21 19:23:30 2017, MaxMem=  3489660928 cpu:         0.5
 (Enter /home/michal/g09/l401.exe)
 ExpMin= 8.99D-02 ExpMax= 6.14D+04 ExpMxC= 5.91D+02 IAcc=2 IRadAn=         4 AccDes= 0.00D+00
 Harris functional with IExCor=  205 and IRadAn=       4 diagonalized for initial guess.
 HarFok:  IExCor=  205 AccDes= 0.00D+00 IRadAn=         4 IDoV= 1 UseB2=F ITyADJ=14
 ICtDFT=  3500011 ScaDFX=  1.000000  1.000000  1.000000  1.000000
 FoFCou: FMM=F IPFlag=           0 FMFlag=      100000 FMFlg1=           0
         NFxFlg=           0 DoJE=T BraDBF=F KetDBF=T FulRan=T
         wScrn=  0.000000 ICntrl=     500 IOpCl=  0 I1Cent=   200000004 NGrid=           0
         NMat0=    1 NMatS0=      1 NMatT0=    0 NMatD0=    1 NMtDS0=    0 NMtDT0=    0
 Symmetry not used in FoFCou.
 Harris En= -229.243647192013    
 JPrj=0 DoOrth=F DoCkMO=F.
 Leave Link  401 at Thu Dec 21 19:23:31 2017, MaxMem=  3489660928 cpu:        10.5
 (Enter /home/michal/g09/l502.exe)
 Closed shell SCF:
 Using DIIS extrapolation, IDIIS=  1040.
 Two-electron integral symmetry not used.
 Keep R1 ints in memory in canonical form, NReq=3275992930.
 IVT=      747690 IEndB=      747690 NGot=  3489660928 MDV=   272853139
 LenX=   272853139 LenY=   272612549
 Requested convergence on RMS density matrix=1.00D-08 within 128 cycles.
 Requested convergence on MAX density matrix=1.00D-06.
 Requested convergence on             energy=1.00D-06.
 No special actions if energy rises.
 FoFCou: FMM=F IPFlag=           0 FMFlag=           0 FMFlg1=           0
         NFxFlg=           0 DoJE=F BraDBF=F KetDBF=F FulRan=T
         wScrn=  0.000000 ICntrl=     600 IOpCl=  0 I1Cent=           0 NGrid=           0
         NMat0=    1 NMatS0=  80200 NMatT0=    0 NMatD0=    1 NMtDS0=    0 NMtDT0=    0
 Symmetry not used in FoFCou.

 Cycle   1  Pass 1  IDiag  1:
 E= -228.736349345582    
 DIIS: error= 3.30D-02 at cycle   1 NSaved=   1.
 NSaved= 1 IEnMin= 1 EnMin= -228.736349345582     IErMin= 1 ErrMin= 3.30D-02
 ErrMax= 3.30D-02  0.00D+00 EMaxC= 1.00D-01 BMatC= 4.81D-01 BMatP= 4.81D-01
 IDIUse=3 WtCom= 6.70D-01 WtEn= 3.30D-01
 Coeff-Com:  0.100D+01
 Coeff-En:   0.100D+01
 Coeff:      0.100D+01
 Gap=     0.695 Goal=   None    Shift=    0.000
 GapD=    0.695 DampG=2.000 DampE=0.500 DampFc=1.0000 IDamp=-1.
 RMSDP=7.81D-04 MaxDP=3.80D-02              OVMax= 1.13D-01

 Cycle   2  Pass 1  IDiag  1:
 E= -228.908138527146     Delta-E=       -0.171789181564 Rises=F Damp=F
 DIIS: error= 1.32D-02 at cycle   2 NSaved=   2.
 NSaved= 2 IEnMin= 2 EnMin= -228.908138527146     IErMin= 2 ErrMin= 1.32D-02
 ErrMax= 1.32D-02  0.00D+00 EMaxC= 1.00D-01 BMatC= 3.76D-02 BMatP= 4.81D-01
 IDIUse=3 WtCom= 8.68D-01 WtEn= 1.32D-01
 Coeff-Com:  0.127D+00 0.873D+00
 Coeff-En:   0.000D+00 0.100D+01
 Coeff:      0.110D+00 0.890D+00
 Gap=     0.624 Goal=   None    Shift=    0.000
 RMSDP=3.40D-04 MaxDP=1.88D-02 DE=-1.72D-01 OVMax= 4.60D-02

 Cycle   3  Pass 1  IDiag  1:
 E= -228.935313737298     Delta-E=       -0.027175210152 Rises=F Damp=F
 DIIS: error= 3.33D-03 at cycle   3 NSaved=   3.
 NSaved= 3 IEnMin= 3 EnMin= -228.935313737298     IErMin= 3 ErrMin= 3.33D-03
 ErrMax= 3.33D-03  0.00D+00 EMaxC= 1.00D-01 BMatC= 4.42D-03 BMatP= 3.76D-02
 IDIUse=3 WtCom= 9.67D-01 WtEn= 3.33D-02
 Coeff-Com: -0.199D-01 0.223D+00 0.797D+00
 Coeff-En:   0.000D+00 0.000D+00 0.100D+01
 Coeff:     -0.192D-01 0.216D+00 0.804D+00
 Gap=     0.564 Goal=   None    Shift=    0.000
 RMSDP=7.87D-05 MaxDP=4.32D-03 DE=-2.72D-02 OVMax= 1.24D-02

 Cycle   4  Pass 1  IDiag  1:
 E= -228.938744164538     Delta-E=       -0.003430427240 Rises=F Damp=F
 DIIS: error= 5.73D-04 at cycle   4 NSaved=   4.
 NSaved= 4 IEnMin= 4 EnMin= -228.938744164538     IErMin= 4 ErrMin= 5.73D-04
 ErrMax= 5.73D-04  0.00D+00 EMaxC= 1.00D-01 BMatC= 2.56D-04 BMatP= 4.42D-03
 IDIUse=3 WtCom= 9.94D-01 WtEn= 5.73D-03
 Coeff-Com: -0.917D-02 0.513D-01 0.267D+00 0.691D+00
 Coeff-En:   0.000D+00 0.000D+00 0.000D+00 0.100D+01
 Coeff:     -0.911D-02 0.510D-01 0.266D+00 0.693D+00
 Gap=     0.558 Goal=   None    Shift=    0.000
 RMSDP=2.12D-05 MaxDP=9.93D-04 DE=-3.43D-03 OVMax= 3.49D-03

 Cycle   5  Pass 1  IDiag  1:
 E= -228.938922963360     Delta-E=       -0.000178798822 Rises=F Damp=F
 DIIS: error= 3.45D-04 at cycle   5 NSaved=   5.
 NSaved= 5 IEnMin= 5 EnMin= -228.938922963360     IErMin= 5 ErrMin= 3.45D-04
 ErrMax= 3.45D-04  0.00D+00 EMaxC= 1.00D-01 BMatC= 1.64D-05 BMatP= 2.56D-04
 IDIUse=3 WtCom= 9.97D-01 WtEn= 3.45D-03
 Coeff-Com:  0.175D-02-0.261D-01-0.831D-01 0.691D-01 0.104D+01
 Coeff-En:   0.000D+00 0.000D+00 0.000D+00 0.000D+00 0.100D+01
 Coeff:      0.175D-02-0.260D-01-0.828D-01 0.689D-01 0.104D+01
 Gap=     0.560 Goal=   None    Shift=    0.000
 RMSDP=1.23D-05 MaxDP=5.65D-04 DE=-1.79D-04 OVMax= 1.39D-03

 Cycle   6  Pass 1  IDiag  1:
 E= -228.938948544143     Delta-E=       -0.000025580782 Rises=F Damp=F
 DIIS: error= 6.33D-05 at cycle   6 NSaved=   6.
 NSaved= 6 IEnMin= 6 EnMin= -228.938948544143     IErMin= 6 ErrMin= 6.33D-05
 ErrMax= 6.33D-05  0.00D+00 EMaxC= 1.00D-01 BMatC= 7.92D-07 BMatP= 1.64D-05
 IDIUse=1 WtCom= 1.00D+00 WtEn= 0.00D+00
 Coeff-Com:  0.631D-03-0.451D-02-0.179D-01-0.471D-01 0.242D-01 0.104D+01
 Coeff:      0.631D-03-0.451D-02-0.179D-01-0.471D-01 0.242D-01 0.104D+01
 Gap=     0.560 Goal=   None    Shift=    0.000
 RMSDP=3.41D-06 MaxDP=1.52D-04 DE=-2.56D-05 OVMax= 3.80D-04

 Cycle   7  Pass 1  IDiag  1:
 E= -228.938950182443     Delta-E=       -0.000001638301 Rises=F Damp=F
 DIIS: error= 1.21D-05 at cycle   7 NSaved=   7.
 NSaved= 7 IEnMin= 7 EnMin= -228.938950182443     IErMin= 7 ErrMin= 1.21D-05
 ErrMax= 1.21D-05  0.00D+00 EMaxC= 1.00D-01 BMatC= 6.03D-08 BMatP= 7.92D-07
 IDIUse=1 WtCom= 1.00D+00 WtEn= 0.00D+00
 Coeff-Com: -0.782D-04 0.132D-02 0.451D-02-0.369D-02-0.568D-01-0.358D-01
 Coeff-Com:  0.109D+01
 Coeff:     -0.782D-04 0.132D-02 0.451D-02-0.369D-02-0.568D-01-0.358D-01
 Coeff:      0.109D+01
 Gap=     0.559 Goal=   None    Shift=    0.000
 RMSDP=9.62D-07 MaxDP=4.08D-05 DE=-1.64D-06 OVMax= 1.40D-04

 Cycle   8  Pass 1  IDiag  1:
 E= -228.938950328410     Delta-E=       -0.000000145967 Rises=F Damp=F
 DIIS: error= 3.26D-06 at cycle   8 NSaved=   8.
 NSaved= 8 IEnMin= 8 EnMin= -228.938950328410     IErMin= 8 ErrMin= 3.26D-06
 ErrMax= 3.26D-06  0.00D+00 EMaxC= 1.00D-01 BMatC= 1.06D-08 BMatP= 6.03D-08
 IDIUse=1 WtCom= 1.00D+00 WtEn= 0.00D+00
 Coeff-Com: -0.790D-04 0.651D-03 0.252D-02 0.587D-02-0.523D-02-0.140D+00
 Coeff-Com:  0.133D+00 0.100D+01
 Coeff:     -0.790D-04 0.651D-03 0.252D-02 0.587D-02-0.523D-02-0.140D+00
 Coeff:      0.133D+00 0.100D+01
 Gap=     0.560 Goal=   None    Shift=    0.000
 RMSDP=3.57D-07 MaxDP=1.80D-05 DE=-1.46D-07 OVMax= 6.57D-05

 Cycle   9  Pass 1  IDiag  1:
 E= -228.938950351801     Delta-E=       -0.000000023391 Rises=F Damp=F
 DIIS: error= 1.53D-06 at cycle   9 NSaved=   9.
 NSaved= 9 IEnMin= 9 EnMin= -228.938950351801     IErMin= 9 ErrMin= 1.53D-06
 ErrMax= 1.53D-06  0.00D+00 EMaxC= 1.00D-01 BMatC= 1.29D-09 BMatP= 1.06D-08
 IDIUse=1 WtCom= 1.00D+00 WtEn= 0.00D+00
 Coeff-Com:  0.130D-04-0.182D-03-0.722D-03-0.124D-03 0.775D-02 0.130D-01
 Coeff-Com: -0.146D+00-0.723D-01 0.120D+01
 Coeff:      0.130D-04-0.182D-03-0.722D-03-0.124D-03 0.775D-02 0.130D-01
 Coeff:     -0.146D+00-0.723D-01 0.120D+01
 Gap=     0.559 Goal=   None    Shift=    0.000
 RMSDP=1.50D-07 MaxDP=7.85D-06 DE=-2.34D-08 OVMax= 3.16D-05

 Cycle  10  Pass 1  IDiag  1:
 E= -228.938950356006     Delta-E=       -0.000000004204 Rises=F Damp=F
 DIIS: error= 4.91D-07 at cycle  10 NSaved=  10.
 NSaved=10 IEnMin=10 EnMin= -228.938950356006     IErMin=10 ErrMin= 4.91D-07
 ErrMax= 4.91D-07  0.00D+00 EMaxC= 1.00D-01 BMatC= 1.74D-10 BMatP= 1.29D-09
 IDIUse=1 WtCom= 1.00D+00 WtEn= 0.00D+00
 Coeff-Com:  0.661D-05-0.521D-04-0.194D-03-0.654D-03 0.548D-04 0.125D-01
 Coeff-Com:  0.466D-02-0.107D+00-0.144D+00 0.123D+01
 Coeff:      0.661D-05-0.521D-04-0.194D-03-0.654D-03 0.548D-04 0.125D-01
 Coeff:      0.466D-02-0.107D+00-0.144D+00 0.123D+01
 Gap=     0.559 Goal=   None    Shift=    0.000
 RMSDP=5.70D-08 MaxDP=2.81D-06 DE=-4.20D-09 OVMax= 1.34D-05

 Cycle  11  Pass 1  IDiag  1:
 E= -228.938950356646     Delta-E=       -0.000000000641 Rises=F Damp=F
 DIIS: error= 2.38D-07 at cycle  11 NSaved=  11.
 NSaved=11 IEnMin=11 EnMin= -228.938950356646     IErMin=11 ErrMin= 2.38D-07
 ErrMax= 2.38D-07  0.00D+00 EMaxC= 1.00D-01 BMatC= 3.16D-11 BMatP= 1.74D-10
 IDIUse=1 WtCom= 1.00D+00 WtEn= 0.00D+00
 Coeff-Com: -0.219D-05 0.299D-04 0.121D-03 0.103D-03-0.983D-03-0.479D-02
 Coeff-Com:  0.256D-01 0.232D-01-0.202D+00-0.270D-01 0.119D+01
 Coeff:     -0.219D-05 0.299D-04 0.121D-03 0.103D-03-0.983D-03-0.479D-02
 Coeff:      0.256D-01 0.232D-01-0.202D+00-0.270D-01 0.119D+01
 Gap=     0.559 Goal=   None    Shift=    0.000
 RMSDP=2.34D-08 MaxDP=1.01D-06 DE=-6.41D-10 OVMax= 5.27D-06

 Cycle  12  Pass 1  IDiag  1:
 E= -228.938950356761     Delta-E=       -0.000000000115 Rises=F Damp=F
 DIIS: error= 8.59D-08 at cycle  12 NSaved=  12.
 NSaved=12 IEnMin=12 EnMin= -228.938950356761     IErMin=12 ErrMin= 8.59D-08
 ErrMax= 8.59D-08  0.00D+00 EMaxC= 1.00D-01 BMatC= 4.20D-12 BMatP= 3.16D-11
 IDIUse=1 WtCom= 1.00D+00 WtEn= 0.00D+00
 Coeff-Com: -0.108D-05 0.661D-05 0.258D-04 0.144D-03 0.161D-03-0.284D-02
 Coeff-Com: -0.822D-03 0.215D-01 0.234D-01-0.193D+00-0.124D+00 0.127D+01
 Coeff:     -0.108D-05 0.661D-05 0.258D-04 0.144D-03 0.161D-03-0.284D-02
 Coeff:     -0.822D-03 0.215D-01 0.234D-01-0.193D+00-0.124D+00 0.127D+01
 Gap=     0.559 Goal=   None    Shift=    0.000
 RMSDP=1.03D-08 MaxDP=3.79D-07 DE=-1.15D-10 OVMax= 2.38D-06

 Cycle  13  Pass 1  IDiag  1:
 E= -228.938950356781     Delta-E=       -0.000000000020 Rises=F Damp=F
 DIIS: error= 1.63D-08 at cycle  13 NSaved=  13.
 NSaved=13 IEnMin=13 EnMin= -228.938950356781     IErMin=13 ErrMin= 1.63D-08
 ErrMax= 1.63D-08  0.00D+00 EMaxC= 1.00D-01 BMatC= 2.53D-13 BMatP= 4.20D-12
 IDIUse=1 WtCom= 1.00D+00 WtEn= 0.00D+00
 Coeff-Com:  0.360D-06-0.400D-05-0.153D-04-0.275D-04 0.830D-04 0.735D-03
 Coeff-Com: -0.202D-02-0.494D-02 0.127D-01 0.367D-01-0.952D-01-0.196D+00
 Coeff-Com:  0.125D+01
 Coeff:      0.360D-06-0.400D-05-0.153D-04-0.275D-04 0.830D-04 0.735D-03
 Coeff:     -0.202D-02-0.494D-02 0.127D-01 0.367D-01-0.952D-01-0.196D+00
 Coeff:      0.125D+01
 Gap=     0.559 Goal=   None    Shift=    0.000
 RMSDP=2.89D-09 MaxDP=1.06D-07 DE=-1.96D-11 OVMax= 5.99D-07

 SCF Done:  E(RHF) =  -228.938950357     A.U. after   13 cycles
            NFock= 13  Conv=0.29D-08     -V/T= 2.0017
 KE= 2.285564624162D+02 PE=-8.011173533828D+02 EE= 2.128927861803D+02
 Leave Link  502 at Thu Dec 21 19:25:20 2017, MaxMem=  3489660928 cpu:       694.4
 (Enter /home/michal/g09/l801.exe)
 ExpMin= 8.99D-02 ExpMax= 6.14D+04 ExpMxC= 5.91D+02 IAcc=3 IRadAn=         5 AccDes= 0.00D+00
 HarFok:  IExCor=  205 AccDes= 0.00D+00 IRadAn=         5 IDoV=-2 UseB2=F ITyADJ=14
 ICtDFT= 12500011 ScaDFX=  1.000000  1.000000  1.000000  1.000000
 Largest valence mixing into a core orbital is  1.82D-04
 Largest core mixing into a valence orbital is  3.07D-05
 Range of M.O.s used for correlation:     5   400
 NBasis=   400 NAE=    17 NBE=    17 NFC=     4 NFV=     0
 NROrb=    396 NOA=    13 NOB=    13 NVA=   383 NVB=   383

 **** Warning!!: The largest alpha MO coefficient is  0.22783386D+02

 Leave Link  801 at Thu Dec 21 19:25:21 2017, MaxMem=  3489660928 cpu:         1.2
 (Enter /home/michal/g09/l906.exe)
 FulOut=F Deriv=F AODrv=F NAtomX=    10
   MMem=        1311  MDisk=          13 MDiskD=          13
  W3Min=     2439710 MinDsk=     3998052 NBas6D=         490
 NBas2D=      121807    NTT=      120295    LW2=     4508827
    MDV=  3488921484 MDiskM=       15813 NBas2p=      115012
 Fully direct method using O(OVN) memory.
 IMap=   1   2   3   4   5   6   7   8   9  10  11  12  13
 JobTyp=1 Pass  1:  I=   1 to  13 NPSUse= 12 ParTrn=T ParDer=T DoDerP=F.
 Spin components of T(2) and E(2):
     alpha-alpha T2 =       0.2888987292D-01 E2=     -0.1038156624D+00
     alpha-beta  T2 =       0.1786359544D+00 E2=     -0.6939671807D+00
     beta-beta   T2 =       0.2888987292D-01 E2=     -0.1038156624D+00
 The integrals were generated   1 times.
 ANorm=    0.1111942310D+01
 E2 =    -0.9015985055D+00 EUMP2 =    -0.22984054886228D+03
 Leave Link  906 at Thu Dec 21 19:29:36 2017, MaxMem=  3489660928 cpu:      3037.0
 (Enter /home/michal/g09/l601.exe)
 Copying SCF densities to generalized density rwf, IOpCl= 0 IROHF=0.

 **********************************************************************

            Population analysis using the SCF density.

 **********************************************************************

 Alpha  occ. eigenvalues --  -20.61996 -20.61454 -11.28260 -11.22235  -1.46409
 Alpha  occ. eigenvalues --   -1.22186  -1.00300  -0.83944  -0.71778  -0.65408
 Alpha  occ. eigenvalues --   -0.63790  -0.60723  -0.54548  -0.53272  -0.49443
 Alpha  occ. eigenvalues --   -0.48665  -0.44354
 Alpha virt. eigenvalues --    0.11595   0.12925   0.16048   0.17039   0.18893
 Alpha virt. eigenvalues --    0.20377   0.22437   0.26791   0.27980   0.29485
 Alpha virt. eigenvalues --    0.30926   0.34469   0.37364   0.44893   0.46122
 Alpha virt. eigenvalues --    0.47415   0.48773   0.49211   0.51639   0.52807
 Alpha virt. eigenvalues --    0.54015   0.55788   0.56620   0.59710   0.61422
 Alpha virt. eigenvalues --    0.62585   0.64194   0.65620   0.69289   0.72091
 Alpha virt. eigenvalues --    0.74296   0.75088   0.80545   0.82472   0.85913
 Alpha virt. eigenvalues --    0.86526   0.87702   0.89336   0.92228   0.94341
 Alpha virt. eigenvalues --    0.96795   0.97776   0.99553   1.00470   1.03655
 Alpha virt. eigenvalues --    1.07051   1.08595   1.10579   1.13351   1.15033
 Alpha virt. eigenvalues --    1.15585   1.16046   1.19243   1.19649   1.20954
 Alpha virt. eigenvalues --    1.23242   1.25640   1.26686   1.36268   1.40930
 Alpha virt. eigenvalues --    1.45050   1.47949   1.51788   1.55177   1.58724
 Alpha virt. eigenvalues --    1.62233   1.64933   1.69031   1.70363   1.74189
 Alpha virt. eigenvalues --    1.74750   1.81888   1.84376   1.88211   1.90087
 Alpha virt. eigenvalues --    1.94240   1.95808   1.98727   2.00707   2.02175
 Alpha virt. eigenvalues --    2.03463   2.05955   2.09464   2.09912   2.12812
 Alpha virt. eigenvalues --    2.15826   2.18888   2.20041   2.22320   2.23952
 Alpha virt. eigenvalues --    2.25424   2.28200   2.30671   2.31217   2.34024
 Alpha virt. eigenvalues --    2.34520   2.36918   2.40269   2.42628   2.44972
 Alpha virt. eigenvalues --    2.46541   2.49788   2.51104   2.53231   2.58758
 Alpha virt. eigenvalues --    2.59626   2.61022   2.63369   2.66212   2.66951
 Alpha virt. eigenvalues --    2.69998   2.71090   2.73991   2.75144   2.76965
 Alpha virt. eigenvalues --    2.82077   2.82794   2.83699   2.85710   2.87746
 Alpha virt. eigenvalues --    2.91466   2.93103   2.98184   3.00164   3.04142
 Alpha virt. eigenvalues --    3.08782   3.10417   3.11802   3.13913   3.14626
 Alpha virt. eigenvalues --    3.19610   3.24138   3.25774   3.28582   3.30909
 Alpha virt. eigenvalues --    3.34370   3.36779   3.38457   3.39388   3.41382
 Alpha virt. eigenvalues --    3.45561   3.49299   3.50199   3.53033   3.55921
 Alpha virt. eigenvalues --    3.60852   3.62028   3.66235   3.68056   3.72727
 Alpha virt. eigenvalues --    3.77131   3.78158   3.79836   3.89070   3.90381
 Alpha virt. eigenvalues --    3.93168   3.99174   3.99771   4.05590   4.07866
 Alpha virt. eigenvalues --    4.09168   4.12402   4.13610   4.16359   4.17473
 Alpha virt. eigenvalues --    4.19126   4.23793   4.31267   4.35150   4.37753
 Alpha virt. eigenvalues --    4.42456   4.45153   4.47492   4.50443   4.58227
 Alpha virt. eigenvalues --    4.63642   4.67818   4.76151   4.80119   4.84462
 Alpha virt. eigenvalues --    4.93307   4.98031   5.07373   5.07480   5.32476
 Alpha virt. eigenvalues --    5.42635   5.52485   5.58226   5.62606   5.66236
 Alpha virt. eigenvalues --    5.69499   5.73280   5.75342   5.76303   5.83236
 Alpha virt. eigenvalues --    5.95705   6.00733   6.02888   6.10346   6.11685
 Alpha virt. eigenvalues --    6.12212   6.14901   6.18254   6.21180   6.23104
 Alpha virt. eigenvalues --    6.23299   6.24917   6.28671   6.32791   6.35649
 Alpha virt. eigenvalues --    6.38217   6.39104   6.42280   6.44044   6.44761
 Alpha virt. eigenvalues --    6.47901   6.50315   6.51759   6.52409   6.53702
 Alpha virt. eigenvalues --    6.55053   6.58251   6.61825   6.64088   6.70568
 Alpha virt. eigenvalues --    6.73009   6.74756   6.79707   6.81912   6.84363
 Alpha virt. eigenvalues --    6.89582   6.92999   6.94877   7.01328   7.02888
 Alpha virt. eigenvalues --    7.06686   7.08815   7.16235   7.21629   7.22455
 Alpha virt. eigenvalues --    7.26173   7.29990   7.33118   7.35010   7.39494
 Alpha virt. eigenvalues --    7.40577   7.47899   7.52150   7.57464   7.60079
 Alpha virt. eigenvalues --    7.62093   7.66857   7.76682   7.79966   7.80679
 Alpha virt. eigenvalues --    7.84669   7.85310   7.88350   7.90733   7.94545
 Alpha virt. eigenvalues --    7.97978   8.02766   8.03484   8.04521   8.09304
 Alpha virt. eigenvalues --    8.11997   8.13503   8.15143   8.16410   8.18094
 Alpha virt. eigenvalues --    8.22881   8.24405   8.26494   8.30877   8.31055
 Alpha virt. eigenvalues --    8.32147   8.36906   8.44647   8.45204   8.46502
 Alpha virt. eigenvalues --    8.50732   8.63886   8.65692   8.68347   8.72304
 Alpha virt. eigenvalues --    8.74212   8.75551   8.79782   8.81083   8.83596
 Alpha virt. eigenvalues --    8.85430   8.87403   8.88995   8.90155   8.93668
 Alpha virt. eigenvalues --    8.96790   8.99995   9.03018   9.04777   9.08321
 Alpha virt. eigenvalues --    9.10375   9.13027   9.15734   9.21979   9.27305
 Alpha virt. eigenvalues --    9.29944   9.31831   9.36465   9.37633   9.40898
 Alpha virt. eigenvalues --    9.42470   9.49210   9.50847   9.52074   9.59702
 Alpha virt. eigenvalues --    9.73158   9.78547   9.95039  10.04988  10.06921
 Alpha virt. eigenvalues --   10.10205  10.12110  10.14320  10.21124  10.23951
 Alpha virt. eigenvalues --   10.28267  10.33221  10.37073  10.39876  10.43628
 Alpha virt. eigenvalues --   10.47502  10.51301  10.55361  10.59793  10.62841
 Alpha virt. eigenvalues --   10.69300  10.70413  10.74833  10.76846  10.88198
 Alpha virt. eigenvalues --   10.91148  10.97913  11.03469  11.14116  11.34538
 Alpha virt. eigenvalues --   11.35785  11.46385  11.59619  11.62949  11.66520
 Alpha virt. eigenvalues --   11.73381  11.81700  11.90103  11.91899  11.98850
 Alpha virt. eigenvalues --   12.01388  12.07019  12.25254  12.33887  12.41051
 Alpha virt. eigenvalues --   12.54050  12.61379  12.62028  12.72243  12.75030
 Alpha virt. eigenvalues --   12.77015  12.80769  12.83104  13.05638  13.15546
 Alpha virt. eigenvalues --   13.23797  13.30979  13.56329  13.68864  14.07165
 Alpha virt. eigenvalues --   14.34378  14.37399  15.09042  16.57114  26.18591
 Alpha virt. eigenvalues --   26.98636  42.55584  44.37298
          Condensed to atoms (all electrons):
               1          2          3          4          5          6
     1  C    4.716834   0.378106  -0.042788   0.006750  -0.000280   0.412970
     2  C    0.378106   4.547763   0.277839  -0.066283  -0.000980  -0.029635
     3  O   -0.042788   0.277839   8.039605   0.094599  -0.033893  -0.003787
     4  O    0.006750  -0.066283   0.094599   7.909408   0.336862  -0.000344
     5  H   -0.000280  -0.000980  -0.033893   0.336862   0.421737   0.000032
     6  H    0.412970  -0.029635  -0.003787  -0.000344   0.000032   0.595593
     7  H   -0.034156   0.414309  -0.046411   0.004063   0.001373   0.007399
     8  H   -0.050256   0.414762  -0.038345   0.005155  -0.000148  -0.007177
     9  H    0.400690  -0.035174   0.004960  -0.000303   0.000068  -0.027176
    10  H    0.412474  -0.036742   0.000779   0.000981  -0.000043  -0.023625
               7          8          9         10
     1  C   -0.034156  -0.050256   0.400690   0.412474
     2  C    0.414309   0.414762  -0.035174  -0.036742
     3  O   -0.046411  -0.038345   0.004960   0.000779
     4  O    0.004063   0.005155  -0.000303   0.000981
     5  H    0.001373  -0.000148   0.000068  -0.000043
     6  H    0.007399  -0.007177  -0.027176  -0.023625
     7  H    0.643603  -0.043531  -0.000560  -0.006404
     8  H   -0.043531   0.651784   0.002355   0.007842
     9  H   -0.000560   0.002355   0.619149  -0.022023
    10  H   -0.006404   0.007842  -0.022023   0.585919
 Mulliken charges:
               1
     1  C   -0.200343
     2  C    0.136036
     3  O   -0.252557
     4  O   -0.290888
     5  H    0.275273
     6  H    0.075751
     7  H    0.060314
     8  H    0.057560
     9  H    0.058015
    10  H    0.080841
 Sum of Mulliken charges =   0.00000
 Mulliken charges with hydrogens summed into heavy atoms:
               1
     1  C    0.014263
     2  C    0.253909
     3  O   -0.252557
     4  O   -0.015615
 Electronic spatial extent (au):  <R**2>=            993.6671
 Charge=              0.0000 electrons
 Dipole moment (field-independent basis, Debye):
    X=              0.1822    Y=              1.8412    Z=             -0.0853  Tot=              1.8522
 Quadrupole moment (field-independent basis, Debye-Ang):
   XX=            -24.6333   YY=            -29.8346   ZZ=            -21.2431
   XY=              0.8088   XZ=              2.2728   YZ=             -2.6740
 Traceless Quadrupole moment (field-independent basis, Debye-Ang):
   XX=              0.6037   YY=             -4.5976   ZZ=              3.9939
   XY=              0.8088   XZ=              2.2728   YZ=             -2.6740
 Octapole moment (field-independent basis, Debye-Ang**2):
  XXX=             -2.2220  YYY=             89.7745  ZZZ=            149.4442  XYY=             -4.2110
  XXY=             27.8399  XXZ=             57.6045  XZZ=             -2.8057  YZZ=             26.9652
  YYZ=             59.9802  XYZ=             -3.6105
 Hexadecapole moment (field-independent basis, Debye-Ang**3):
 XXXX=           -141.9966 YYYY=           -262.3283 ZZZZ=           -864.2080 XXXY=             21.7345
 XXXZ=            -47.0439 YYYX=             27.1634 YYYZ=           -161.4417 ZZZX=            -53.7456
 ZZZY=           -148.6206 XXYY=            -70.4235 XXZZ=           -179.4580 YYZZ=           -191.6445
 XXYZ=            -57.0873 YYXZ=            -11.2432 ZZXY=              8.5209
 N-N= 1.307291544295D+02 E-N=-8.011173521671D+02  KE= 2.285564624162D+02
 Leave Link  601 at Thu Dec 21 19:29:36 2017, MaxMem=  3489660928 cpu:         0.5
 (Enter /home/michal/g09/l9999.exe)
 1\1\GINC-LINUX\SP\RMP2-FC\CC-pVQZ\C2H6O2\MICHAL\21-Dec-2017\0\\#P MP2/
 cc-pVQZ SP Nosymm\\PEscan\\0,1\C,0,-0.92236,-0.99614,-3.47833\C,0,-0.0
 5708,-0.41058,-2.37329\O,0,-0.02092,-1.3229,-1.26529\O,0,1.36661,-1.70
 431,-1.04717\H,0,1.50961,-1.26527,-0.19172\H,0,-1.93382,-1.21509,-3.10
 045\H,0,0.97439,-0.24191,-2.71791\H,0,-0.46817,0.55179,-2.01264\H,0,-1
 .01212,-0.28414,-4.31616\H,0,-0.48098,-1.93357,-3.85146\\Version=EM64L
 -G09RevD.01\HF=-228.9389504\MP2=-229.8405489\RMSD=2.894e-09\PG=C01 [X(
 C2H6O2)]\\@


                                                                                    A
                                                                                  AA
                                                                                 AAA
                                                                                AAAA
                                                                               AAAAA
                                                                              AAAAAA   KKKKKKKK
                                                                             AAAAAAA   KKKKKKKK
                                                                            AAAAAAAA   KKKKKKKK
                                       ZZZZZZZZZZZZZZZZZZZZ                AAAA  AAA   KKKKKKKK
                                       ZZZZZZZZZZZZZZZZZZZ                AAAA   AAA   KKKKKKKK          K
                                       ZZZZZZZZZZZZZZZZZZ                AAAA    AAA   KKKKKKKK         KKK
                                       ZZZZZZZZZZZZZZZZZ                AAAA     AAA   KKKKKKKK        KKKKK
                                       ZZZZZZZZZZZZZZZZ                AAAA      AAA   KKKKKKKK       KKKKKKK
                                                ZZZZZZ                AAAA       AAA   KKKKKKKK      KKKKKKK
                                               ZZZZZZ                AAAA        AAA   KKKKKKKK     KKKKKKK
                                              ZZZZZZ                AAAA         AAA   KKKKKKKK    KKKKKKK
                                             ZZZZZZ                AAAA          AAA   KKKKKKKK   KKKKKKK
                                            ZZZZZZ                AAAAAAAAAAAAAAAAAA   KKKKKKKK  KKKKKKK
                                           ZZZZZZ                AAAAAAAAAAAAAAAAAAA   KKKKKKKK KKKKKKK
                                          ZZZZZZ                AAAAAAAAAAAAAAAAAAAA   KKKKKKKKKKKKKKK
                                         ZZZZZZ                AAAAAAAAAAAAAAAAAAAAA   KKKKKKKKKKKKKK
                                        ZZZZZZ                AAAAAA        AAAAAAAA   KKKKKKKKKKKKK
                                       ZZZZZZ                AAAAAA         AAAAAAAA   KKKKKKKKKKKK
                                      ZZZZZZ                AAAAAA          AAAAAAAA   KKKKKKKKKKK
                                     ZZZZZZ                AAAAAA           AAAAAAAA   KKKKKKKKKKKK
                                    ZZZZZZ                AAAAAA            AAAAAAAA   KKKKKKKKKKKKK
                                   ZZZZZZ                AAAAAA             AAAAAAAA   KKKKKKKKKKKKKK
                                  ZZZZZZ                AAAAAA              AAAAAAAA   KKKKKKKKKKKKKKK
                                 ZZZZZZ                AAAAAA               AAAAAAAA   KKKKK KKKKKKKKKK
                                ZZZZZZ                AAAAAA                AAAAAAAA   KKKKK  KKKKKKKKKK
                               ZZZZZZ                AAAAAA                            KKKKK   KKKKKKKKKK
                              ZZZZZZ                AAAAAA                             KKKKK    KKKKKKKKKK
                             ZZZZZZ                                                    KKKKK     KKKKKKKKKK
                            ZZZZZZ                                                     KKKKK      KKKKKKKKKK
                           ZZZZZZ                                                      KKKKK       KKKKKKKKKK
                          ZZZZZZ                                                       KKKKK        KKKKKKKKKK
                         ZZZZZZZZZZZZZZZZZZZZZZZZZZZZZZZZZZZZZZZZ                      KKKKK         KKKKKKKKKK
                        ZZZZZZZZZZZZZZZZZZZZZZZZZZZZZZZZZZZZZZZZZ                      KKKKK          KKKKKKKKKK
                       ZZZZZZZZZZZZZZZZZZZZZZZZZZZZZZZZZZZZZZZZZZ                      KKKKK           KKKKKKKKKK
                       ZZZZZZZZZZZZZZZZZZZZZZZZZZZZZZZZZZZZZZZZZZ                      KKKKK            KKKKKKKKKK
                       ZZZZZZZZZZZZZZZZZZZZZZZZZZZZZZZZZZZZZZZZZZ                      KKKKK             KKKKKKKKKK
                       ZZZZZZZZZZZZZZZZZZZZZZZZZZZZZZZZZZZZZZZZZZ                      KKKKK              KKKKKKKKKK
                       ZZZZZZZZZZZZZZZZZZZZZZZZZZZZZZZZZZZZZZZZZZ                      KKKKK               KKKKKKKKKK
                       ZZZZZZZZZZZZZZZZZZZZZZZZZZZZZZZZZZZZZZZZZZ                      KKKKK                KKKKKKKKKK
                       ZZZZZZZZZZZZZZZZZZZZZZZZZZZZZZZZZZZZZZZZZZ                      KKKKK
                                                                                       KKKKK
                                                                                          (J.P.)
 Job cpu time:       0 days  1 hours  2 minutes 32.5 seconds.
 File lengths (MBytes):  RWF=    699 Int=      0 D2E=      0 Chk=      8 Scr=      1
 Normal termination of Gaussian 09 at Thu Dec 21 19:29:36 2017.
