 Entering Gaussian System, Link 0=g09
 Input=1HPP_mp2qz_035.com
 Output=1HPP_mp2qz_035.log
 Initial command:
 /home/michal/g09/l1.exe "/home/michal/gauss_scratch/Gau-14315.inp" -scrdir="/home/michal/gauss_scratch/"
 Entering Link 1 = /home/michal/g09/l1.exe PID=     14316.
  
 Copyright (c) 1988,1990,1992,1993,1995,1998,2003,2009,2013,
            Gaussian, Inc.  All Rights Reserved.
  
 This is part of the Gaussian(R) 09 program.  It is based on
 the Gaussian(R) 03 system (copyright 2003, Gaussian, Inc.),
 the Gaussian(R) 98 system (copyright 1998, Gaussian, Inc.),
 the Gaussian(R) 94 system (copyright 1995, Gaussian, Inc.),
 the Gaussian 92(TM) system (copyright 1992, Gaussian, Inc.),
 the Gaussian 90(TM) system (copyright 1990, Gaussian, Inc.),
 the Gaussian 88(TM) system (copyright 1988, Gaussian, Inc.),
 the Gaussian 86(TM) system (copyright 1986, Carnegie Mellon
 University), and the Gaussian 82(TM) system (copyright 1983,
 Carnegie Mellon University). Gaussian is a federally registered
 trademark of Gaussian, Inc.
  
 This software contains proprietary and confidential information,
 including trade secrets, belonging to Gaussian, Inc.
  
 This software is provided under written license and may be
 used, copied, transmitted, or stored only in accord with that
 written license.
  
 The following legend is applicable only to US Government
 contracts under FAR:
  
                    RESTRICTED RIGHTS LEGEND
  
 Use, reproduction and disclosure by the US Government is
 subject to restrictions as set forth in subparagraphs (a)
 and (c) of the Commercial Computer Software - Restricted
 Rights clause in FAR 52.227-19.
  
 Gaussian, Inc.
 340 Quinnipiac St., Bldg. 40, Wallingford CT 06492
  
  
 ---------------------------------------------------------------
 Warning -- This program may not be used in any manner that
 competes with the business of Gaussian, Inc. or will provide
 assistance to any competitor of Gaussian, Inc.  The licensee
 of this program is prohibited from giving any competitor of
 Gaussian, Inc. access to this program.  By using this program,
 the user acknowledges that Gaussian, Inc. is engaged in the
 business of creating and licensing software in the field of
 computational chemistry and represents and warrants to the
 licensee that it is not a competitor of Gaussian, Inc. and that
 it will not use this program in any manner prohibited above.
 ---------------------------------------------------------------
  

 Cite this work as:
 Gaussian 09, Revision D.01,
 M. J. Frisch, G. W. Trucks, H. B. Schlegel, G. E. Scuseria, 
 M. A. Robb, J. R. Cheeseman, G. Scalmani, V. Barone, B. Mennucci, 
 G. A. Petersson, H. Nakatsuji, M. Caricato, X. Li, H. P. Hratchian, 
 A. F. Izmaylov, J. Bloino, G. Zheng, J. L. Sonnenberg, M. Hada, 
 M. Ehara, K. Toyota, R. Fukuda, J. Hasegawa, M. Ishida, T. Nakajima, 
 Y. Honda, O. Kitao, H. Nakai, T. Vreven, J. A. Montgomery, Jr., 
 J. E. Peralta, F. Ogliaro, M. Bearpark, J. J. Heyd, E. Brothers, 
 K. N. Kudin, V. N. Staroverov, T. Keith, R. Kobayashi, J. Normand, 
 K. Raghavachari, A. Rendell, J. C. Burant, S. S. Iyengar, J. Tomasi, 
 M. Cossi, N. Rega, J. M. Millam, M. Klene, J. E. Knox, J. B. Cross, 
 V. Bakken, C. Adamo, J. Jaramillo, R. Gomperts, R. E. Stratmann, 
 O. Yazyev, A. J. Austin, R. Cammi, C. Pomelli, J. W. Ochterski, 
 R. L. Martin, K. Morokuma, V. G. Zakrzewski, G. A. Voth, 
 P. Salvador, J. J. Dannenberg, S. Dapprich, A. D. Daniels, 
 O. Farkas, J. B. Foresman, J. V. Ortiz, J. Cioslowski, 
 and D. J. Fox, Gaussian, Inc., Wallingford CT, 2013.
 
 ******************************************
 Gaussian 09:  EM64L-G09RevD.01 24-Apr-2013
                21-Dec-2017 
 ******************************************
 %Mem=26GB
 %NProc=12
 Will use up to   12 processors via shared memory.
 %RWF=/home/michal/Cholesterol_grant/peroxy_params,20GB
 ------------------------
 #P MP2/cc-pVQZ SP Nosymm
 ------------------------
 1/38=1/1;
 2/12=2,15=1,17=6,18=5,40=1/2;
 3/5=16,6=2,11=9,16=1,25=1,30=1/1,2,3;
 4//1;
 5/5=2,38=5/2;
 8/10=1/1;
 9/16=-3/6;
 6/7=2,8=2,9=2,10=2/1;
 99/5=1,9=1/99;
 Leave Link    1 at Thu Dec 21 19:47:41 2017, MaxMem=  3489660928 cpu:         0.3
 (Enter /home/michal/g09/l101.exe)
 ------
 PEscan
 ------
 Symbolic Z-matrix:
 Charge =  0 Multiplicity = 1
 C                    -0.97474  -0.97364  -3.47661 
 C                     0.05577  -0.5156   -2.45715 
 O                     0.18923  -1.58108  -1.5215 
 O                     1.46815  -1.37816  -0.85357 
 H                     1.14204  -1.19248   0.04335 
 H                    -1.93432  -1.20487  -2.98694 
 H                     1.03106  -0.33689  -2.94138 
 H                    -0.2543    0.41743  -1.9461 
 H                    -1.14791  -0.17907  -4.22021 
 H                    -0.61982  -1.87774  -3.99431 
 
 NAtoms=     10 NQM=       10 NQMF=       0 NMMI=      0 NMMIF=      0
                NMic=       0 NMicF=      0.
                    Isotopes and Nuclear Properties:
 (Nuclear quadrupole moments (NQMom) in fm**2, nuclear magnetic moments (NMagM)
  in nuclear magnetons)

  Atom         1           2           3           4           5           6           7           8           9          10
 IAtWgt=          12          12          16          16           1           1           1           1           1           1
 AtmWgt=  12.0000000  12.0000000  15.9949146  15.9949146   1.0078250   1.0078250   1.0078250   1.0078250   1.0078250   1.0078250
 NucSpn=           0           0           0           0           1           1           1           1           1           1
 AtZEff=   0.0000000   0.0000000   0.0000000   0.0000000   0.0000000   0.0000000   0.0000000   0.0000000   0.0000000   0.0000000
 NQMom=    0.0000000   0.0000000   0.0000000   0.0000000   0.0000000   0.0000000   0.0000000   0.0000000   0.0000000   0.0000000
 NMagM=    0.0000000   0.0000000   0.0000000   0.0000000   2.7928460   2.7928460   2.7928460   2.7928460   2.7928460   2.7928460
 AtZNuc=   6.0000000   6.0000000   8.0000000   8.0000000   1.0000000   1.0000000   1.0000000   1.0000000   1.0000000   1.0000000
 Leave Link  101 at Thu Dec 21 19:47:41 2017, MaxMem=  3489660928 cpu:         0.5
 (Enter /home/michal/g09/l202.exe)
                          Input orientation:                          
 ---------------------------------------------------------------------
 Center     Atomic      Atomic             Coordinates (Angstroms)
 Number     Number       Type             X           Y           Z
 ---------------------------------------------------------------------
      1          6           0       -0.974740   -0.973640   -3.476610
      2          6           0        0.055770   -0.515600   -2.457150
      3          8           0        0.189230   -1.581080   -1.521500
      4          8           0        1.468150   -1.378160   -0.853570
      5          1           0        1.142040   -1.192480    0.043350
      6          1           0       -1.934320   -1.204870   -2.986940
      7          1           0        1.031060   -0.336890   -2.941380
      8          1           0       -0.254300    0.417430   -1.946100
      9          1           0       -1.147910   -0.179070   -4.220210
     10          1           0       -0.619820   -1.877740   -3.994310
 ---------------------------------------------------------------------
                    Distance matrix (angstroms):
                    1          2          3          4          5
     1  C    0.000000
     2  C    1.520214   0.000000
     3  O    2.355051   1.424254   0.000000
     4  O    3.607172   2.304408   1.457032   0.000000
     5  H    4.113243   2.809030   1.872862   0.972260   0.000000
     6  H    1.101834   2.171688   2.607396   4.019714   4.318194
     7  H    2.171441   1.103452   2.067062   2.373656   3.106922
     8  H    2.190107   1.108089   2.090705   2.717462   2.915388
     9  H    1.101939   2.161129   3.322140   4.428979   4.944574
    10  H    1.100626   2.162107   2.618656   3.804398   4.458299
                    6          7          8          9         10
     6  H    0.000000
     7  H    3.090136   0.000000
     8  H    2.556887   1.792130   0.000000
     9  H    1.786522   2.531447   2.515140   0.000000
    10  H    1.787585   2.491643   3.097834   1.793151   0.000000
 Symmetry turned off by external request.
 Stoichiometry    C2H6O2
 Framework group  C1[X(C2H6O2)]
 Deg. of freedom    24
 Full point group                 C1      NOp   1
 Rotational constants (GHZ):     29.5575742      4.1769358      3.9272117
 Leave Link  202 at Thu Dec 21 19:47:41 2017, MaxMem=  3489660928 cpu:         0.0
 (Enter /home/michal/g09/l301.exe)
 Standard basis: CC-pVQZ (5D, 7F)
 Ernie: Thresh=  0.10000D-02 Tol=  0.10000D-05 Strict=F.
 Ernie:  12 primitive shells out of 204 were deleted.
   400 basis functions,   578 primitive gaussians,   490 cartesian basis functions
    17 alpha electrons       17 beta electrons
       nuclear repulsion energy       130.7925707921 Hartrees.
 IExCor=    0 DFT=F Ex=HF Corr=None ExCW=0 ScaHFX=  1.000000
 ScaDFX=  1.000000  1.000000  1.000000  1.000000 ScalE2=  1.000000  1.000000
 IRadAn=      0 IRanWt=     -1 IRanGd=            0 ICorTp=0 IEmpDi=  4
 NAtoms=   10 NActive=   10 NUniq=   10 SFac= 1.00D+00 NAtFMM=   60 NAOKFM=F Big=F
 Integral buffers will be    131072 words long.
 Raffenetti 1 integral format.
 Two-electron integral symmetry is turned off.
 Leave Link  301 at Thu Dec 21 19:47:41 2017, MaxMem=  3489660928 cpu:         0.3
 (Enter /home/michal/g09/l302.exe)
 NPDir=0 NMtPBC=     1 NCelOv=     1 NCel=       1 NClECP=     1 NCelD=      1
         NCelK=      1 NCelE2=     1 NClLst=     1 CellRange=     0.0.
 One-electron integrals computed using PRISM.
 NBasis=   400 RedAO= T EigKep=  1.38D-04  NBF=   400
 NBsUse=   400 1.00D-06 EigRej= -1.00D+00 NBFU=   400
 Leave Link  302 at Thu Dec 21 19:47:41 2017, MaxMem=  3489660928 cpu:         6.1
 (Enter /home/michal/g09/l303.exe)
 DipDrv:  MaxL=1.
 Leave Link  303 at Thu Dec 21 19:47:41 2017, MaxMem=  3489660928 cpu:         0.5
 (Enter /home/michal/g09/l401.exe)
 ExpMin= 8.99D-02 ExpMax= 6.14D+04 ExpMxC= 5.91D+02 IAcc=2 IRadAn=         4 AccDes= 0.00D+00
 Harris functional with IExCor=  205 and IRadAn=       4 diagonalized for initial guess.
 HarFok:  IExCor=  205 AccDes= 0.00D+00 IRadAn=         4 IDoV= 1 UseB2=F ITyADJ=14
 ICtDFT=  3500011 ScaDFX=  1.000000  1.000000  1.000000  1.000000
 FoFCou: FMM=F IPFlag=           0 FMFlag=      100000 FMFlg1=           0
         NFxFlg=           0 DoJE=T BraDBF=F KetDBF=T FulRan=T
         wScrn=  0.000000 ICntrl=     500 IOpCl=  0 I1Cent=   200000004 NGrid=           0
         NMat0=    1 NMatS0=      1 NMatT0=    0 NMatD0=    1 NMtDS0=    0 NMtDT0=    0
 Symmetry not used in FoFCou.
 Harris En= -229.245561899838    
 JPrj=0 DoOrth=F DoCkMO=F.
 Leave Link  401 at Thu Dec 21 19:47:42 2017, MaxMem=  3489660928 cpu:        10.5
 (Enter /home/michal/g09/l502.exe)
 Closed shell SCF:
 Using DIIS extrapolation, IDIIS=  1040.
 Two-electron integral symmetry not used.
 Keep R1 ints in memory in canonical form, NReq=3275992930.
 IVT=      747690 IEndB=      747690 NGot=  3489660928 MDV=   272853139
 LenX=   272853139 LenY=   272612549
 Requested convergence on RMS density matrix=1.00D-08 within 128 cycles.
 Requested convergence on MAX density matrix=1.00D-06.
 Requested convergence on             energy=1.00D-06.
 No special actions if energy rises.
 FoFCou: FMM=F IPFlag=           0 FMFlag=           0 FMFlg1=           0
         NFxFlg=           0 DoJE=F BraDBF=F KetDBF=F FulRan=T
         wScrn=  0.000000 ICntrl=     600 IOpCl=  0 I1Cent=           0 NGrid=           0
         NMat0=    1 NMatS0=  80200 NMatT0=    0 NMatD0=    1 NMtDS0=    0 NMtDT0=    0
 Symmetry not used in FoFCou.

 Cycle   1  Pass 1  IDiag  1:
 E= -228.743714564803    
 DIIS: error= 3.47D-02 at cycle   1 NSaved=   1.
 NSaved= 1 IEnMin= 1 EnMin= -228.743714564803     IErMin= 1 ErrMin= 3.47D-02
 ErrMax= 3.47D-02  0.00D+00 EMaxC= 1.00D-01 BMatC= 4.77D-01 BMatP= 4.77D-01
 IDIUse=3 WtCom= 6.53D-01 WtEn= 3.47D-01
 Coeff-Com:  0.100D+01
 Coeff-En:   0.100D+01
 Coeff:      0.100D+01
 Gap=     0.706 Goal=   None    Shift=    0.000
 GapD=    0.706 DampG=2.000 DampE=0.500 DampFc=1.0000 IDamp=-1.
 RMSDP=7.74D-04 MaxDP=4.09D-02              OVMax= 1.21D-01

 Cycle   2  Pass 1  IDiag  1:
 E= -228.913561221859     Delta-E=       -0.169846657056 Rises=F Damp=F
 DIIS: error= 1.22D-02 at cycle   2 NSaved=   2.
 NSaved= 2 IEnMin= 2 EnMin= -228.913561221859     IErMin= 2 ErrMin= 1.22D-02
 ErrMax= 1.22D-02  0.00D+00 EMaxC= 1.00D-01 BMatC= 3.57D-02 BMatP= 4.77D-01
 IDIUse=3 WtCom= 8.78D-01 WtEn= 1.22D-01
 Coeff-Com:  0.122D+00 0.878D+00
 Coeff-En:   0.000D+00 0.100D+01
 Coeff:      0.108D+00 0.892D+00
 Gap=     0.661 Goal=   None    Shift=    0.000
 RMSDP=3.42D-04 MaxDP=1.83D-02 DE=-1.70D-01 OVMax= 4.63D-02

 Cycle   3  Pass 1  IDiag  1:
 E= -228.939618456174     Delta-E=       -0.026057234315 Rises=F Damp=F
 DIIS: error= 3.68D-03 at cycle   3 NSaved=   3.
 NSaved= 3 IEnMin= 3 EnMin= -228.939618456174     IErMin= 3 ErrMin= 3.68D-03
 ErrMax= 3.68D-03  0.00D+00 EMaxC= 1.00D-01 BMatC= 3.80D-03 BMatP= 3.57D-02
 IDIUse=3 WtCom= 9.63D-01 WtEn= 3.68D-02
 Coeff-Com: -0.209D-01 0.212D+00 0.809D+00
 Coeff-En:   0.000D+00 0.000D+00 0.100D+01
 Coeff:     -0.201D-01 0.204D+00 0.816D+00
 Gap=     0.563 Goal=   None    Shift=    0.000
 RMSDP=7.35D-05 MaxDP=4.46D-03 DE=-2.61D-02 OVMax= 1.21D-02

 Cycle   4  Pass 1  IDiag  1:
 E= -228.942667967563     Delta-E=       -0.003049511388 Rises=F Damp=F
 DIIS: error= 5.94D-04 at cycle   4 NSaved=   4.
 NSaved= 4 IEnMin= 4 EnMin= -228.942667967563     IErMin= 4 ErrMin= 5.94D-04
 ErrMax= 5.94D-04  0.00D+00 EMaxC= 1.00D-01 BMatC= 1.80D-04 BMatP= 3.80D-03
 IDIUse=3 WtCom= 9.94D-01 WtEn= 5.94D-03
 Coeff-Com: -0.815D-02 0.428D-01 0.240D+00 0.726D+00
 Coeff-En:   0.000D+00 0.000D+00 0.000D+00 0.100D+01
 Coeff:     -0.810D-02 0.425D-01 0.238D+00 0.727D+00
 Gap=     0.559 Goal=   None    Shift=    0.000
 RMSDP=2.07D-05 MaxDP=1.31D-03 DE=-3.05D-03 OVMax= 3.06D-03

 Cycle   5  Pass 1  IDiag  1:
 E= -228.942797320232     Delta-E=       -0.000129352669 Rises=F Damp=F
 DIIS: error= 3.15D-04 at cycle   5 NSaved=   5.
 NSaved= 5 IEnMin= 5 EnMin= -228.942797320232     IErMin= 5 ErrMin= 3.15D-04
 ErrMax= 3.15D-04  0.00D+00 EMaxC= 1.00D-01 BMatC= 1.75D-05 BMatP= 1.80D-04
 IDIUse=3 WtCom= 9.97D-01 WtEn= 3.15D-03
 Coeff-Com:  0.189D-02-0.268D-01-0.882D-01 0.125D+00 0.989D+00
 Coeff-En:   0.000D+00 0.000D+00 0.000D+00 0.000D+00 0.100D+01
 Coeff:      0.188D-02-0.267D-01-0.879D-01 0.124D+00 0.989D+00
 Gap=     0.560 Goal=   None    Shift=    0.000
 RMSDP=1.15D-05 MaxDP=5.35D-04 DE=-1.29D-04 OVMax= 1.79D-03

 Cycle   6  Pass 1  IDiag  1:
 E= -228.942821372575     Delta-E=       -0.000024052344 Rises=F Damp=F
 DIIS: error= 6.06D-05 at cycle   6 NSaved=   6.
 NSaved= 6 IEnMin= 6 EnMin= -228.942821372575     IErMin= 6 ErrMin= 6.06D-05
 ErrMax= 6.06D-05  0.00D+00 EMaxC= 1.00D-01 BMatC= 7.53D-07 BMatP= 1.75D-05
 IDIUse=1 WtCom= 1.00D+00 WtEn= 0.00D+00
 Coeff-Com:  0.597D-03-0.451D-02-0.179D-01-0.451D-01 0.497D-01 0.102D+01
 Coeff:      0.597D-03-0.451D-02-0.179D-01-0.451D-01 0.497D-01 0.102D+01
 Gap=     0.560 Goal=   None    Shift=    0.000
 RMSDP=3.23D-06 MaxDP=1.99D-04 DE=-2.41D-05 OVMax= 3.50D-04

 Cycle   7  Pass 1  IDiag  1:
 E= -228.942822758775     Delta-E=       -0.000001386200 Rises=F Damp=F
 DIIS: error= 1.41D-05 at cycle   7 NSaved=   7.
 NSaved= 7 IEnMin= 7 EnMin= -228.942822758775     IErMin= 7 ErrMin= 1.41D-05
 ErrMax= 1.41D-05  0.00D+00 EMaxC= 1.00D-01 BMatC= 6.85D-08 BMatP= 7.53D-07
 IDIUse=1 WtCom= 1.00D+00 WtEn= 0.00D+00
 Coeff-Com: -0.225D-04 0.980D-03 0.303D-02-0.135D-01-0.562D-01 0.104D+00
 Coeff-Com:  0.962D+00
 Coeff:     -0.225D-04 0.980D-03 0.303D-02-0.135D-01-0.562D-01 0.104D+00
 Coeff:      0.962D+00
 Gap=     0.560 Goal=   None    Shift=    0.000
 RMSDP=8.19D-07 MaxDP=3.78D-05 DE=-1.39D-06 OVMax= 1.25D-04

 Cycle   8  Pass 1  IDiag  1:
 E= -228.942822889070     Delta-E=       -0.000000130295 Rises=F Damp=F
 DIIS: error= 3.86D-06 at cycle   8 NSaved=   8.
 NSaved= 8 IEnMin= 8 EnMin= -228.942822889070     IErMin= 8 ErrMin= 3.86D-06
 ErrMax= 3.86D-06  0.00D+00 EMaxC= 1.00D-01 BMatC= 1.07D-08 BMatP= 6.85D-08
 IDIUse=1 WtCom= 1.00D+00 WtEn= 0.00D+00
 Coeff-Com: -0.764D-04 0.621D-03 0.248D-02 0.676D-02-0.679D-02-0.146D+00
 Coeff-Com:  0.610D-01 0.108D+01
 Coeff:     -0.764D-04 0.621D-03 0.248D-02 0.676D-02-0.679D-02-0.146D+00
 Coeff:      0.610D-01 0.108D+01
 Gap=     0.560 Goal=   None    Shift=    0.000
 RMSDP=3.99D-07 MaxDP=1.45D-05 DE=-1.30D-07 OVMax= 8.02D-05

 Cycle   9  Pass 1  IDiag  1:
 E= -228.942822914465     Delta-E=       -0.000000025395 Rises=F Damp=F
 DIIS: error= 1.23D-06 at cycle   9 NSaved=   9.
 NSaved= 9 IEnMin= 9 EnMin= -228.942822914465     IErMin= 9 ErrMin= 1.23D-06
 ErrMax= 1.23D-06  0.00D+00 EMaxC= 1.00D-01 BMatC= 1.11D-09 BMatP= 1.07D-08
 IDIUse=1 WtCom= 1.00D+00 WtEn= 0.00D+00
 Coeff-Com:  0.155D-04-0.192D-03-0.774D-03-0.276D-03 0.691D-02 0.210D-01
 Coeff-Com: -0.105D+00-0.246D+00 0.132D+01
 Coeff:      0.155D-04-0.192D-03-0.774D-03-0.276D-03 0.691D-02 0.210D-01
 Coeff:     -0.105D+00-0.246D+00 0.132D+01
 Gap=     0.560 Goal=   None    Shift=    0.000
 RMSDP=1.56D-07 MaxDP=6.90D-06 DE=-2.54D-08 OVMax= 4.02D-05

 Cycle  10  Pass 1  IDiag  1:
 E= -228.942822918557     Delta-E=       -0.000000004092 Rises=F Damp=F
 DIIS: error= 5.18D-07 at cycle  10 NSaved=  10.
 NSaved=10 IEnMin=10 EnMin= -228.942822918557     IErMin=10 ErrMin= 5.18D-07
 ErrMax= 5.18D-07  0.00D+00 EMaxC= 1.00D-01 BMatC= 1.53D-10 BMatP= 1.11D-09
 IDIUse=1 WtCom= 1.00D+00 WtEn= 0.00D+00
 Coeff-Com:  0.700D-05-0.561D-04-0.223D-03-0.771D-03 0.306D-03 0.150D-01
 Coeff-Com:  0.146D-02-0.112D+00-0.718D-01 0.117D+01
 Coeff:      0.700D-05-0.561D-04-0.223D-03-0.771D-03 0.306D-03 0.150D-01
 Coeff:      0.146D-02-0.112D+00-0.718D-01 0.117D+01
 Gap=     0.560 Goal=   None    Shift=    0.000
 RMSDP=5.34D-08 MaxDP=2.64D-06 DE=-4.09D-09 OVMax= 1.63D-05

 Cycle  11  Pass 1  IDiag  1:
 E= -228.942822919107     Delta-E=       -0.000000000550 Rises=F Damp=F
 DIIS: error= 2.48D-07 at cycle  11 NSaved=  11.
 NSaved=11 IEnMin=11 EnMin= -228.942822919107     IErMin=11 ErrMin= 2.48D-07
 ErrMax= 2.48D-07  0.00D+00 EMaxC= 1.00D-01 BMatC= 2.90D-11 BMatP= 1.53D-10
 IDIUse=1 WtCom= 1.00D+00 WtEn= 0.00D+00
 Coeff-Com: -0.272D-05 0.343D-04 0.141D-03 0.136D-03-0.107D-02-0.577D-02
 Coeff-Com:  0.192D-01 0.545D-01-0.244D+00-0.400D-01 0.122D+01
 Coeff:     -0.272D-05 0.343D-04 0.141D-03 0.136D-03-0.107D-02-0.577D-02
 Coeff:      0.192D-01 0.545D-01-0.244D+00-0.400D-01 0.122D+01
 Gap=     0.560 Goal=   None    Shift=    0.000
 RMSDP=2.51D-08 MaxDP=1.15D-06 DE=-5.50D-10 OVMax= 7.75D-06

 Cycle  12  Pass 1  IDiag  1:
 E= -228.942822919211     Delta-E=       -0.000000000104 Rises=F Damp=F
 DIIS: error= 8.28D-08 at cycle  12 NSaved=  12.
 NSaved=12 IEnMin=12 EnMin= -228.942822919211     IErMin=12 ErrMin= 8.28D-08
 ErrMax= 8.28D-08  0.00D+00 EMaxC= 1.00D-01 BMatC= 3.28D-12 BMatP= 2.90D-11
 IDIUse=1 WtCom= 1.00D+00 WtEn= 0.00D+00
 Coeff-Com: -0.445D-06 0.265D-06 0.138D-05 0.116D-03 0.278D-03-0.171D-02
 Coeff-Com: -0.379D-02 0.104D-01 0.507D-01-0.155D+00-0.278D+00 0.138D+01
 Coeff:     -0.445D-06 0.265D-06 0.138D-05 0.116D-03 0.278D-03-0.171D-02
 Coeff:     -0.379D-02 0.104D-01 0.507D-01-0.155D+00-0.278D+00 0.138D+01
 Gap=     0.560 Goal=   None    Shift=    0.000
 RMSDP=9.76D-09 MaxDP=4.98D-07 DE=-1.04D-10 OVMax= 2.80D-06

 SCF Done:  E(RHF) =  -228.942822919     A.U. after   12 cycles
            NFock= 12  Conv=0.98D-08     -V/T= 2.0017
 KE= 2.285617895636D+02 PE=-8.012043537314D+02 EE= 2.129071704565D+02
 Leave Link  502 at Thu Dec 21 19:49:26 2017, MaxMem=  3489660928 cpu:       681.0
 (Enter /home/michal/g09/l801.exe)
 ExpMin= 8.99D-02 ExpMax= 6.14D+04 ExpMxC= 5.91D+02 IAcc=3 IRadAn=         5 AccDes= 0.00D+00
 HarFok:  IExCor=  205 AccDes= 0.00D+00 IRadAn=         5 IDoV=-2 UseB2=F ITyADJ=14
 ICtDFT= 12500011 ScaDFX=  1.000000  1.000000  1.000000  1.000000
 Largest valence mixing into a core orbital is  1.82D-04
 Largest core mixing into a valence orbital is  3.05D-05
 Range of M.O.s used for correlation:     5   400
 NBasis=   400 NAE=    17 NBE=    17 NFC=     4 NFV=     0
 NROrb=    396 NOA=    13 NOB=    13 NVA=   383 NVB=   383

 **** Warning!!: The largest alpha MO coefficient is  0.22458795D+02

 Leave Link  801 at Thu Dec 21 19:49:27 2017, MaxMem=  3489660928 cpu:         1.2
 (Enter /home/michal/g09/l906.exe)
 FulOut=F Deriv=F AODrv=F NAtomX=    10
   MMem=        1311  MDisk=          13 MDiskD=          13
  W3Min=     2439710 MinDsk=     3998052 NBas6D=         490
 NBas2D=      121807    NTT=      120295    LW2=     4508827
    MDV=  3488922804 MDiskM=       15813 NBas2p=      114618
 Fully direct method using O(OVN) memory.
 IMap=   1   2   3   4   5   6   7   8   9  10  11  12  13
 JobTyp=1 Pass  1:  I=   1 to  13 NPSUse= 12 ParTrn=T ParDer=T DoDerP=F.
 Spin components of T(2) and E(2):
     alpha-alpha T2 =       0.2891739431D-01 E2=     -0.1039314745D+00
     alpha-beta  T2 =       0.1786682407D+00 E2=     -0.6942099643D+00
     beta-beta   T2 =       0.2891739431D-01 E2=     -0.1039314745D+00
 The integrals were generated   1 times.
 ANorm=    0.1111981578D+01
 E2 =    -0.9020729134D+00 EUMP2 =    -0.22984489583258D+03
 Leave Link  906 at Thu Dec 21 19:53:45 2017, MaxMem=  3489660928 cpu:      3071.4
 (Enter /home/michal/g09/l601.exe)
 Copying SCF densities to generalized density rwf, IOpCl= 0 IROHF=0.

 **********************************************************************

            Population analysis using the SCF density.

 **********************************************************************

 Alpha  occ. eigenvalues --  -20.61913 -20.61807 -11.28331 -11.22541  -1.46654
 Alpha  occ. eigenvalues --   -1.22569  -1.00300  -0.83974  -0.71981  -0.65993
 Alpha  occ. eigenvalues --   -0.63569  -0.61262  -0.54092  -0.52329  -0.50446
 Alpha  occ. eigenvalues --   -0.49029  -0.44620
 Alpha virt. eigenvalues --    0.11352   0.12902   0.16094   0.17135   0.18790
 Alpha virt. eigenvalues --    0.20921   0.22792   0.26939   0.27383   0.30530
 Alpha virt. eigenvalues --    0.30817   0.35456   0.37287   0.45690   0.46619
 Alpha virt. eigenvalues --    0.46948   0.48064   0.48758   0.50241   0.53006
 Alpha virt. eigenvalues --    0.53678   0.54067   0.54967   0.59811   0.61570
 Alpha virt. eigenvalues --    0.62832   0.64851   0.65879   0.69096   0.71692
 Alpha virt. eigenvalues --    0.73663   0.76359   0.80295   0.83128   0.85957
 Alpha virt. eigenvalues --    0.86873   0.88866   0.89360   0.93530   0.93883
 Alpha virt. eigenvalues --    0.96621   0.97705   0.99709   1.01230   1.04355
 Alpha virt. eigenvalues --    1.06392   1.09511   1.10420   1.12464   1.13907
 Alpha virt. eigenvalues --    1.14777   1.15928   1.17736   1.19412   1.20563
 Alpha virt. eigenvalues --    1.21738   1.24325   1.28633   1.37744   1.40382
 Alpha virt. eigenvalues --    1.43919   1.47353   1.52506   1.57194   1.58952
 Alpha virt. eigenvalues --    1.62845   1.64634   1.67664   1.71533   1.74447
 Alpha virt. eigenvalues --    1.76547   1.79468   1.82200   1.86009   1.87993
 Alpha virt. eigenvalues --    1.95693   1.96300   1.99106   2.01135   2.03511
 Alpha virt. eigenvalues --    2.05145   2.05632   2.08377   2.10011   2.10945
 Alpha virt. eigenvalues --    2.13058   2.17509   2.20090   2.22496   2.22915
 Alpha virt. eigenvalues --    2.25789   2.29057   2.30515   2.32306   2.32934
 Alpha virt. eigenvalues --    2.36528   2.37718   2.38064   2.42576   2.44394
 Alpha virt. eigenvalues --    2.45625   2.48576   2.51417   2.54705   2.57591
 Alpha virt. eigenvalues --    2.58938   2.61795   2.64542   2.66222   2.66592
 Alpha virt. eigenvalues --    2.69327   2.70706   2.74140   2.76302   2.76886
 Alpha virt. eigenvalues --    2.78845   2.82051   2.83737   2.86769   2.88881
 Alpha virt. eigenvalues --    2.92611   2.93574   2.98035   3.00565   3.02829
 Alpha virt. eigenvalues --    3.05823   3.09294   3.14127   3.15236   3.19888
 Alpha virt. eigenvalues --    3.21816   3.24786   3.25171   3.28065   3.29159
 Alpha virt. eigenvalues --    3.33156   3.36337   3.38026   3.39483   3.44346
 Alpha virt. eigenvalues --    3.45789   3.46496   3.49927   3.55010   3.58164
 Alpha virt. eigenvalues --    3.60449   3.66038   3.66674   3.69304   3.72026
 Alpha virt. eigenvalues --    3.75292   3.77040   3.80929   3.85339   3.88538
 Alpha virt. eigenvalues --    3.95575   3.98051   4.02915   4.05283   4.07499
 Alpha virt. eigenvalues --    4.10301   4.12145   4.14426   4.16926   4.17519
 Alpha virt. eigenvalues --    4.19206   4.25124   4.29511   4.36351   4.37640
 Alpha virt. eigenvalues --    4.44212   4.46378   4.48472   4.51840   4.54672
 Alpha virt. eigenvalues --    4.63795   4.69179   4.77525   4.80785   4.85974
 Alpha virt. eigenvalues --    4.88235   5.00324   5.06289   5.14030   5.34269
 Alpha virt. eigenvalues --    5.41216   5.50940   5.57870   5.61456   5.69080
 Alpha virt. eigenvalues --    5.71206   5.72693   5.74443   5.76777   5.86179
 Alpha virt. eigenvalues --    5.91463   5.99514   6.04727   6.09095   6.11599
 Alpha virt. eigenvalues --    6.12622   6.13581   6.18632   6.21710   6.22443
 Alpha virt. eigenvalues --    6.22807   6.24841   6.29695   6.31776   6.34500
 Alpha virt. eigenvalues --    6.37588   6.39885   6.42633   6.43381   6.44948
 Alpha virt. eigenvalues --    6.49308   6.50435   6.52263   6.52549   6.53296
 Alpha virt. eigenvalues --    6.54956   6.57778   6.59954   6.61411   6.68921
 Alpha virt. eigenvalues --    6.72367   6.75381   6.76146   6.81409   6.84226
 Alpha virt. eigenvalues --    6.89306   6.94947   6.97175   7.04125   7.06283
 Alpha virt. eigenvalues --    7.07559   7.11928   7.12334   7.20672   7.22484
 Alpha virt. eigenvalues --    7.25533   7.29710   7.33202   7.34494   7.38604
 Alpha virt. eigenvalues --    7.40679   7.46655   7.51146   7.57117   7.60338
 Alpha virt. eigenvalues --    7.61702   7.67133   7.77913   7.78747   7.80011
 Alpha virt. eigenvalues --    7.85706   7.87704   7.88564   7.90726   7.95213
 Alpha virt. eigenvalues --    7.97367   8.02040   8.04043   8.05944   8.09689
 Alpha virt. eigenvalues --    8.12437   8.14829   8.16695   8.16843   8.18710
 Alpha virt. eigenvalues --    8.23281   8.24975   8.26788   8.31111   8.32006
 Alpha virt. eigenvalues --    8.32878   8.36975   8.43727   8.44787   8.46510
 Alpha virt. eigenvalues --    8.52675   8.64750   8.64841   8.68578   8.74240
 Alpha virt. eigenvalues --    8.74742   8.75879   8.80800   8.82383   8.83124
 Alpha virt. eigenvalues --    8.85493   8.86678   8.88842   8.91353   8.93932
 Alpha virt. eigenvalues --    8.96279   8.99473   9.03589   9.04120   9.08096
 Alpha virt. eigenvalues --    9.12115   9.15064   9.16782   9.23695   9.25248
 Alpha virt. eigenvalues --    9.30081   9.33389   9.35650   9.37145   9.39827
 Alpha virt. eigenvalues --    9.43335   9.47117   9.50504   9.53052   9.56890
 Alpha virt. eigenvalues --    9.74209   9.81558   9.98281  10.00820  10.06475
 Alpha virt. eigenvalues --   10.11167  10.12498  10.13110  10.22240  10.25021
 Alpha virt. eigenvalues --   10.34010  10.37141  10.39875  10.41732  10.44313
 Alpha virt. eigenvalues --   10.48293  10.53542  10.56850  10.58770  10.66414
 Alpha virt. eigenvalues --   10.68803  10.70169  10.73028  10.75870  10.86539
 Alpha virt. eigenvalues --   10.91347  10.97812  11.02054  11.17384  11.34445
 Alpha virt. eigenvalues --   11.36065  11.47951  11.60231  11.63688  11.64697
 Alpha virt. eigenvalues --   11.73688  11.79660  11.90500  11.93477  12.00753
 Alpha virt. eigenvalues --   12.04829  12.07105  12.26764  12.33117  12.45635
 Alpha virt. eigenvalues --   12.50161  12.60261  12.60766  12.72964  12.75246
 Alpha virt. eigenvalues --   12.78535  12.81495  12.84126  13.08793  13.18523
 Alpha virt. eigenvalues --   13.22722  13.26383  13.60532  13.70184  14.07133
 Alpha virt. eigenvalues --   14.34305  14.37673  15.09545  16.56204  26.22647
 Alpha virt. eigenvalues --   26.99415  42.61024  44.32701
          Condensed to atoms (all electrons):
               1          2          3          4          5          6
     1  C    4.722122   0.361508  -0.040724   0.010161  -0.000908   0.406881
     2  C    0.361508   4.483002   0.298549  -0.050203  -0.000053  -0.029114
     3  O   -0.040724   0.298549   8.023984   0.093598  -0.034488  -0.001386
     4  O    0.010161  -0.050203   0.093598   7.918174   0.334863  -0.000186
     5  H   -0.000908  -0.000053  -0.034488   0.334863   0.416768   0.000018
     6  H    0.406881  -0.029114  -0.001386  -0.000186   0.000018   0.598099
     7  H   -0.037395   0.436981  -0.049689  -0.003736  -0.000780   0.008705
     8  H   -0.033787   0.400022  -0.052720   0.003336   0.002366  -0.008744
     9  H    0.408642  -0.034801   0.003486  -0.000336   0.000058  -0.025388
    10  H    0.415241  -0.036332   0.001628  -0.000104   0.000029  -0.024443
               7          8          9         10
     1  C   -0.037395  -0.033787   0.408642   0.415241
     2  C    0.436981   0.400022  -0.034801  -0.036332
     3  O   -0.049689  -0.052720   0.003486   0.001628
     4  O   -0.003736   0.003336  -0.000336  -0.000104
     5  H   -0.000780   0.002366   0.000058   0.000029
     6  H    0.008705  -0.008744  -0.025388  -0.024443
     7  H    0.675236  -0.073016  -0.002445  -0.008320
     8  H   -0.073016   0.725997   0.001199   0.008592
     9  H   -0.002445   0.001199   0.607960  -0.022270
    10  H   -0.008320   0.008592  -0.022270   0.579659
 Mulliken charges:
               1
     1  C   -0.211741
     2  C    0.170440
     3  O   -0.242239
     4  O   -0.305568
     5  H    0.282126
     6  H    0.075557
     7  H    0.054459
     8  H    0.026754
     9  H    0.063894
    10  H    0.086318
 Sum of Mulliken charges =   0.00000
 Mulliken charges with hydrogens summed into heavy atoms:
               1
     1  C    0.014028
     2  C    0.251653
     3  O   -0.242239
     4  O   -0.023442
 Electronic spatial extent (au):  <R**2>=           1016.1186
 Charge=              0.0000 electrons
 Dipole moment (field-independent basis, Debye):
    X=             -0.8482    Y=              1.5705    Z=              0.1663  Tot=              1.7927
 Quadrupole moment (field-independent basis, Debye-Ang):
   XX=            -27.0965   YY=            -29.3213   ZZ=            -20.4313
   XY=              1.5355   XZ=              2.3540   YZ=             -2.7452
 Traceless Quadrupole moment (field-independent basis, Debye-Ang):
   XX=             -1.4802   YY=             -3.7049   ZZ=              5.1851
   XY=              1.5355   XZ=              2.3540   YZ=             -2.7452
 Octapole moment (field-independent basis, Debye-Ang**2):
  XXX=            -12.4922  YYY=             88.6371  ZZZ=            147.8361  XYY=             -5.9100
  XXY=             29.6300  XXZ=             58.2702  XZZ=             -3.2340  YZZ=             25.9805
  YYZ=             60.8247  XYZ=             -3.1174
 Hexadecapole moment (field-independent basis, Debye-Ang**3):
 XXXX=           -166.0463 YYYY=           -249.7623 ZZZZ=           -873.7811 XXXY=             26.3273
 XXXZ=            -44.8619 YYYX=             24.2517 YYYZ=           -167.0134 ZZZX=            -53.3398
 ZZZY=           -148.2753 XXYY=            -71.6251 XXZZ=           -182.4615 YYZZ=           -192.9541
 XXYZ=            -56.7873 YYXZ=            -11.6752 ZZXY=              6.1136
 N-N= 1.307925707921D+02 E-N=-8.012043536212D+02  KE= 2.285617895636D+02
 Leave Link  601 at Thu Dec 21 19:53:45 2017, MaxMem=  3489660928 cpu:         0.5
 (Enter /home/michal/g09/l9999.exe)
 1\1\GINC-LINUX\SP\RMP2-FC\CC-pVQZ\C2H6O2\MICHAL\21-Dec-2017\0\\#P MP2/
 cc-pVQZ SP Nosymm\\PEscan\\0,1\C,0,-0.97474,-0.97364,-3.47661\C,0,0.05
 577,-0.5156,-2.45715\O,0,0.18923,-1.58108,-1.5215\O,0,1.46815,-1.37816
 ,-0.85357\H,0,1.14204,-1.19248,0.04335\H,0,-1.93432,-1.20487,-2.98694\
 H,0,1.03106,-0.33689,-2.94138\H,0,-0.2543,0.41743,-1.9461\H,0,-1.14791
 ,-0.17907,-4.22021\H,0,-0.61982,-1.87774,-3.99431\\Version=EM64L-G09Re
 vD.01\HF=-228.9428229\MP2=-229.8448958\RMSD=9.759e-09\PG=C01 [X(C2H6O2
 )]\\@


 A leading authority is anyone who has guessed right more than once.
 -- Frank A. Clark
 Job cpu time:       0 days  1 hours  2 minutes 53.4 seconds.
 File lengths (MBytes):  RWF=    699 Int=      0 D2E=      0 Chk=      8 Scr=      1
 Normal termination of Gaussian 09 at Thu Dec 21 19:53:45 2017.
