 Entering Gaussian System, Link 0=g09
 Input=1HPP_ccsdtdz_019.com
 Output=1HPP_ccsdtdz_019.log
 Initial command:
 /home/michal/g09/l1.exe "/home/michal/gauss_scratch/Gau-17428.inp" -scrdir="/home/michal/gauss_scratch/"
 Entering Link 1 = /home/michal/g09/l1.exe PID=     17429.
  
 Copyright (c) 1988,1990,1992,1993,1995,1998,2003,2009,2013,
            Gaussian, Inc.  All Rights Reserved.
  
 This is part of the Gaussian(R) 09 program.  It is based on
 the Gaussian(R) 03 system (copyright 2003, Gaussian, Inc.),
 the Gaussian(R) 98 system (copyright 1998, Gaussian, Inc.),
 the Gaussian(R) 94 system (copyright 1995, Gaussian, Inc.),
 the Gaussian 92(TM) system (copyright 1992, Gaussian, Inc.),
 the Gaussian 90(TM) system (copyright 1990, Gaussian, Inc.),
 the Gaussian 88(TM) system (copyright 1988, Gaussian, Inc.),
 the Gaussian 86(TM) system (copyright 1986, Carnegie Mellon
 University), and the Gaussian 82(TM) system (copyright 1983,
 Carnegie Mellon University). Gaussian is a federally registered
 trademark of Gaussian, Inc.
  
 This software contains proprietary and confidential information,
 including trade secrets, belonging to Gaussian, Inc.
  
 This software is provided under written license and may be
 used, copied, transmitted, or stored only in accord with that
 written license.
  
 The following legend is applicable only to US Government
 contracts under FAR:
  
                    RESTRICTED RIGHTS LEGEND
  
 Use, reproduction and disclosure by the US Government is
 subject to restrictions as set forth in subparagraphs (a)
 and (c) of the Commercial Computer Software - Restricted
 Rights clause in FAR 52.227-19.
  
 Gaussian, Inc.
 340 Quinnipiac St., Bldg. 40, Wallingford CT 06492
  
  
 ---------------------------------------------------------------
 Warning -- This program may not be used in any manner that
 competes with the business of Gaussian, Inc. or will provide
 assistance to any competitor of Gaussian, Inc.  The licensee
 of this program is prohibited from giving any competitor of
 Gaussian, Inc. access to this program.  By using this program,
 the user acknowledges that Gaussian, Inc. is engaged in the
 business of creating and licensing software in the field of
 computational chemistry and represents and warrants to the
 licensee that it is not a competitor of Gaussian, Inc. and that
 it will not use this program in any manner prohibited above.
 ---------------------------------------------------------------
  

 Cite this work as:
 Gaussian 09, Revision D.01,
 M. J. Frisch, G. W. Trucks, H. B. Schlegel, G. E. Scuseria, 
 M. A. Robb, J. R. Cheeseman, G. Scalmani, V. Barone, B. Mennucci, 
 G. A. Petersson, H. Nakatsuji, M. Caricato, X. Li, H. P. Hratchian, 
 A. F. Izmaylov, J. Bloino, G. Zheng, J. L. Sonnenberg, M. Hada, 
 M. Ehara, K. Toyota, R. Fukuda, J. Hasegawa, M. Ishida, T. Nakajima, 
 Y. Honda, O. Kitao, H. Nakai, T. Vreven, J. A. Montgomery, Jr., 
 J. E. Peralta, F. Ogliaro, M. Bearpark, J. J. Heyd, E. Brothers, 
 K. N. Kudin, V. N. Staroverov, T. Keith, R. Kobayashi, J. Normand, 
 K. Raghavachari, A. Rendell, J. C. Burant, S. S. Iyengar, J. Tomasi, 
 M. Cossi, N. Rega, J. M. Millam, M. Klene, J. E. Knox, J. B. Cross, 
 V. Bakken, C. Adamo, J. Jaramillo, R. Gomperts, R. E. Stratmann, 
 O. Yazyev, A. J. Austin, R. Cammi, C. Pomelli, J. W. Ochterski, 
 R. L. Martin, K. Morokuma, V. G. Zakrzewski, G. A. Voth, 
 P. Salvador, J. J. Dannenberg, S. Dapprich, A. D. Daniels, 
 O. Farkas, J. B. Foresman, J. V. Ortiz, J. Cioslowski, 
 and D. J. Fox, Gaussian, Inc., Wallingford CT, 2013.
 
 ******************************************
 Gaussian 09:  EM64L-G09RevD.01 24-Apr-2013
                21-Dec-2017 
 ******************************************
 %Mem=26GB
 %NProc=12
 Will use up to   12 processors via shared memory.
 %RWF=/home/michal/Cholesterol_grant/peroxy_params,20GB
 ----------------------------
 #P CCSD(T)/cc-pVDZ SP Nosymm
 ----------------------------
 1/38=1/1;
 2/12=2,15=1,17=6,18=5,40=1/2;
 3/5=16,11=9,16=1,25=1,30=1/1,2,3;
 4//1;
 5/5=2,38=5/2;
 8/6=4,9=120000,10=1/1,4;
 9/5=7,14=2/13;
 6/7=2,8=2,9=2,10=2/1;
 99/5=1,9=1/99;
 Leave Link    1 at Thu Dec 21 20:24:25 2017, MaxMem=  3489660928 cpu:         0.3
 (Enter /home/michal/g09/l101.exe)
 ------
 PEscan
 ------
 Symbolic Z-matrix:
 Charge =  0 Multiplicity = 1
 C                    -0.63044  -1.10865  -3.29275 
 C                    -0.05689  -0.05765  -2.35503 
 O                     0.46468  -0.53357  -1.09519 
 O                     0.31936  -1.97707  -0.99804 
 H                     1.25929  -2.22118  -1.03074 
 H                    -1.47042  -1.64641  -2.83061 
 H                     0.7708    0.47778  -2.85798 
 H                    -0.83676   0.68372  -2.10411 
 H                    -0.99319  -0.59349  -4.19797 
 H                     0.12874  -1.84557  -3.592 
 
 NAtoms=     10 NQM=       10 NQMF=       0 NMMI=      0 NMMIF=      0
                NMic=       0 NMicF=      0.
                    Isotopes and Nuclear Properties:
 (Nuclear quadrupole moments (NQMom) in fm**2, nuclear magnetic moments (NMagM)
  in nuclear magnetons)

  Atom         1           2           3           4           5           6           7           8           9          10
 IAtWgt=          12          12          16          16           1           1           1           1           1           1
 AtmWgt=  12.0000000  12.0000000  15.9949146  15.9949146   1.0078250   1.0078250   1.0078250   1.0078250   1.0078250   1.0078250
 NucSpn=           0           0           0           0           1           1           1           1           1           1
 AtZEff=   0.0000000   0.0000000   0.0000000   0.0000000   0.0000000   0.0000000   0.0000000   0.0000000   0.0000000   0.0000000
 NQMom=    0.0000000   0.0000000   0.0000000   0.0000000   0.0000000   0.0000000   0.0000000   0.0000000   0.0000000   0.0000000
 NMagM=    0.0000000   0.0000000   0.0000000   0.0000000   2.7928460   2.7928460   2.7928460   2.7928460   2.7928460   2.7928460
 AtZNuc=   6.0000000   6.0000000   8.0000000   8.0000000   1.0000000   1.0000000   1.0000000   1.0000000   1.0000000   1.0000000
 Leave Link  101 at Thu Dec 21 20:24:25 2017, MaxMem=  3489660928 cpu:         0.5
 (Enter /home/michal/g09/l202.exe)
                          Input orientation:                          
 ---------------------------------------------------------------------
 Center     Atomic      Atomic             Coordinates (Angstroms)
 Number     Number       Type             X           Y           Z
 ---------------------------------------------------------------------
      1          6           0       -0.630440   -1.108650   -3.292750
      2          6           0       -0.056890   -0.057650   -2.355030
      3          8           0        0.464680   -0.533570   -1.095190
      4          8           0        0.319360   -1.977070   -0.998040
      5          1           0        1.259290   -2.221180   -1.030740
      6          1           0       -1.470420   -1.646410   -2.830610
      7          1           0        0.770800    0.477780   -2.857980
      8          1           0       -0.836760    0.683720   -2.104110
      9          1           0       -0.993190   -0.593490   -4.197970
     10          1           0        0.128740   -1.845570   -3.592000
 ---------------------------------------------------------------------
                    Distance matrix (angstroms):
                    1          2          3          4          5
     1  C    0.000000
     2  C    1.520815   0.000000
     3  O    2.521760   1.444206   0.000000
     4  O    2.630963   2.380580   1.454045   0.000000
     5  H    3.150475   2.857785   1.866437   0.971662   0.000000
     6  H    1.099239   2.179083   2.827491   2.582820   3.319821
     7  H    2.160847   1.106668   2.055229   3.112790   3.295727
     8  H    2.160561   1.104893   2.047794   3.104804   3.739518
     9  H    1.102906   2.135465   3.428734   3.725135   4.213595
    10  H    1.099525   2.182020   2.840468   2.604277   2.824762
                    6          7          8          9         10
     6  H    0.000000
     7  H    3.088041   0.000000
     8  H    2.521673   1.787451   0.000000
     9  H    1.790548   2.460661   2.457638   0.000000
    10  H    1.782328   2.519719   3.089226   1.787073   0.000000
 Symmetry turned off by external request.
 Stoichiometry    C2H6O2
 Framework group  C1[X(C2H6O2)]
 Deg. of freedom    24
 Full point group                 C1      NOp   1
 Rotational constants (GHZ):     13.6450133      6.3184829      4.6316023
 Leave Link  202 at Thu Dec 21 20:24:25 2017, MaxMem=  3489660928 cpu:         0.1
 (Enter /home/michal/g09/l301.exe)
 Standard basis: CC-pVDZ (5D, 7F)
 Ernie: Thresh=  0.10000D-02 Tol=  0.10000D-05 Strict=F.
 Ernie:  8 primitive shells out of 118 were deleted.
    86 basis functions,   174 primitive gaussians,    90 cartesian basis functions
    17 alpha electrons       17 beta electrons
       nuclear repulsion energy       132.9082767949 Hartrees.
 IExCor=    0 DFT=F Ex=HF Corr=None ExCW=0 ScaHFX=  1.000000
 ScaDFX=  1.000000  1.000000  1.000000  1.000000 ScalE2=  1.000000  1.000000
 IRadAn=      0 IRanWt=     -1 IRanGd=            0 ICorTp=0 IEmpDi=  4
 NAtoms=   10 NActive=   10 NUniq=   10 SFac= 1.00D+00 NAtFMM=   60 NAOKFM=F Big=F
 Integral buffers will be    131072 words long.
 Raffenetti 1 integral format.
 Two-electron integral symmetry is turned off.
 Leave Link  301 at Thu Dec 21 20:24:25 2017, MaxMem=  3489660928 cpu:         0.3
 (Enter /home/michal/g09/l302.exe)
 NPDir=0 NMtPBC=     1 NCelOv=     1 NCel=       1 NClECP=     1 NCelD=      1
         NCelK=      1 NCelE2=     1 NClLst=     1 CellRange=     0.0.
 One-electron integrals computed using PRISM.
 NBasis=    86 RedAO= T EigKep=  6.17D-03  NBF=    86
 NBsUse=    86 1.00D-06 EigRej= -1.00D+00 NBFU=    86
 Leave Link  302 at Thu Dec 21 20:24:25 2017, MaxMem=  3489660928 cpu:         1.6
 (Enter /home/michal/g09/l303.exe)
 DipDrv:  MaxL=1.
 Leave Link  303 at Thu Dec 21 20:24:26 2017, MaxMem=  3489660928 cpu:         0.2
 (Enter /home/michal/g09/l401.exe)
 ExpMin= 1.22D-01 ExpMax= 1.17D+04 ExpMxC= 4.01D+02 IAcc=1 IRadAn=         1 AccDes= 0.00D+00
 Harris functional with IExCor=  205 and IRadAn=       1 diagonalized for initial guess.
 HarFok:  IExCor=  205 AccDes= 0.00D+00 IRadAn=         1 IDoV= 1 UseB2=F ITyADJ=14
 ICtDFT=  3500011 ScaDFX=  1.000000  1.000000  1.000000  1.000000
 FoFCou: FMM=F IPFlag=           0 FMFlag=      100000 FMFlg1=           0
         NFxFlg=           0 DoJE=T BraDBF=F KetDBF=T FulRan=T
         wScrn=  0.000000 ICntrl=     500 IOpCl=  0 I1Cent=   200000004 NGrid=           0
         NMat0=    1 NMatS0=      1 NMatT0=    0 NMatD0=    1 NMtDS0=    0 NMtDT0=    0
 Symmetry not used in FoFCou.
 Harris En= -229.122917728431    
 JPrj=0 DoOrth=F DoCkMO=F.
 Leave Link  401 at Thu Dec 21 20:24:26 2017, MaxMem=  3489660928 cpu:         1.9
 (Enter /home/michal/g09/l502.exe)
 Closed shell SCF:
 Using DIIS extrapolation, IDIIS=  1040.
 Two-electron integral symmetry not used.
 Keep R1 ints in memory in canonical form, NReq=7944620.
 IVT=       44490 IEndB=       44490 NGot=  3489660928 MDV=  3482617028
 LenX=  3482617028 LenY=  3482608487
 Requested convergence on RMS density matrix=1.00D-08 within 128 cycles.
 Requested convergence on MAX density matrix=1.00D-06.
 Requested convergence on             energy=1.00D-06.
 No special actions if energy rises.
 FoFCou: FMM=F IPFlag=           0 FMFlag=           0 FMFlg1=           0
         NFxFlg=           0 DoJE=F BraDBF=F KetDBF=F FulRan=T
         wScrn=  0.000000 ICntrl=     600 IOpCl=  0 I1Cent=           0 NGrid=           0
         NMat0=    1 NMatS0=   3741 NMatT0=    0 NMatD0=    1 NMtDS0=    0 NMtDT0=    0
 Symmetry not used in FoFCou.

 Cycle   1  Pass 1  IDiag  1:
 E= -228.686019969441    
 DIIS: error= 3.71D-02 at cycle   1 NSaved=   1.
 NSaved= 1 IEnMin= 1 EnMin= -228.686019969441     IErMin= 1 ErrMin= 3.71D-02
 ErrMax= 3.71D-02  0.00D+00 EMaxC= 1.00D-01 BMatC= 2.03D-01 BMatP= 2.03D-01
 IDIUse=3 WtCom= 6.29D-01 WtEn= 3.71D-01
 Coeff-Com:  0.100D+01
 Coeff-En:   0.100D+01
 Coeff:      0.100D+01
 Gap=     0.706 Goal=   None    Shift=    0.000
 GapD=    0.706 DampG=2.000 DampE=0.500 DampFc=1.0000 IDamp=-1.
 RMSDP=4.88D-03 MaxDP=1.09D-01              OVMax= 1.24D-01

 Cycle   2  Pass 1  IDiag  1:
 E= -228.821076833304     Delta-E=       -0.135056863863 Rises=F Damp=F
 DIIS: error= 1.72D-02 at cycle   2 NSaved=   2.
 NSaved= 2 IEnMin= 2 EnMin= -228.821076833304     IErMin= 2 ErrMin= 1.72D-02
 ErrMax= 1.72D-02  0.00D+00 EMaxC= 1.00D-01 BMatC= 2.68D-02 BMatP= 2.03D-01
 IDIUse=3 WtCom= 8.28D-01 WtEn= 1.72D-01
 Coeff-Com:  0.213D+00 0.787D+00
 Coeff-En:   0.000D+00 0.100D+01
 Coeff:      0.176D+00 0.824D+00
 Gap=     0.682 Goal=   None    Shift=    0.000
 RMSDP=1.58D-03 MaxDP=3.04D-02 DE=-1.35D-01 OVMax= 3.64D-02

 Cycle   3  Pass 1  IDiag  1:
 E= -228.843823018887     Delta-E=       -0.022746185583 Rises=F Damp=F
 DIIS: error= 3.47D-03 at cycle   3 NSaved=   3.
 NSaved= 3 IEnMin= 3 EnMin= -228.843823018887     IErMin= 3 ErrMin= 3.47D-03
 ErrMax= 3.47D-03  0.00D+00 EMaxC= 1.00D-01 BMatC= 1.81D-03 BMatP= 2.68D-02
 IDIUse=3 WtCom= 9.65D-01 WtEn= 3.47D-02
 Coeff-Com: -0.145D-01 0.163D+00 0.852D+00
 Coeff-En:   0.000D+00 0.000D+00 0.100D+01
 Coeff:     -0.139D-01 0.157D+00 0.857D+00
 Gap=     0.605 Goal=   None    Shift=    0.000
 RMSDP=3.92D-04 MaxDP=7.73D-03 DE=-2.27D-02 OVMax= 9.43D-03

 Cycle   4  Pass 1  IDiag  1:
 E= -228.845389473419     Delta-E=       -0.001566454532 Rises=F Damp=F
 DIIS: error= 1.02D-03 at cycle   4 NSaved=   4.
 NSaved= 4 IEnMin= 4 EnMin= -228.845389473419     IErMin= 4 ErrMin= 1.02D-03
 ErrMax= 1.02D-03  0.00D+00 EMaxC= 1.00D-01 BMatC= 1.93D-04 BMatP= 1.81D-03
 IDIUse=3 WtCom= 9.90D-01 WtEn= 1.02D-02
 Coeff-Com: -0.124D-01 0.204D-01 0.291D+00 0.701D+00
 Coeff-En:   0.000D+00 0.000D+00 0.000D+00 0.100D+01
 Coeff:     -0.122D-01 0.202D-01 0.288D+00 0.704D+00
 Gap=     0.600 Goal=   None    Shift=    0.000
 RMSDP=1.12D-04 MaxDP=2.85D-03 DE=-1.57D-03 OVMax= 2.90D-03

 Cycle   5  Pass 1  IDiag  1:
 E= -228.845542231357     Delta-E=       -0.000152757938 Rises=F Damp=F
 DIIS: error= 2.82D-04 at cycle   5 NSaved=   5.
 NSaved= 5 IEnMin= 5 EnMin= -228.845542231357     IErMin= 5 ErrMin= 2.82D-04
 ErrMax= 2.82D-04  0.00D+00 EMaxC= 1.00D-01 BMatC= 8.35D-06 BMatP= 1.93D-04
 IDIUse=3 WtCom= 9.97D-01 WtEn= 2.82D-03
 Coeff-Com:  0.639D-03-0.175D-01-0.737D-01 0.310D-01 0.106D+01
 Coeff-En:   0.000D+00 0.000D+00 0.000D+00 0.000D+00 0.100D+01
 Coeff:      0.637D-03-0.175D-01-0.735D-01 0.309D-01 0.106D+01
 Gap=     0.601 Goal=   None    Shift=    0.000
 RMSDP=4.85D-05 MaxDP=5.69D-04 DE=-1.53D-04 OVMax= 1.64D-03

 Cycle   6  Pass 1  IDiag  1:
 E= -228.845557140356     Delta-E=       -0.000014908999 Rises=F Damp=F
 DIIS: error= 4.57D-05 at cycle   6 NSaved=   6.
 NSaved= 6 IEnMin= 6 EnMin= -228.845557140356     IErMin= 6 ErrMin= 4.57D-05
 ErrMax= 4.57D-05  0.00D+00 EMaxC= 1.00D-01 BMatC= 4.67D-07 BMatP= 8.35D-06
 IDIUse=1 WtCom= 1.00D+00 WtEn= 0.00D+00
 Coeff-Com:  0.789D-03-0.182D-02-0.180D-01-0.458D-01 0.150D-01 0.105D+01
 Coeff:      0.789D-03-0.182D-02-0.180D-01-0.458D-01 0.150D-01 0.105D+01
 Gap=     0.601 Goal=   None    Shift=    0.000
 RMSDP=1.48D-05 MaxDP=2.11D-04 DE=-1.49D-05 OVMax= 4.76D-04

 Cycle   7  Pass 1  IDiag  1:
 E= -228.845558257977     Delta-E=       -0.000001117621 Rises=F Damp=F
 DIIS: error= 2.03D-05 at cycle   7 NSaved=   7.
 NSaved= 7 IEnMin= 7 EnMin= -228.845558257977     IErMin= 7 ErrMin= 2.03D-05
 ErrMax= 2.03D-05  0.00D+00 EMaxC= 1.00D-01 BMatC= 5.47D-08 BMatP= 4.67D-07
 IDIUse=1 WtCom= 1.00D+00 WtEn= 0.00D+00
 Coeff-Com: -0.312D-04 0.107D-02 0.470D-02-0.139D-02-0.611D-01-0.624D-01
 Coeff-Com:  0.112D+01
 Coeff:     -0.312D-04 0.107D-02 0.470D-02-0.139D-02-0.611D-01-0.624D-01
 Coeff:      0.112D+01
 Gap=     0.601 Goal=   None    Shift=    0.000
 RMSDP=5.41D-06 MaxDP=6.73D-05 DE=-1.12D-06 OVMax= 1.96D-04

 Cycle   8  Pass 1  IDiag  1:
 E= -228.845558417678     Delta-E=       -0.000000159702 Rises=F Damp=F
 DIIS: error= 1.05D-05 at cycle   8 NSaved=   8.
 NSaved= 8 IEnMin= 8 EnMin= -228.845558417678     IErMin= 8 ErrMin= 1.05D-05
 ErrMax= 1.05D-05  0.00D+00 EMaxC= 1.00D-01 BMatC= 1.19D-08 BMatP= 5.47D-08
 IDIUse=1 WtCom= 1.00D+00 WtEn= 0.00D+00
 Coeff-Com: -0.141D-03 0.430D-03 0.362D-02 0.824D-02-0.447D-02-0.202D+00
 Coeff-Com:  0.111D+00 0.108D+01
 Coeff:     -0.141D-03 0.430D-03 0.362D-02 0.824D-02-0.447D-02-0.202D+00
 Coeff:      0.111D+00 0.108D+01
 Gap=     0.601 Goal=   None    Shift=    0.000
 RMSDP=2.75D-06 MaxDP=4.78D-05 DE=-1.60D-07 OVMax= 1.04D-04

 Cycle   9  Pass 1  IDiag  1:
 E= -228.845558456129     Delta-E=       -0.000000038450 Rises=F Damp=F
 DIIS: error= 4.73D-06 at cycle   9 NSaved=   9.
 NSaved= 9 IEnMin= 9 EnMin= -228.845558456129     IErMin= 9 ErrMin= 4.73D-06
 ErrMax= 4.73D-06  0.00D+00 EMaxC= 1.00D-01 BMatC= 1.55D-09 BMatP= 1.19D-08
 IDIUse=1 WtCom= 1.00D+00 WtEn= 0.00D+00
 Coeff-Com:  0.496D-04-0.260D-03-0.187D-02-0.259D-02 0.108D-01 0.747D-01
 Coeff-Com: -0.199D+00-0.351D+00 0.147D+01
 Coeff:      0.496D-04-0.260D-03-0.187D-02-0.259D-02 0.108D-01 0.747D-01
 Coeff:     -0.199D+00-0.351D+00 0.147D+01
 Gap=     0.601 Goal=   None    Shift=    0.000
 RMSDP=1.44D-06 MaxDP=3.19D-05 DE=-3.85D-08 OVMax= 5.49D-05

 Cycle  10  Pass 1  IDiag  1:
 E= -228.845558463492     Delta-E=       -0.000000007363 Rises=F Damp=F
 DIIS: error= 1.36D-06 at cycle  10 NSaved=  10.
 NSaved=10 IEnMin=10 EnMin= -228.845558463492     IErMin=10 ErrMin= 1.36D-06
 ErrMax= 1.36D-06  0.00D+00 EMaxC= 1.00D-01 BMatC= 1.65D-10 BMatP= 1.55D-09
 IDIUse=1 WtCom= 1.00D+00 WtEn= 0.00D+00
 Coeff-Com:  0.428D-06 0.221D-04 0.119D-03-0.101D-03-0.221D-02-0.100D-02
 Coeff-Com:  0.428D-01-0.151D-01-0.392D+00 0.137D+01
 Coeff:      0.428D-06 0.221D-04 0.119D-03-0.101D-03-0.221D-02-0.100D-02
 Coeff:      0.428D-01-0.151D-01-0.392D+00 0.137D+01
 Gap=     0.601 Goal=   None    Shift=    0.000
 RMSDP=4.58D-07 MaxDP=1.08D-05 DE=-7.36D-09 OVMax= 1.64D-05

 Cycle  11  Pass 1  IDiag  1:
 E= -228.845558464274     Delta-E=       -0.000000000783 Rises=F Damp=F
 DIIS: error= 4.10D-07 at cycle  11 NSaved=  11.
 NSaved=11 IEnMin=11 EnMin= -228.845558464274     IErMin=11 ErrMin= 4.10D-07
 ErrMax= 4.10D-07  0.00D+00 EMaxC= 1.00D-01 BMatC= 2.50D-11 BMatP= 1.65D-10
 IDIUse=1 WtCom= 1.00D+00 WtEn= 0.00D+00
 Coeff-Com: -0.684D-05 0.379D-04 0.281D-03 0.407D-03-0.145D-02-0.125D-01
 Coeff-Com:  0.314D-01 0.569D-01-0.219D+00-0.733D-01 0.122D+01
 Coeff:     -0.684D-05 0.379D-04 0.281D-03 0.407D-03-0.145D-02-0.125D-01
 Coeff:      0.314D-01 0.569D-01-0.219D+00-0.733D-01 0.122D+01
 Gap=     0.601 Goal=   None    Shift=    0.000
 RMSDP=1.71D-07 MaxDP=3.68D-06 DE=-7.83D-10 OVMax= 6.17D-06

 Cycle  12  Pass 1  IDiag  1:
 E= -228.845558464377     Delta-E=       -0.000000000103 Rises=F Damp=F
 DIIS: error= 1.32D-07 at cycle  12 NSaved=  12.
 NSaved=12 IEnMin=12 EnMin= -228.845558464377     IErMin=12 ErrMin= 1.32D-07
 ErrMax= 1.32D-07  0.00D+00 EMaxC= 1.00D-01 BMatC= 2.42D-12 BMatP= 2.50D-11
 IDIUse=1 WtCom= 1.00D+00 WtEn= 0.00D+00
 Coeff-Com: -0.295D-06-0.263D-05-0.665D-05 0.256D-04 0.295D-03-0.469D-03
 Coeff-Com: -0.416D-02 0.388D-02 0.445D-01-0.180D+00 0.300D-01 0.111D+01
 Coeff:     -0.295D-06-0.263D-05-0.665D-05 0.256D-04 0.295D-03-0.469D-03
 Coeff:     -0.416D-02 0.388D-02 0.445D-01-0.180D+00 0.300D-01 0.111D+01
 Gap=     0.601 Goal=   None    Shift=    0.000
 RMSDP=4.77D-08 MaxDP=7.49D-07 DE=-1.03D-10 OVMax= 1.93D-06

 Cycle  13  Pass 1  IDiag  1:
 E= -228.845558464387     Delta-E=       -0.000000000009 Rises=F Damp=F
 DIIS: error= 4.91D-08 at cycle  13 NSaved=  13.
 NSaved=13 IEnMin=13 EnMin= -228.845558464387     IErMin=13 ErrMin= 4.91D-08
 ErrMax= 4.91D-08  0.00D+00 EMaxC= 1.00D-01 BMatC= 2.66D-13 BMatP= 2.42D-12
 IDIUse=1 WtCom= 1.00D+00 WtEn= 0.00D+00
 Coeff-Com:  0.684D-06-0.212D-05-0.195D-04-0.521D-04-0.902D-06 0.129D-02
 Coeff-Com: -0.806D-03-0.713D-02-0.237D-03 0.852D-01-0.115D+00-0.503D+00
 Coeff-Com:  0.154D+01
 Coeff:      0.684D-06-0.212D-05-0.195D-04-0.521D-04-0.902D-06 0.129D-02
 Coeff:     -0.806D-03-0.713D-02-0.237D-03 0.852D-01-0.115D+00-0.503D+00
 Coeff:      0.154D+01
 Gap=     0.601 Goal=   None    Shift=    0.000
 RMSDP=1.79D-08 MaxDP=3.59D-07 DE=-9.49D-12 OVMax= 7.93D-07

 Cycle  14  Pass 1  IDiag  1:
 E= -228.845558464389     Delta-E=       -0.000000000002 Rises=F Damp=F
 DIIS: error= 1.68D-08 at cycle  14 NSaved=  14.
 NSaved=14 IEnMin=14 EnMin= -228.845558464389     IErMin=14 ErrMin= 1.68D-08
 ErrMax= 1.68D-08  0.00D+00 EMaxC= 1.00D-01 BMatC= 2.62D-14 BMatP= 2.66D-13
 IDIUse=1 WtCom= 1.00D+00 WtEn= 0.00D+00
 Coeff-Com: -0.258D-06 0.126D-05 0.915D-05 0.175D-04-0.364D-04-0.462D-03
 Coeff-Com:  0.781D-03 0.238D-02-0.478D-02-0.141D-01 0.429D-01 0.719D-01
 Coeff-Com: -0.566D+00 0.147D+01
 Coeff:     -0.258D-06 0.126D-05 0.915D-05 0.175D-04-0.364D-04-0.462D-03
 Coeff:      0.781D-03 0.238D-02-0.478D-02-0.141D-01 0.429D-01 0.719D-01
 Coeff:     -0.566D+00 0.147D+01
 Gap=     0.601 Goal=   None    Shift=    0.000
 RMSDP=5.99D-09 MaxDP=1.26D-07 DE=-2.16D-12 OVMax= 2.59D-07

 SCF Done:  E(RHF) =  -228.845558464     A.U. after   14 cycles
            NFock= 14  Conv=0.60D-08     -V/T= 2.0014
 KE= 2.285243032937D+02 PE=-8.053217756837D+02 EE= 2.150436371307D+02
 Leave Link  502 at Thu Dec 21 20:24:26 2017, MaxMem=  3489660928 cpu:         3.7
 (Enter /home/michal/g09/l801.exe)
 Windowed orbitals will be sorted by symmetry type.
 ExpMin= 1.22D-01 ExpMax= 1.17D+04 ExpMxC= 4.01D+02 IAcc=3 IRadAn=         5 AccDes= 0.00D+00
 HarFok:  IExCor=  205 AccDes= 0.00D+00 IRadAn=         5 IDoV=-2 UseB2=F ITyADJ=14
 ICtDFT= 12500011 ScaDFX=  1.000000  1.000000  1.000000  1.000000
 Largest valence mixing into a core orbital is  1.07D-04
 Largest core mixing into a valence orbital is  4.42D-05
 Range of M.O.s used for correlation:     5    86
 NBasis=    86 NAE=    17 NBE=    17 NFC=     4 NFV=     0
 NROrb=     82 NOA=    13 NOB=    13 NVA=    69 NVB=    69
 Leave Link  801 at Thu Dec 21 20:24:26 2017, MaxMem=  3489660928 cpu:         0.7
 (Enter /home/michal/g09/l804.exe)
 Closed-shell transformation, MDV=  3489660928 ITran=4 ISComp=1.
 Semi-Direct transformation.
 ModeAB=           2 MOrb=            13 LenV=    3489330409
 LASXX=      3165006 LTotXX=     3165006 LenRXX=     3165006
 LTotAB=     3280537 MaxLAS=     4365270 LenRXY=     4365270
 NonZer=     6330012 LenScr=    10221568 LnRSAI=           0
 LnScr1=           0 LExtra=      494080 Total=     18245924
 MaxDsk=  2684354560 SrtSym=           F ITran=            4
 DoSDTr:  NPSUse= 12
 JobTyp=0 Pass  1:  I=   1 to  13.
 (rs|ai) integrals will be sorted in core.
 Complete sort for first half transformation.
 First half transformation complete.
 Begin second half transformation for I=  10.
 Begin second half transformation for I=  10.
 Complete sort for second half transformation.
 Second half transformation complete.
 Spin components of T(2) and E(2):
     alpha-alpha T2 =       0.2431758814D-01 E2=     -0.8144268728D-01
     alpha-beta  T2 =       0.1528374760D+00 E2=     -0.5073019291D+00
     beta-beta   T2 =       0.2431758814D-01 E2=     -0.8144268728D-01
 ANorm=    0.1096117080D+01
 E2 =    -0.6701873037D+00 EUMP2 =    -0.22951574576807D+03
 Leave Link  804 at Thu Dec 21 20:24:27 2017, MaxMem=  3489660928 cpu:        12.3
 (Enter /home/michal/g09/l913.exe)
 CIDS:  MDV=  3489660928.
 Frozen-core window:  NFC=   4 NFV=   0.
 IFCWin=0 IBDFC=1 NFBD=     0     0 NFCmp=     0     0 NFFFC=     0     0
 Using DD3R+UMP44R for 1st iteration, S=T.
 Using DD4RQ for 2nd and later iterations.
 Keep R2 and R3 ints in memory in canonical form, NReq=14820214.
 FoFCou: FMM=F IPFlag=           0 FMFlag=           0 FMFlg1=           0
         NFxFlg=           0 DoJE=F BraDBF=F KetDBF=F FulRan=T
         wScrn=  0.000000 ICntrl=     600 IOpCl=  0 I1Cent=           0 NGrid=           0
         NMat0=    1 NMatS0=   3741 NMatT0=    0 NMatD0=    1 NMtDS0=    0 NMtDT0=    0
 Symmetry not used in FoFCou.
 CCSD(T)
 =======
 Iterations=  50 Convergence= 0.100D-06
 Iteration Nr.   1
 **********************
 DD1Dir will call FoFMem   1 times, MxPair=       182
 NAB=    91 NAA=     0 NBB=     0.
 MP4(R+Q)=  0.12069828D-01
 Maximum subspace dimension=  5
 Norm of the A-vectors is  1.1211463D+00 conv= 1.00D-05.
 RLE energy=       -0.6896304252
 E3=       -0.31020252D-01        EUMP3=      -0.22954676602D+03
 E4(DQ)=   -0.47393052D-02        UMP4(DQ)=   -0.22955150533D+03
 E4(SDQ)=  -0.10102400D-01        UMP4(SDQ)=  -0.22955686842D+03
 VARIATIONAL ENERGIES WITH THE FIRST-ORDER WAVEFUNCTION:
 DE(Corr)= -0.68908226     E(Corr)=     -229.53464072    
 NORM(A)=   0.11045493D+01
 Iteration Nr.   2
 **********************
 DD1Dir will call FoFMem   1 times, MxPair=       182
 NAB=    91 NAA=     0 NBB=     0.
 Norm of the A-vectors is  3.7184203D-01 conv= 1.00D-05.
 RLE energy=       -0.7104266050
 DE(Corr)= -0.70734691     E(CORR)=     -229.55290537     Delta=-1.83D-02
 NORM(A)=   0.11132589D+01
 Iteration Nr.   3
 **********************
 DD1Dir will call FoFMem   1 times, MxPair=       182
 NAB=    91 NAA=     0 NBB=     0.
 Norm of the A-vectors is  1.0999332D-01 conv= 1.00D-05.
 RLE energy=       -0.7114802918
 DE(Corr)= -0.71007094     E(CORR)=     -229.55562940     Delta=-2.72D-03
 NORM(A)=   0.11149743D+01
 Iteration Nr.   4
 **********************
 DD1Dir will call FoFMem   1 times, MxPair=       182
 NAB=    91 NAA=     0 NBB=     0.
 Norm of the A-vectors is  3.8639838D-02 conv= 1.00D-05.
 RLE energy=       -0.7117192984
 DE(Corr)= -0.71159125     E(CORR)=     -229.55714971     Delta=-1.52D-03
 NORM(A)=   0.11154030D+01
 Iteration Nr.   5
 **********************
 DD1Dir will call FoFMem   1 times, MxPair=       182
 NAB=    91 NAA=     0 NBB=     0.
 Norm of the A-vectors is  1.0528869D-02 conv= 1.00D-05.
 RLE energy=       -0.7117785696
 DE(Corr)= -0.71173797     E(CORR)=     -229.55729643     Delta=-1.47D-04
 NORM(A)=   0.11155258D+01
 Iteration Nr.   6
 **********************
 DD1Dir will call FoFMem   1 times, MxPair=       182
 NAB=    91 NAA=     0 NBB=     0.
 Norm of the A-vectors is  4.8266239D-03 conv= 1.00D-05.
 RLE energy=       -0.7117372666
 DE(Corr)= -0.71175942     E(CORR)=     -229.55731789     Delta=-2.15D-05
 NORM(A)=   0.11155335D+01
 Iteration Nr.   7
 **********************
 DD1Dir will call FoFMem   1 times, MxPair=       182
 NAB=    91 NAA=     0 NBB=     0.
 Norm of the A-vectors is  2.0928347D-03 conv= 1.00D-05.
 RLE energy=       -0.7117544858
 DE(Corr)= -0.71175941     E(CORR)=     -229.55731787     Delta= 1.34D-08
 NORM(A)=   0.11155454D+01
 Iteration Nr.   8
 **********************
 DD1Dir will call FoFMem   1 times, MxPair=       182
 NAB=    91 NAA=     0 NBB=     0.
 Norm of the A-vectors is  9.3509329D-04 conv= 1.00D-05.
 RLE energy=       -0.7117536363
 DE(Corr)= -0.71175555     E(CORR)=     -229.55731401     Delta= 3.86D-06
 NORM(A)=   0.11155479D+01
 Iteration Nr.   9
 **********************
 DD1Dir will call FoFMem   1 times, MxPair=       182
 NAB=    91 NAA=     0 NBB=     0.
 Norm of the A-vectors is  4.7759876D-04 conv= 1.00D-05.
 RLE energy=       -0.7117576708
 DE(Corr)= -0.71175763     E(CORR)=     -229.55731609     Delta=-2.08D-06
 NORM(A)=   0.11155497D+01
 Iteration Nr.  10
 **********************
 DD1Dir will call FoFMem   1 times, MxPair=       182
 NAB=    91 NAA=     0 NBB=     0.
 Norm of the A-vectors is  2.8245557D-04 conv= 1.00D-05.
 RLE energy=       -0.7117585638
 DE(Corr)= -0.71175783     E(CORR)=     -229.55731630     Delta=-2.06D-07
 NORM(A)=   0.11155508D+01
 Iteration Nr.  11
 **********************
 DD1Dir will call FoFMem   1 times, MxPair=       182
 NAB=    91 NAA=     0 NBB=     0.
 Norm of the A-vectors is  1.5089038D-04 conv= 1.00D-05.
 RLE energy=       -0.7117587621
 DE(Corr)= -0.71175859     E(CORR)=     -229.55731705     Delta=-7.56D-07
 NORM(A)=   0.11155511D+01
 Iteration Nr.  12
 **********************
 DD1Dir will call FoFMem   1 times, MxPair=       182
 NAB=    91 NAA=     0 NBB=     0.
 Norm of the A-vectors is  6.7611500D-05 conv= 1.00D-05.
 RLE energy=       -0.7117589493
 DE(Corr)= -0.71175883     E(CORR)=     -229.55731729     Delta=-2.40D-07
 NORM(A)=   0.11155514D+01
 Iteration Nr.  13
 **********************
 DD1Dir will call FoFMem   1 times, MxPair=       182
 NAB=    91 NAA=     0 NBB=     0.
 Norm of the A-vectors is  3.3303708D-05 conv= 1.00D-05.
 RLE energy=       -0.7117589518
 DE(Corr)= -0.71175892     E(CORR)=     -229.55731739     Delta=-9.45D-08
 NORM(A)=   0.11155515D+01
 Iteration Nr.  14
 **********************
 DD1Dir will call FoFMem   1 times, MxPair=       182
 NAB=    91 NAA=     0 NBB=     0.
 Norm of the A-vectors is  1.3768100D-05 conv= 1.00D-05.
 RLE energy=       -0.7117589626
 DE(Corr)= -0.71175895     E(CORR)=     -229.55731742     Delta=-2.93D-08
 NORM(A)=   0.11155516D+01
 Iteration Nr.  15
 **********************
 DD1Dir will call FoFMem   1 times, MxPair=       182
 NAB=    91 NAA=     0 NBB=     0.
 Norm of the A-vectors is  8.1188175D-06 conv= 1.00D-05.
 RLE energy=       -0.7117589741
 DE(Corr)= -0.71175897     E(CORR)=     -229.55731743     Delta=-1.49D-08
 NORM(A)=   0.11155517D+01
 CI/CC converged in   15 iterations to DelEn=-1.49D-08 Conv= 1.00D-07 ErrA1= 8.12D-06 Conv= 1.00D-05
 Largest amplitude= 2.22D-02
 T4(AAA)= -0.44891989D-03
 T4(AAB)= -0.97682473D-02
 T5(AAA)=  0.24962050D-04
 T5(AAB)=  0.35191105D-03
 Time for triples=      118.24 seconds.
 T4(CCSD)= -0.20434334D-01
 T5(CCSD)=  0.75374619D-03
 CCSD(T)= -0.22957699802D+03
 Discarding MO integrals.
 Leave Link  913 at Thu Dec 21 20:25:25 2017, MaxMem=  3489660928 cpu:       687.4
 (Enter /home/michal/g09/l601.exe)
 Copying SCF densities to generalized density rwf, IOpCl= 0 IROHF=0.

 **********************************************************************

            Population analysis using the SCF density.

 **********************************************************************

 Alpha  occ. eigenvalues --  -20.61847 -20.61161 -11.28869 -11.23285  -1.46101
 Alpha  occ. eigenvalues --   -1.21694  -1.01045  -0.83198  -0.70738  -0.66220
 Alpha  occ. eigenvalues --   -0.63589  -0.59682  -0.53605  -0.52941  -0.50846
 Alpha  occ. eigenvalues --   -0.47420  -0.43269
 Alpha virt. eigenvalues --    0.16806   0.21280   0.23503   0.24466   0.25994
 Alpha virt. eigenvalues --    0.26326   0.28560   0.35939   0.42920   0.59120
 Alpha virt. eigenvalues --    0.61932   0.67701   0.73971   0.75198   0.80801
 Alpha virt. eigenvalues --    0.82877   0.86363   0.88357   0.88553   0.89336
 Alpha virt. eigenvalues --    0.92971   1.10402   1.12143   1.12657   1.19148
 Alpha virt. eigenvalues --    1.21934   1.30513   1.32539   1.36104   1.44442
 Alpha virt. eigenvalues --    1.45581   1.53248   1.55677   1.66695   1.68042
 Alpha virt. eigenvalues --    1.73021   1.82912   1.86509   1.86682   1.89549
 Alpha virt. eigenvalues --    1.91939   1.94207   1.95144   1.97245   2.01219
 Alpha virt. eigenvalues --    2.16636   2.19921   2.23182   2.29821   2.39240
 Alpha virt. eigenvalues --    2.41498   2.44938   2.49981   2.54177   2.70890
 Alpha virt. eigenvalues --    2.72438   2.73970   2.80036   2.83880   2.86295
 Alpha virt. eigenvalues --    2.91799   2.99157   3.26267   3.33112   3.43505
 Alpha virt. eigenvalues --    3.48933   3.61762   3.94128   4.22418
          Condensed to atoms (all electrons):
               1          2          3          4          5          6
     1  C    4.536376   0.433921  -0.030904  -0.007450  -0.000091   0.408769
     2  C    0.433921   4.418253   0.267157  -0.060512   0.002999  -0.023928
     3  O   -0.030904   0.267157   8.061583   0.119183  -0.030480  -0.001120
     4  O   -0.007450  -0.060512   0.119183   7.780856   0.345457   0.002088
     5  H   -0.000091   0.002999  -0.030480   0.345457   0.479489  -0.000240
     6  H    0.408769  -0.023928  -0.001120   0.002088  -0.000240   0.605904
     7  H   -0.030800   0.406668  -0.029689   0.002336  -0.000085   0.007045
     8  H   -0.027506   0.409265  -0.029403   0.002454  -0.000248  -0.008013
     9  H    0.398600  -0.023084   0.002299   0.000750  -0.000062  -0.022388
    10  H    0.404409  -0.027293  -0.000830   0.006160  -0.000078  -0.026837
               7          8          9         10
     1  C   -0.030800  -0.027506   0.398600   0.404409
     2  C    0.406668   0.409265  -0.023084  -0.027293
     3  O   -0.029689  -0.029403   0.002299  -0.000830
     4  O    0.002336   0.002454   0.000750   0.006160
     5  H   -0.000085  -0.000248  -0.000062  -0.000078
     6  H    0.007045  -0.008013  -0.022388  -0.026837
     7  H    0.663661  -0.041079  -0.003228  -0.007972
     8  H   -0.041079   0.649388  -0.003158   0.007217
     9  H   -0.003228  -0.003158   0.638424  -0.023675
    10  H   -0.007972   0.007217  -0.023675   0.632817
 Mulliken charges:
               1
     1  C   -0.085324
     2  C    0.196553
     3  O   -0.327797
     4  O   -0.191322
     5  H    0.203340
     6  H    0.058719
     7  H    0.033143
     8  H    0.041083
     9  H    0.035522
    10  H    0.036082
 Sum of Mulliken charges =   0.00000
 Mulliken charges with hydrogens summed into heavy atoms:
               1
     1  C    0.045000
     2  C    0.270779
     3  O   -0.327797
     4  O    0.012018
 Electronic spatial extent (au):  <R**2>=            877.4059
 Charge=              0.0000 electrons
 Dipole moment (field-independent basis, Debye):
    X=              0.8323    Y=             -0.0771    Z=             -1.8655  Tot=              2.0442
 Quadrupole moment (field-independent basis, Debye-Ang):
   XX=            -22.1894   YY=            -23.4783   ZZ=            -19.5358
   XY=             -3.8041   XZ=             -0.7920   YZ=              0.6151
 Traceless Quadrupole moment (field-independent basis, Debye-Ang):
   XX=             -0.4549   YY=             -1.7438   ZZ=              2.1987
   XY=             -3.8041   XZ=             -0.7920   YZ=              0.6151
 Octapole moment (field-independent basis, Debye-Ang**2):
  XXX=              5.0616  YYY=             63.2390  ZZZ=            142.4394  XYY=             10.1173
  XXY=             15.8959  XXZ=             48.6598  XZZ=              1.2349  YZZ=             22.3054
  YYZ=             49.7472  XYZ=              4.0826
 Hexadecapole moment (field-independent basis, Debye-Ang**3):
 XXXX=            -62.7320 YYYY=           -226.5599 ZZZZ=           -794.6462 XXXY=             -7.2971
 XXXZ=            -39.9391 YYYX=            -22.0141 YYYZ=           -121.7335 ZZZX=            -35.6786
 ZZZY=           -131.3405 XXYY=            -34.8793 XXZZ=           -144.9474 YYZZ=           -176.9250
 XXYZ=            -35.7239 YYXZ=            -22.7277 ZZXY=             -5.3159
 N-N= 1.329082767949D+02 E-N=-8.053217757748D+02  KE= 2.285243032937D+02
 Leave Link  601 at Thu Dec 21 20:25:25 2017, MaxMem=  3489660928 cpu:         0.2
 (Enter /home/michal/g09/l9999.exe)
 1\1\GINC-LINUX\SP\RCCSD(T)-FC\CC-pVDZ\C2H6O2\MICHAL\21-Dec-2017\0\\#P 
 CCSD(T)/cc-pVDZ SP Nosymm\\PEscan\\0,1\C,0,-0.63044,-1.10865,-3.29275\
 C,0,-0.05689,-0.05765,-2.35503\O,0,0.46468,-0.53357,-1.09519\O,0,0.319
 36,-1.97707,-0.99804\H,0,1.25929,-2.22118,-1.03074\H,0,-1.47042,-1.646
 41,-2.83061\H,0,0.7708,0.47778,-2.85798\H,0,-0.83676,0.68372,-2.10411\
 H,0,-0.99319,-0.59349,-4.19797\H,0,0.12874,-1.84557,-3.592\\Version=EM
 64L-G09RevD.01\HF=-228.8455585\MP2=-229.5157458\MP3=-229.546766\MP4D=-
 229.5635752\MP4DQ=-229.5515053\MP4SDQ=-229.5568684\CCSD=-229.5573174\C
 CSD(T)=-229.576998\RMSD=5.989e-09\PG=C01 [X(C2H6O2)]\\@


 WHAT, THEN, IS TIME?  IF NO ONE ASKS ME, I KNOW WHAT IT IS.
 IF I WISH TO EXPLAIN WHAT IT IS TO HIM WHO ASKS ME, I DO NOT KNOW.
                                   -- ST. AUGUSTINE (FIFTH CENTURY)
 Job cpu time:       0 days  0 hours 11 minutes 49.3 seconds.
 File lengths (MBytes):  RWF=    699 Int=      0 D2E=      0 Chk=      1 Scr=      1
 Normal termination of Gaussian 09 at Thu Dec 21 20:25:25 2017.
