 Entering Gaussian System, Link 0=g09
 Input=1HPP_ccsdtdz_002.com
 Output=1HPP_ccsdtdz_002.log
 Initial command:
 /home/michal/g09/l1.exe "/home/michal/gauss_scratch/Gau-14923.inp" -scrdir="/home/michal/gauss_scratch/"
 Entering Link 1 = /home/michal/g09/l1.exe PID=     14924.
  
 Copyright (c) 1988,1990,1992,1993,1995,1998,2003,2009,2013,
            Gaussian, Inc.  All Rights Reserved.
  
 This is part of the Gaussian(R) 09 program.  It is based on
 the Gaussian(R) 03 system (copyright 2003, Gaussian, Inc.),
 the Gaussian(R) 98 system (copyright 1998, Gaussian, Inc.),
 the Gaussian(R) 94 system (copyright 1995, Gaussian, Inc.),
 the Gaussian 92(TM) system (copyright 1992, Gaussian, Inc.),
 the Gaussian 90(TM) system (copyright 1990, Gaussian, Inc.),
 the Gaussian 88(TM) system (copyright 1988, Gaussian, Inc.),
 the Gaussian 86(TM) system (copyright 1986, Carnegie Mellon
 University), and the Gaussian 82(TM) system (copyright 1983,
 Carnegie Mellon University). Gaussian is a federally registered
 trademark of Gaussian, Inc.
  
 This software contains proprietary and confidential information,
 including trade secrets, belonging to Gaussian, Inc.
  
 This software is provided under written license and may be
 used, copied, transmitted, or stored only in accord with that
 written license.
  
 The following legend is applicable only to US Government
 contracts under FAR:
  
                    RESTRICTED RIGHTS LEGEND
  
 Use, reproduction and disclosure by the US Government is
 subject to restrictions as set forth in subparagraphs (a)
 and (c) of the Commercial Computer Software - Restricted
 Rights clause in FAR 52.227-19.
  
 Gaussian, Inc.
 340 Quinnipiac St., Bldg. 40, Wallingford CT 06492
  
  
 ---------------------------------------------------------------
 Warning -- This program may not be used in any manner that
 competes with the business of Gaussian, Inc. or will provide
 assistance to any competitor of Gaussian, Inc.  The licensee
 of this program is prohibited from giving any competitor of
 Gaussian, Inc. access to this program.  By using this program,
 the user acknowledges that Gaussian, Inc. is engaged in the
 business of creating and licensing software in the field of
 computational chemistry and represents and warrants to the
 licensee that it is not a competitor of Gaussian, Inc. and that
 it will not use this program in any manner prohibited above.
 ---------------------------------------------------------------
  

 Cite this work as:
 Gaussian 09, Revision D.01,
 M. J. Frisch, G. W. Trucks, H. B. Schlegel, G. E. Scuseria, 
 M. A. Robb, J. R. Cheeseman, G. Scalmani, V. Barone, B. Mennucci, 
 G. A. Petersson, H. Nakatsuji, M. Caricato, X. Li, H. P. Hratchian, 
 A. F. Izmaylov, J. Bloino, G. Zheng, J. L. Sonnenberg, M. Hada, 
 M. Ehara, K. Toyota, R. Fukuda, J. Hasegawa, M. Ishida, T. Nakajima, 
 Y. Honda, O. Kitao, H. Nakai, T. Vreven, J. A. Montgomery, Jr., 
 J. E. Peralta, F. Ogliaro, M. Bearpark, J. J. Heyd, E. Brothers, 
 K. N. Kudin, V. N. Staroverov, T. Keith, R. Kobayashi, J. Normand, 
 K. Raghavachari, A. Rendell, J. C. Burant, S. S. Iyengar, J. Tomasi, 
 M. Cossi, N. Rega, J. M. Millam, M. Klene, J. E. Knox, J. B. Cross, 
 V. Bakken, C. Adamo, J. Jaramillo, R. Gomperts, R. E. Stratmann, 
 O. Yazyev, A. J. Austin, R. Cammi, C. Pomelli, J. W. Ochterski, 
 R. L. Martin, K. Morokuma, V. G. Zakrzewski, G. A. Voth, 
 P. Salvador, J. J. Dannenberg, S. Dapprich, A. D. Daniels, 
 O. Farkas, J. B. Foresman, J. V. Ortiz, J. Cioslowski, 
 and D. J. Fox, Gaussian, Inc., Wallingford CT, 2013.
 
 ******************************************
 Gaussian 09:  EM64L-G09RevD.01 24-Apr-2013
                21-Dec-2017 
 ******************************************
 %Mem=26GB
 %NProc=12
 Will use up to   12 processors via shared memory.
 %RWF=/home/michal/Cholesterol_grant/peroxy_params,20GB
 ----------------------------
 #P CCSD(T)/cc-pVDZ SP Nosymm
 ----------------------------
 1/38=1/1;
 2/12=2,15=1,17=6,18=5,40=1/2;
 3/5=16,11=9,16=1,25=1,30=1/1,2,3;
 4//1;
 5/5=2,38=5/2;
 8/6=4,9=120000,10=1/1,4;
 9/5=7,14=2/13;
 6/7=2,8=2,9=2,10=2/1;
 99/5=1,9=1/99;
 Leave Link    1 at Thu Dec 21 20:06:59 2017, MaxMem=  3489660928 cpu:         0.3
 (Enter /home/michal/g09/l101.exe)
 ------
 PEscan
 ------
 Symbolic Z-matrix:
 Charge =  0 Multiplicity = 1
 C                    -0.56605  -1.01658  -3.68326 
 C                    -0.09947  -0.44049  -2.35571 
 O                     0.70757  -1.44693  -1.75601 
 O                     0.95689  -1.00265  -0.38916 
 H                     0.48506  -1.71263   0.0777 
 H                    -1.1654   -1.92553  -3.51913 
 H                     0.48327   0.48934  -2.49314 
 H                    -0.96036  -0.21453  -1.69988 
 H                    -1.18246  -0.2763   -4.21797 
 H                     0.29611  -1.27582  -4.31788 
 
 NAtoms=     10 NQM=       10 NQMF=       0 NMMI=      0 NMMIF=      0
                NMic=       0 NMicF=      0.
                    Isotopes and Nuclear Properties:
 (Nuclear quadrupole moments (NQMom) in fm**2, nuclear magnetic moments (NMagM)
  in nuclear magnetons)

  Atom         1           2           3           4           5           6           7           8           9          10
 IAtWgt=          12          12          16          16           1           1           1           1           1           1
 AtmWgt=  12.0000000  12.0000000  15.9949146  15.9949146   1.0078250   1.0078250   1.0078250   1.0078250   1.0078250   1.0078250
 NucSpn=           0           0           0           0           1           1           1           1           1           1
 AtZEff=   0.0000000   0.0000000   0.0000000   0.0000000   0.0000000   0.0000000   0.0000000   0.0000000   0.0000000   0.0000000
 NQMom=    0.0000000   0.0000000   0.0000000   0.0000000   0.0000000   0.0000000   0.0000000   0.0000000   0.0000000   0.0000000
 NMagM=    0.0000000   0.0000000   0.0000000   0.0000000   2.7928460   2.7928460   2.7928460   2.7928460   2.7928460   2.7928460
 AtZNuc=   6.0000000   6.0000000   8.0000000   8.0000000   1.0000000   1.0000000   1.0000000   1.0000000   1.0000000   1.0000000
 Leave Link  101 at Thu Dec 21 20:06:59 2017, MaxMem=  3489660928 cpu:         0.5
 (Enter /home/michal/g09/l202.exe)
                          Input orientation:                          
 ---------------------------------------------------------------------
 Center     Atomic      Atomic             Coordinates (Angstroms)
 Number     Number       Type             X           Y           Z
 ---------------------------------------------------------------------
      1          6           0       -0.566050   -1.016580   -3.683260
      2          6           0       -0.099470   -0.440490   -2.355710
      3          8           0        0.707570   -1.446930   -1.756010
      4          8           0        0.956890   -1.002650   -0.389160
      5          1           0        0.485060   -1.712630    0.077700
      6          1           0       -1.165400   -1.925530   -3.519130
      7          1           0        0.483270    0.489340   -2.493140
      8          1           0       -0.960360   -0.214530   -1.699880
      9          1           0       -1.182460   -0.276300   -4.217970
     10          1           0        0.296110   -1.275820   -4.317880
 ---------------------------------------------------------------------
                    Distance matrix (angstroms):
                    1          2          3          4          5
     1  C    0.000000
     2  C    1.520515   0.000000
     3  O    2.349809   1.422630   0.000000
     4  O    3.629137   2.302008   1.458706   0.000000
     5  H    3.966628   2.807401   1.866172   0.971933   0.000000
     6  H    1.101067   2.166817   2.616423   3.892626   3.963147
     7  H    2.187522   1.105919   2.083942   2.622419   3.384951
     8  H    2.175445   1.105578   2.074597   2.452543   2.737395
     9  H    1.101767   2.160518   3.317203   4.445693   4.826639
    10  H    1.101484   2.168956   2.600338   3.993256   4.421270
                    6          7          8          9         10
     6  H    0.000000
     7  H    3.098768   0.000000
     8  H    2.505840   1.791302   0.000000
     9  H    1.791264   2.517121   2.528620   0.000000
    10  H    1.787774   2.545682   3.091760   1.787510   0.000000
 Symmetry turned off by external request.
 Stoichiometry    C2H6O2
 Framework group  C1[X(C2H6O2)]
 Deg. of freedom    24
 Full point group                 C1      NOp   1
 Rotational constants (GHZ):     29.9386534      4.1767064      3.9086694
 Leave Link  202 at Thu Dec 21 20:06:59 2017, MaxMem=  3489660928 cpu:         0.0
 (Enter /home/michal/g09/l301.exe)
 Standard basis: CC-pVDZ (5D, 7F)
 Ernie: Thresh=  0.10000D-02 Tol=  0.10000D-05 Strict=F.
 Ernie:  8 primitive shells out of 118 were deleted.
    86 basis functions,   174 primitive gaussians,    90 cartesian basis functions
    17 alpha electrons       17 beta electrons
       nuclear repulsion energy       130.8102195016 Hartrees.
 IExCor=    0 DFT=F Ex=HF Corr=None ExCW=0 ScaHFX=  1.000000
 ScaDFX=  1.000000  1.000000  1.000000  1.000000 ScalE2=  1.000000  1.000000
 IRadAn=      0 IRanWt=     -1 IRanGd=            0 ICorTp=0 IEmpDi=  4
 NAtoms=   10 NActive=   10 NUniq=   10 SFac= 1.00D+00 NAtFMM=   60 NAOKFM=F Big=F
 Integral buffers will be    131072 words long.
 Raffenetti 1 integral format.
 Two-electron integral symmetry is turned off.
 Leave Link  301 at Thu Dec 21 20:06:59 2017, MaxMem=  3489660928 cpu:         0.3
 (Enter /home/michal/g09/l302.exe)
 NPDir=0 NMtPBC=     1 NCelOv=     1 NCel=       1 NClECP=     1 NCelD=      1
         NCelK=      1 NCelE2=     1 NClLst=     1 CellRange=     0.0.
 One-electron integrals computed using PRISM.
 NBasis=    86 RedAO= T EigKep=  6.09D-03  NBF=    86
 NBsUse=    86 1.00D-06 EigRej= -1.00D+00 NBFU=    86
 Leave Link  302 at Thu Dec 21 20:06:59 2017, MaxMem=  3489660928 cpu:         1.6
 (Enter /home/michal/g09/l303.exe)
 DipDrv:  MaxL=1.
 Leave Link  303 at Thu Dec 21 20:06:59 2017, MaxMem=  3489660928 cpu:         0.2
 (Enter /home/michal/g09/l401.exe)
 ExpMin= 1.22D-01 ExpMax= 1.17D+04 ExpMxC= 4.01D+02 IAcc=1 IRadAn=         1 AccDes= 0.00D+00
 Harris functional with IExCor=  205 and IRadAn=       1 diagonalized for initial guess.
 HarFok:  IExCor=  205 AccDes= 0.00D+00 IRadAn=         1 IDoV= 1 UseB2=F ITyADJ=14
 ICtDFT=  3500011 ScaDFX=  1.000000  1.000000  1.000000  1.000000
 FoFCou: FMM=F IPFlag=           0 FMFlag=      100000 FMFlg1=           0
         NFxFlg=           0 DoJE=T BraDBF=F KetDBF=T FulRan=T
         wScrn=  0.000000 ICntrl=     500 IOpCl=  0 I1Cent=   200000004 NGrid=           0
         NMat0=    1 NMatS0=      1 NMatT0=    0 NMatD0=    1 NMtDS0=    0 NMtDT0=    0
 Symmetry not used in FoFCou.
 Harris En= -229.128286982650    
 JPrj=0 DoOrth=F DoCkMO=F.
 Leave Link  401 at Thu Dec 21 20:06:59 2017, MaxMem=  3489660928 cpu:         2.0
 (Enter /home/michal/g09/l502.exe)
 Closed shell SCF:
 Using DIIS extrapolation, IDIIS=  1040.
 Two-electron integral symmetry not used.
 Keep R1 ints in memory in canonical form, NReq=7943142.
 IVT=       44490 IEndB=       44490 NGot=  3489660928 MDV=  3482617028
 LenX=  3482617028 LenY=  3482608487
 Requested convergence on RMS density matrix=1.00D-08 within 128 cycles.
 Requested convergence on MAX density matrix=1.00D-06.
 Requested convergence on             energy=1.00D-06.
 No special actions if energy rises.
 FoFCou: FMM=F IPFlag=           0 FMFlag=           0 FMFlg1=           0
         NFxFlg=           0 DoJE=F BraDBF=F KetDBF=F FulRan=T
         wScrn=  0.000000 ICntrl=     600 IOpCl=  0 I1Cent=           0 NGrid=           0
         NMat0=    1 NMatS0=   3741 NMatT0=    0 NMatD0=    1 NMtDS0=    0 NMtDT0=    0
 Symmetry not used in FoFCou.

 Cycle   1  Pass 1  IDiag  1:
 E= -228.695490684380    
 DIIS: error= 3.52D-02 at cycle   1 NSaved=   1.
 NSaved= 1 IEnMin= 1 EnMin= -228.695490684380     IErMin= 1 ErrMin= 3.52D-02
 ErrMax= 3.52D-02  0.00D+00 EMaxC= 1.00D-01 BMatC= 2.03D-01 BMatP= 2.03D-01
 IDIUse=3 WtCom= 6.48D-01 WtEn= 3.52D-01
 Coeff-Com:  0.100D+01
 Coeff-En:   0.100D+01
 Coeff:      0.100D+01
 Gap=     0.717 Goal=   None    Shift=    0.000
 GapD=    0.717 DampG=2.000 DampE=0.500 DampFc=1.0000 IDamp=-1.
 RMSDP=4.86D-03 MaxDP=1.11D-01              OVMax= 1.18D-01

 Cycle   2  Pass 1  IDiag  1:
 E= -228.830832784621     Delta-E=       -0.135342100241 Rises=F Damp=F
 DIIS: error= 1.63D-02 at cycle   2 NSaved=   2.
 NSaved= 2 IEnMin= 2 EnMin= -228.830832784621     IErMin= 2 ErrMin= 1.63D-02
 ErrMax= 1.63D-02  0.00D+00 EMaxC= 1.00D-01 BMatC= 2.58D-02 BMatP= 2.03D-01
 IDIUse=3 WtCom= 8.37D-01 WtEn= 1.63D-01
 Coeff-Com:  0.210D+00 0.790D+00
 Coeff-En:   0.000D+00 0.100D+01
 Coeff:      0.176D+00 0.824D+00
 Gap=     0.690 Goal=   None    Shift=    0.000
 RMSDP=1.56D-03 MaxDP=3.01D-02 DE=-1.35D-01 OVMax= 3.65D-02

 Cycle   3  Pass 1  IDiag  1:
 E= -228.853223016706     Delta-E=       -0.022390232085 Rises=F Damp=F
 DIIS: error= 3.06D-03 at cycle   3 NSaved=   3.
 NSaved= 3 IEnMin= 3 EnMin= -228.853223016706     IErMin= 3 ErrMin= 3.06D-03
 ErrMax= 3.06D-03  0.00D+00 EMaxC= 1.00D-01 BMatC= 1.26D-03 BMatP= 2.58D-02
 IDIUse=3 WtCom= 9.69D-01 WtEn= 3.06D-02
 Coeff-Com: -0.221D-01 0.127D+00 0.895D+00
 Coeff-En:   0.000D+00 0.000D+00 0.100D+01
 Coeff:     -0.214D-01 0.123D+00 0.898D+00
 Gap=     0.628 Goal=   None    Shift=    0.000
 RMSDP=3.44D-04 MaxDP=5.79D-03 DE=-2.24D-02 OVMax= 7.70D-03

 Cycle   4  Pass 1  IDiag  1:
 E= -228.854424012605     Delta-E=       -0.001200995899 Rises=F Damp=F
 DIIS: error= 7.14D-04 at cycle   4 NSaved=   4.
 NSaved= 4 IEnMin= 4 EnMin= -228.854424012605     IErMin= 4 ErrMin= 7.14D-04
 ErrMax= 7.14D-04  0.00D+00 EMaxC= 1.00D-01 BMatC= 1.17D-04 BMatP= 1.26D-03
 IDIUse=3 WtCom= 9.93D-01 WtEn= 7.14D-03
 Coeff-Com: -0.118D-01 0.154D-01 0.281D+00 0.716D+00
 Coeff-En:   0.000D+00 0.000D+00 0.000D+00 0.100D+01
 Coeff:     -0.117D-01 0.153D-01 0.279D+00 0.718D+00
 Gap=     0.625 Goal=   None    Shift=    0.000
 RMSDP=9.29D-05 MaxDP=2.25D-03 DE=-1.20D-03 OVMax= 2.37D-03

 Cycle   5  Pass 1  IDiag  1:
 E= -228.854517958646     Delta-E=       -0.000093946041 Rises=F Damp=F
 DIIS: error= 2.46D-04 at cycle   5 NSaved=   5.
 NSaved= 5 IEnMin= 5 EnMin= -228.854517958646     IErMin= 5 ErrMin= 2.46D-04
 ErrMax= 2.46D-04  0.00D+00 EMaxC= 1.00D-01 BMatC= 7.81D-06 BMatP= 1.17D-04
 IDIUse=3 WtCom= 9.98D-01 WtEn= 2.46D-03
 Coeff-Com:  0.180D-02-0.177D-01-0.973D-01 0.645D-01 0.105D+01
 Coeff-En:   0.000D+00 0.000D+00 0.000D+00 0.000D+00 0.100D+01
 Coeff:      0.179D-02-0.176D-01-0.971D-01 0.643D-01 0.105D+01
 Gap=     0.625 Goal=   None    Shift=    0.000
 RMSDP=4.64D-05 MaxDP=6.02D-04 DE=-9.39D-05 OVMax= 1.28D-03

 Cycle   6  Pass 1  IDiag  1:
 E= -228.854530982496     Delta-E=       -0.000013023850 Rises=F Damp=F
 DIIS: error= 4.89D-05 at cycle   6 NSaved=   6.
 NSaved= 6 IEnMin= 6 EnMin= -228.854530982496     IErMin= 6 ErrMin= 4.89D-05
 ErrMax= 4.89D-05  0.00D+00 EMaxC= 1.00D-01 BMatC= 4.92D-07 BMatP= 7.81D-06
 IDIUse=1 WtCom= 1.00D+00 WtEn= 0.00D+00
 Coeff-Com:  0.789D-03-0.331D-02-0.247D-01-0.322D-01 0.138D+00 0.922D+00
 Coeff:      0.789D-03-0.331D-02-0.247D-01-0.322D-01 0.138D+00 0.922D+00
 Gap=     0.625 Goal=   None    Shift=    0.000
 RMSDP=1.16D-05 MaxDP=1.84D-04 DE=-1.30D-05 OVMax= 3.39D-04

 Cycle   7  Pass 1  IDiag  1:
 E= -228.854531831836     Delta-E=       -0.000000849340 Rises=F Damp=F
 DIIS: error= 1.76D-05 at cycle   7 NSaved=   7.
 NSaved= 7 IEnMin= 7 EnMin= -228.854531831836     IErMin= 7 ErrMin= 1.76D-05
 ErrMax= 1.76D-05  0.00D+00 EMaxC= 1.00D-01 BMatC= 6.94D-08 BMatP= 4.92D-07
 IDIUse=1 WtCom= 1.00D+00 WtEn= 0.00D+00
 Coeff-Com: -0.814D-04 0.159D-02 0.811D-02-0.132D-01-0.101D+00 0.737D-01
 Coeff-Com:  0.103D+01
 Coeff:     -0.814D-04 0.159D-02 0.811D-02-0.132D-01-0.101D+00 0.737D-01
 Coeff:      0.103D+01
 Gap=     0.625 Goal=   None    Shift=    0.000
 RMSDP=5.72D-06 MaxDP=8.06D-05 DE=-8.49D-07 OVMax= 2.14D-04

 Cycle   8  Pass 1  IDiag  1:
 E= -228.854532019395     Delta-E=       -0.000000187558 Rises=F Damp=F
 DIIS: error= 9.44D-06 at cycle   8 NSaved=   8.
 NSaved= 8 IEnMin= 8 EnMin= -228.854532019395     IErMin= 8 ErrMin= 9.44D-06
 ErrMax= 9.44D-06  0.00D+00 EMaxC= 1.00D-01 BMatC= 1.16D-08 BMatP= 6.94D-08
 IDIUse=1 WtCom= 1.00D+00 WtEn= 0.00D+00
 Coeff-Com: -0.826D-04 0.492D-04 0.133D-02 0.810D-02 0.109D-01-0.167D+00
 Coeff-Com: -0.249D+00 0.140D+01
 Coeff:     -0.826D-04 0.492D-04 0.133D-02 0.810D-02 0.109D-01-0.167D+00
 Coeff:     -0.249D+00 0.140D+01
 Gap=     0.625 Goal=   None    Shift=    0.000
 RMSDP=3.45D-06 MaxDP=5.96D-05 DE=-1.88D-07 OVMax= 1.55D-04

 Cycle   9  Pass 1  IDiag  1:
 E= -228.854532069816     Delta-E=       -0.000000050421 Rises=F Damp=F
 DIIS: error= 3.41D-06 at cycle   9 NSaved=   9.
 NSaved= 9 IEnMin= 9 EnMin= -228.854532069816     IErMin= 9 ErrMin= 3.41D-06
 ErrMax= 3.41D-06  0.00D+00 EMaxC= 1.00D-01 BMatC= 1.48D-09 BMatP= 1.16D-08
 IDIUse=1 WtCom= 1.00D+00 WtEn= 0.00D+00
 Coeff-Com:  0.446D-04-0.205D-03-0.163D-02-0.195D-02 0.907D-02 0.633D-01
 Coeff-Com: -0.269D-01-0.622D+00 0.158D+01
 Coeff:      0.446D-04-0.205D-03-0.163D-02-0.195D-02 0.907D-02 0.633D-01
 Coeff:     -0.269D-01-0.622D+00 0.158D+01
 Gap=     0.625 Goal=   None    Shift=    0.000
 RMSDP=1.59D-06 MaxDP=2.89D-05 DE=-5.04D-08 OVMax= 6.99D-05

 Cycle  10  Pass 1  IDiag  1:
 E= -228.854532077570     Delta-E=       -0.000000007754 Rises=F Damp=F
 DIIS: error= 1.03D-06 at cycle  10 NSaved=  10.
 NSaved=10 IEnMin=10 EnMin= -228.854532077570     IErMin=10 ErrMin= 1.03D-06
 ErrMax= 1.03D-06  0.00D+00 EMaxC= 1.00D-01 BMatC= 1.29D-10 BMatP= 1.48D-09
 IDIUse=1 WtCom= 1.00D+00 WtEn= 0.00D+00
 Coeff-Com:  0.943D-08 0.237D-04 0.128D-03-0.333D-03-0.250D-02 0.398D-02
 Coeff-Com:  0.264D-01-0.157D-01-0.272D+00 0.126D+01
 Coeff:      0.943D-08 0.237D-04 0.128D-03-0.333D-03-0.250D-02 0.398D-02
 Coeff:      0.264D-01-0.157D-01-0.272D+00 0.126D+01
 Gap=     0.625 Goal=   None    Shift=    0.000
 RMSDP=3.76D-07 MaxDP=6.46D-06 DE=-7.75D-09 OVMax= 1.42D-05

 Cycle  11  Pass 1  IDiag  1:
 E= -228.854532078124     Delta-E=       -0.000000000554 Rises=F Damp=F
 DIIS: error= 4.03D-07 at cycle  11 NSaved=  11.
 NSaved=11 IEnMin=11 EnMin= -228.854532078124     IErMin=11 ErrMin= 4.03D-07
 ErrMax= 4.03D-07  0.00D+00 EMaxC= 1.00D-01 BMatC= 2.02D-11 BMatP= 1.29D-10
 IDIUse=1 WtCom= 1.00D+00 WtEn= 0.00D+00
 Coeff-Com: -0.634D-05 0.306D-04 0.253D-03 0.374D-03-0.136D-02-0.113D-01
 Coeff-Com:  0.328D-02 0.110D+00-0.275D+00 0.124D-01 0.116D+01
 Coeff:     -0.634D-05 0.306D-04 0.253D-03 0.374D-03-0.136D-02-0.113D-01
 Coeff:      0.328D-02 0.110D+00-0.275D+00 0.124D-01 0.116D+01
 Gap=     0.625 Goal=   None    Shift=    0.000
 RMSDP=1.43D-07 MaxDP=2.25D-06 DE=-5.54D-10 OVMax= 5.75D-06

 Cycle  12  Pass 1  IDiag  1:
 E= -228.854532078199     Delta-E=       -0.000000000074 Rises=F Damp=F
 DIIS: error= 9.81D-08 at cycle  12 NSaved=  12.
 NSaved=12 IEnMin=12 EnMin= -228.854532078199     IErMin=12 ErrMin= 9.81D-08
 ErrMax= 9.81D-08  0.00D+00 EMaxC= 1.00D-01 BMatC= 1.57D-12 BMatP= 2.02D-11
 IDIUse=1 WtCom= 1.00D+00 WtEn= 0.00D+00
 Coeff-Com:  0.182D-06-0.404D-05-0.208D-04 0.277D-04 0.305D-03-0.975D-04
 Coeff-Com: -0.260D-02-0.132D-02 0.325D-01-0.115D+00-0.564D-01 0.114D+01
 Coeff:      0.182D-06-0.404D-05-0.208D-04 0.277D-04 0.305D-03-0.975D-04
 Coeff:     -0.260D-02-0.132D-02 0.325D-01-0.115D+00-0.564D-01 0.114D+01
 Gap=     0.625 Goal=   None    Shift=    0.000
 RMSDP=3.60D-08 MaxDP=6.00D-07 DE=-7.44D-11 OVMax= 1.58D-06

 Cycle  13  Pass 1  IDiag  1:
 E= -228.854532078205     Delta-E=       -0.000000000007 Rises=F Damp=F
 DIIS: error= 4.09D-08 at cycle  13 NSaved=  13.
 NSaved=13 IEnMin=13 EnMin= -228.854532078205     IErMin=13 ErrMin= 4.09D-08
 ErrMax= 4.09D-08  0.00D+00 EMaxC= 1.00D-01 BMatC= 2.24D-13 BMatP= 1.57D-12
 IDIUse=1 WtCom= 1.00D+00 WtEn= 0.00D+00
 Coeff-Com:  0.498D-06-0.131D-05-0.150D-04-0.482D-04-0.572D-05 0.117D-02
 Coeff-Com:  0.863D-03-0.108D-01 0.145D-01 0.484D-01-0.963D-01-0.492D+00
 Coeff-Com:  0.153D+01
 Coeff:      0.498D-06-0.131D-05-0.150D-04-0.482D-04-0.572D-05 0.117D-02
 Coeff:      0.863D-03-0.108D-01 0.145D-01 0.484D-01-0.963D-01-0.492D+00
 Coeff:      0.153D+01
 Gap=     0.625 Goal=   None    Shift=    0.000
 RMSDP=1.62D-08 MaxDP=2.67D-07 DE=-6.76D-12 OVMax= 6.87D-07

 Cycle  14  Pass 1  IDiag  1:
 E= -228.854532078205     Delta-E=        0.000000000000 Rises=F Damp=F
 DIIS: error= 1.36D-08 at cycle  14 NSaved=  14.
 NSaved=14 IEnMin=13 EnMin= -228.854532078205     IErMin=14 ErrMin= 1.36D-08
 ErrMax= 1.36D-08  0.00D+00 EMaxC= 1.00D-01 BMatC= 2.28D-14 BMatP= 2.24D-13
 IDIUse=1 WtCom= 1.00D+00 WtEn= 0.00D+00
 Coeff-Com: -0.261D-06 0.126D-05 0.992D-05 0.167D-04-0.488D-04-0.476D-03
 Coeff-Com:  0.195D-04 0.462D-02-0.106D-01-0.365D-02 0.482D-01 0.270D-01
 Coeff-Com: -0.530D+00 0.146D+01
 Coeff:     -0.261D-06 0.126D-05 0.992D-05 0.167D-04-0.488D-04-0.476D-03
 Coeff:      0.195D-04 0.462D-02-0.106D-01-0.365D-02 0.482D-01 0.270D-01
 Coeff:     -0.530D+00 0.146D+01
 Gap=     0.625 Goal=   None    Shift=    0.000
 RMSDP=5.70D-09 MaxDP=8.00D-08 DE= 1.71D-13 OVMax= 2.32D-07

 SCF Done:  E(RHF) =  -228.854532078     A.U. after   14 cycles
            NFock= 14  Conv=0.57D-08     -V/T= 2.0014
 KE= 2.285408533101D+02 PE=-8.010875541180D+02 EE= 2.128819492280D+02
 Leave Link  502 at Thu Dec 21 20:07:00 2017, MaxMem=  3489660928 cpu:         3.8
 (Enter /home/michal/g09/l801.exe)
 Windowed orbitals will be sorted by symmetry type.
 ExpMin= 1.22D-01 ExpMax= 1.17D+04 ExpMxC= 4.01D+02 IAcc=3 IRadAn=         5 AccDes= 0.00D+00
 HarFok:  IExCor=  205 AccDes= 0.00D+00 IRadAn=         5 IDoV=-2 UseB2=F ITyADJ=14
 ICtDFT= 12500011 ScaDFX=  1.000000  1.000000  1.000000  1.000000
 Largest valence mixing into a core orbital is  1.06D-04
 Largest core mixing into a valence orbital is  4.40D-05
 Range of M.O.s used for correlation:     5    86
 NBasis=    86 NAE=    17 NBE=    17 NFC=     4 NFV=     0
 NROrb=     82 NOA=    13 NOB=    13 NVA=    69 NVB=    69
 Leave Link  801 at Thu Dec 21 20:07:00 2017, MaxMem=  3489660928 cpu:         0.7
 (Enter /home/michal/g09/l804.exe)
 Closed-shell transformation, MDV=  3489660928 ITran=4 ISComp=1.
 Semi-Direct transformation.
 ModeAB=           2 MOrb=            13 LenV=    3489332059
 LASXX=      3165006 LTotXX=     3165006 LenRXX=     3165006
 LTotAB=     3280537 MaxLAS=     4365270 LenRXY=     4365270
 NonZer=     6330012 LenScr=    10221568 LnRSAI=           0
 LnScr1=           0 LExtra=      494080 Total=     18245924
 MaxDsk=  2684354560 SrtSym=           F ITran=            4
 DoSDTr:  NPSUse= 12
 JobTyp=0 Pass  1:  I=   1 to  13.
 (rs|ai) integrals will be sorted in core.
 Complete sort for first half transformation.
 First half transformation complete.
 Begin second half transformation for I=  10.
 Begin second half transformation for I=  10.
 Complete sort for second half transformation.
 Second half transformation complete.
 Spin components of T(2) and E(2):
     alpha-alpha T2 =       0.2433473045D-01 E2=     -0.8152342675D-01
     alpha-beta  T2 =       0.1528007919D+00 E2=     -0.5073169368D+00
     beta-beta   T2 =       0.2433473045D-01 E2=     -0.8152342675D-01
 ANorm=    0.1096115985D+01
 E2 =    -0.6703637903D+00 EUMP2 =    -0.22952489586846D+03
 Leave Link  804 at Thu Dec 21 20:07:01 2017, MaxMem=  3489660928 cpu:        12.2
 (Enter /home/michal/g09/l913.exe)
 CIDS:  MDV=  3489660928.
 Frozen-core window:  NFC=   4 NFV=   0.
 IFCWin=0 IBDFC=1 NFBD=     0     0 NFCmp=     0     0 NFFFC=     0     0
 Using DD3R+UMP44R for 1st iteration, S=T.
 Using DD4RQ for 2nd and later iterations.
 Keep R2 and R3 ints in memory in canonical form, NReq=14820214.
 FoFCou: FMM=F IPFlag=           0 FMFlag=           0 FMFlg1=           0
         NFxFlg=           0 DoJE=F BraDBF=F KetDBF=F FulRan=T
         wScrn=  0.000000 ICntrl=     600 IOpCl=  0 I1Cent=           0 NGrid=           0
         NMat0=    1 NMatS0=   3741 NMatT0=    0 NMatD0=    1 NMtDS0=    0 NMtDT0=    0
 Symmetry not used in FoFCou.
 CCSD(T)
 =======
 Iterations=  50 Convergence= 0.100D-06
 Iteration Nr.   1
 **********************
 DD1Dir will call FoFMem   1 times, MxPair=       182
 NAB=    91 NAA=     0 NBB=     0.
 MP4(R+Q)=  0.12017972D-01
 Maximum subspace dimension=  5
 Norm of the A-vectors is  1.1315587D+00 conv= 1.00D-05.
 RLE energy=       -0.6892433576
 E3=       -0.30428975D-01        EUMP3=      -0.22955532484D+03
 E4(DQ)=   -0.48529568D-02        UMP4(DQ)=   -0.22956017780D+03
 E4(SDQ)=  -0.10215030D-01        UMP4(SDQ)=  -0.22956553987D+03
 VARIATIONAL ENERGIES WITH THE FIRST-ORDER WAVEFUNCTION:
 DE(Corr)= -0.68872622     E(Corr)=     -229.54325830    
 NORM(A)=   0.11043158D+01
 Iteration Nr.   2
 **********************
 DD1Dir will call FoFMem   1 times, MxPair=       182
 NAB=    91 NAA=     0 NBB=     0.
 Norm of the A-vectors is  3.7740887D-01 conv= 1.00D-05.
 RLE energy=       -0.7100866498
 DE(Corr)= -0.70706825     E(CORR)=     -229.56160033     Delta=-1.83D-02
 NORM(A)=   0.11130024D+01
 Iteration Nr.   3
 **********************
 DD1Dir will call FoFMem   1 times, MxPair=       182
 NAB=    91 NAA=     0 NBB=     0.
 Norm of the A-vectors is  1.1182715D-01 conv= 1.00D-05.
 RLE energy=       -0.7111396858
 DE(Corr)= -0.70972892     E(CORR)=     -229.56426100     Delta=-2.66D-03
 NORM(A)=   0.11146883D+01
 Iteration Nr.   4
 **********************
 DD1Dir will call FoFMem   1 times, MxPair=       182
 NAB=    91 NAA=     0 NBB=     0.
 Norm of the A-vectors is  3.9117754D-02 conv= 1.00D-05.
 RLE energy=       -0.7113687305
 DE(Corr)= -0.71124742     E(CORR)=     -229.56577949     Delta=-1.52D-03
 NORM(A)=   0.11150925D+01
 Iteration Nr.   5
 **********************
 DD1Dir will call FoFMem   1 times, MxPair=       182
 NAB=    91 NAA=     0 NBB=     0.
 Norm of the A-vectors is  1.0840054D-02 conv= 1.00D-05.
 RLE energy=       -0.7114264686
 DE(Corr)= -0.71139007     E(CORR)=     -229.56592215     Delta=-1.43D-04
 NORM(A)=   0.11152003D+01
 Iteration Nr.   6
 **********************
 DD1Dir will call FoFMem   1 times, MxPair=       182
 NAB=    91 NAA=     0 NBB=     0.
 Norm of the A-vectors is  4.3294796D-03 conv= 1.00D-05.
 RLE energy=       -0.7113929761
 DE(Corr)= -0.71140970     E(CORR)=     -229.56594178     Delta=-1.96D-05
 NORM(A)=   0.11152060D+01
 Iteration Nr.   7
 **********************
 DD1Dir will call FoFMem   1 times, MxPair=       182
 NAB=    91 NAA=     0 NBB=     0.
 Norm of the A-vectors is  1.8391944D-03 conv= 1.00D-05.
 RLE energy=       -0.7114043729
 DE(Corr)= -0.71140996     E(CORR)=     -229.56594204     Delta=-2.55D-07
 NORM(A)=   0.11152134D+01
 Iteration Nr.   8
 **********************
 DD1Dir will call FoFMem   1 times, MxPair=       182
 NAB=    91 NAA=     0 NBB=     0.
 Norm of the A-vectors is  7.5480353D-04 conv= 1.00D-05.
 RLE energy=       -0.7114054705
 DE(Corr)= -0.71140673     E(CORR)=     -229.56593881     Delta= 3.23D-06
 NORM(A)=   0.11152157D+01
 Iteration Nr.   9
 **********************
 DD1Dir will call FoFMem   1 times, MxPair=       182
 NAB=    91 NAA=     0 NBB=     0.
 Norm of the A-vectors is  3.5104909D-04 conv= 1.00D-05.
 RLE energy=       -0.7114080325
 DE(Corr)= -0.71140820     E(CORR)=     -229.56594027     Delta=-1.47D-06
 NORM(A)=   0.11152169D+01
 Iteration Nr.  10
 **********************
 DD1Dir will call FoFMem   1 times, MxPair=       182
 NAB=    91 NAA=     0 NBB=     0.
 Norm of the A-vectors is  1.8320529D-04 conv= 1.00D-05.
 RLE energy=       -0.7114091133
 DE(Corr)= -0.71140857     E(CORR)=     -229.56594065     Delta=-3.77D-07
 NORM(A)=   0.11152178D+01
 Iteration Nr.  11
 **********************
 DD1Dir will call FoFMem   1 times, MxPair=       182
 NAB=    91 NAA=     0 NBB=     0.
 Norm of the A-vectors is  1.0116391D-04 conv= 1.00D-05.
 RLE energy=       -0.7114093333
 DE(Corr)= -0.71140911     E(CORR)=     -229.56594119     Delta=-5.39D-07
 NORM(A)=   0.11152181D+01
 Iteration Nr.  12
 **********************
 DD1Dir will call FoFMem   1 times, MxPair=       182
 NAB=    91 NAA=     0 NBB=     0.
 Norm of the A-vectors is  5.4698474D-05 conv= 1.00D-05.
 RLE energy=       -0.7114094362
 DE(Corr)= -0.71140933     E(CORR)=     -229.56594141     Delta=-2.22D-07
 NORM(A)=   0.11152183D+01
 Iteration Nr.  13
 **********************
 DD1Dir will call FoFMem   1 times, MxPair=       182
 NAB=    91 NAA=     0 NBB=     0.
 Norm of the A-vectors is  2.6941102D-05 conv= 1.00D-05.
 RLE energy=       -0.7114094114
 DE(Corr)= -0.71140940     E(CORR)=     -229.56594147     Delta=-6.14D-08
 NORM(A)=   0.11152184D+01
 Iteration Nr.  14
 **********************
 DD1Dir will call FoFMem   1 times, MxPair=       182
 NAB=    91 NAA=     0 NBB=     0.
 Norm of the A-vectors is  1.1194010D-05 conv= 1.00D-05.
 RLE energy=       -0.7114093942
 DE(Corr)= -0.71140940     E(CORR)=     -229.56594148     Delta=-2.54D-09
 NORM(A)=   0.11152184D+01
 Iteration Nr.  15
 **********************
 DD1Dir will call FoFMem   1 times, MxPair=       182
 NAB=    91 NAA=     0 NBB=     0.
 Norm of the A-vectors is  5.4441666D-06 conv= 1.00D-05.
 RLE energy=       -0.7114093952
 DE(Corr)= -0.71140940     E(CORR)=     -229.56594148     Delta= 3.73D-10
 NORM(A)=   0.11152184D+01
 CI/CC converged in   15 iterations to DelEn= 3.73D-10 Conv= 1.00D-07 ErrA1= 5.44D-06 Conv= 1.00D-05
 Largest amplitude= 2.04D-02
 T4(AAA)= -0.44695135D-03
 T4(AAB)= -0.97205519D-02
 T5(AAA)=  0.24717142D-04
 T5(AAB)=  0.34650513D-03
 Time for triples=      120.38 seconds.
 T4(CCSD)= -0.20335006D-01
 T5(CCSD)=  0.74244455D-03
 CCSD(T)= -0.22958553404D+03
 Discarding MO integrals.
 Leave Link  913 at Thu Dec 21 20:07:59 2017, MaxMem=  3489660928 cpu:       692.8
 (Enter /home/michal/g09/l601.exe)
 Copying SCF densities to generalized density rwf, IOpCl= 0 IROHF=0.

 **********************************************************************

            Population analysis using the SCF density.

 **********************************************************************

 Alpha  occ. eigenvalues --  -20.61824 -20.61696 -11.28739 -11.23372  -1.46558
 Alpha  occ. eigenvalues --   -1.22515  -1.00355  -0.83903  -0.71024  -0.65852
 Alpha  occ. eigenvalues --   -0.64610  -0.59427  -0.53955  -0.52983  -0.49696
 Alpha  occ. eigenvalues --   -0.48451  -0.44180
 Alpha virt. eigenvalues --    0.18353   0.19134   0.23490   0.24278   0.25981
 Alpha virt. eigenvalues --    0.28088   0.28962   0.36418   0.39921   0.59326
 Alpha virt. eigenvalues --    0.61585   0.67711   0.74399   0.76484   0.82511
 Alpha virt. eigenvalues --    0.84288   0.85933   0.86853   0.88105   0.88407
 Alpha virt. eigenvalues --    0.92031   1.10173   1.11112   1.12971   1.18673
 Alpha virt. eigenvalues --    1.24024   1.28149   1.31716   1.35090   1.44517
 Alpha virt. eigenvalues --    1.44896   1.52187   1.58754   1.63497   1.67240
 Alpha virt. eigenvalues --    1.73439   1.83896   1.85523   1.87134   1.91021
 Alpha virt. eigenvalues --    1.91902   1.94895   1.95619   1.96954   2.04674
 Alpha virt. eigenvalues --    2.10696   2.18070   2.23417   2.29186   2.33963
 Alpha virt. eigenvalues --    2.42613   2.48669   2.50143   2.52178   2.69695
 Alpha virt. eigenvalues --    2.72962   2.73177   2.77683   2.84267   2.90488
 Alpha virt. eigenvalues --    2.93310   2.97188   3.26726   3.35471   3.45041
 Alpha virt. eigenvalues --    3.49842   3.57077   3.93888   4.23257
          Condensed to atoms (all electrons):
               1          2          3          4          5          6
     1  C    4.544959   0.425211  -0.037663   0.004497  -0.000695   0.403055
     2  C    0.425211   4.434186   0.258068  -0.053403   0.000628  -0.028706
     3  O   -0.037663   0.258068   8.059624   0.119016  -0.027823   0.003449
     4  O    0.004497  -0.053403   0.119016   7.773928   0.345661  -0.000179
     5  H   -0.000695   0.000628  -0.027823   0.345661   0.478400   0.000019
     6  H    0.403055  -0.028706   0.003449  -0.000179   0.000019   0.626545
     7  H   -0.028385   0.410864  -0.030399   0.001131  -0.000124   0.007508
     8  H   -0.027011   0.403296  -0.031342   0.003766   0.002421  -0.009124
     9  H    0.400404  -0.024984   0.002589  -0.000133   0.000022  -0.020801
    10  H    0.404014  -0.026740   0.001949  -0.000153   0.000033  -0.026912
               7          8          9         10
     1  C   -0.028385  -0.027011   0.400404   0.404014
     2  C    0.410864   0.403296  -0.024984  -0.026740
     3  O   -0.030399  -0.031342   0.002589   0.001949
     4  O    0.001131   0.003766  -0.000133  -0.000153
     5  H   -0.000124   0.002421   0.000022   0.000033
     6  H    0.007508  -0.009124  -0.020801  -0.026912
     7  H    0.654563  -0.043485  -0.001162  -0.007887
     8  H   -0.043485   0.672574  -0.002745   0.007651
     9  H   -0.001162  -0.002745   0.629493  -0.021098
    10  H   -0.007887   0.007651  -0.021098   0.617134
 Mulliken charges:
               1
     1  C   -0.088388
     2  C    0.201580
     3  O   -0.317467
     4  O   -0.194130
     5  H    0.201459
     6  H    0.045146
     7  H    0.037374
     8  H    0.023998
     9  H    0.038416
    10  H    0.052011
 Sum of Mulliken charges =   0.00000
 Mulliken charges with hydrogens summed into heavy atoms:
               1
     1  C    0.047185
     2  C    0.262953
     3  O   -0.317467
     4  O    0.007329
 Electronic spatial extent (au):  <R**2>=            971.3553
 Charge=              0.0000 electrons
 Dipole moment (field-independent basis, Debye):
    X=             -1.9462    Y=             -0.0176    Z=             -0.1059  Tot=              1.9491
 Quadrupole moment (field-independent basis, Debye-Ang):
   XX=            -27.2664   YY=            -24.1677   ZZ=            -21.4191
   XY=              2.0822   XZ=              2.3166   YZ=             -3.0026
 Traceless Quadrupole moment (field-independent basis, Debye-Ang):
   XX=             -2.9820   YY=              0.1167   ZZ=              2.8653
   XY=              2.0822   XZ=              2.3166   YZ=             -3.0026
 Octapole moment (field-independent basis, Debye-Ang**2):
  XXX=            -14.5785  YYY=             68.6902  ZZZ=            150.8346  XYY=             -6.2262
  XXY=             26.6033  XXZ=             55.8638  XZZ=             -6.4555  YZZ=             26.3945
  YYZ=             60.1929  XYZ=             -3.5181
 Hexadecapole moment (field-independent basis, Debye-Ang**3):
 XXXX=           -101.4708 YYYY=           -186.8614 ZZZZ=           -937.9429 XXXY=             21.0929
 XXXZ=            -27.1984 YYYX=             21.2573 YYYZ=           -160.2880 ZZZX=            -27.6535
 ZZZY=           -151.2928 XXYY=            -50.6952 XXZZ=           -179.0177 YYZZ=           -201.0638
 XXYZ=            -53.1913 YYXZ=             -3.0743 ZZXY=              8.5128
 N-N= 1.308102195016D+02 E-N=-8.010875542224D+02  KE= 2.285408533101D+02
 Leave Link  601 at Thu Dec 21 20:07:59 2017, MaxMem=  3489660928 cpu:         0.2
 (Enter /home/michal/g09/l9999.exe)
 1\1\GINC-LINUX\SP\RCCSD(T)-FC\CC-pVDZ\C2H6O2\MICHAL\21-Dec-2017\0\\#P 
 CCSD(T)/cc-pVDZ SP Nosymm\\PEscan\\0,1\C,0,-0.56605,-1.01658,-3.68326\
 C,0,-0.09947,-0.44049,-2.35571\O,0,0.70757,-1.44693,-1.75601\O,0,0.956
 89,-1.00265,-0.38916\H,0,0.48506,-1.71263,0.0777\H,0,-1.1654,-1.92553,
 -3.51913\H,0,0.48327,0.48934,-2.49314\H,0,-0.96036,-0.21453,-1.69988\H
 ,0,-1.18246,-0.2763,-4.21797\H,0,0.29611,-1.27582,-4.31788\\Version=EM
 64L-G09RevD.01\HF=-228.8545321\MP2=-229.5248959\MP3=-229.5553248\MP4D=
 -229.5721958\MP4DQ=-229.5601778\MP4SDQ=-229.5655399\CCSD=-229.5659415\
 CCSD(T)=-229.585534\RMSD=5.703e-09\PG=C01 [X(C2H6O2)]\\@


 AN AIRPLANE IS A COLLECTION OF SPARE PARTS
 FLYING IN CLOSE FORMATION.
 Job cpu time:       0 days  0 hours 11 minutes 54.8 seconds.
 File lengths (MBytes):  RWF=    699 Int=      0 D2E=      0 Chk=      1 Scr=      1
 Normal termination of Gaussian 09 at Thu Dec 21 20:07:59 2017.
