 Entering Gaussian System, Link 0=g09
 Input=1HPP_ccsdtdz_003.com
 Output=1HPP_ccsdtdz_003.log
 Initial command:
 /home/michal/g09/l1.exe "/home/michal/gauss_scratch/Gau-15070.inp" -scrdir="/home/michal/gauss_scratch/"
 Entering Link 1 = /home/michal/g09/l1.exe PID=     15071.
  
 Copyright (c) 1988,1990,1992,1993,1995,1998,2003,2009,2013,
            Gaussian, Inc.  All Rights Reserved.
  
 This is part of the Gaussian(R) 09 program.  It is based on
 the Gaussian(R) 03 system (copyright 2003, Gaussian, Inc.),
 the Gaussian(R) 98 system (copyright 1998, Gaussian, Inc.),
 the Gaussian(R) 94 system (copyright 1995, Gaussian, Inc.),
 the Gaussian 92(TM) system (copyright 1992, Gaussian, Inc.),
 the Gaussian 90(TM) system (copyright 1990, Gaussian, Inc.),
 the Gaussian 88(TM) system (copyright 1988, Gaussian, Inc.),
 the Gaussian 86(TM) system (copyright 1986, Carnegie Mellon
 University), and the Gaussian 82(TM) system (copyright 1983,
 Carnegie Mellon University). Gaussian is a federally registered
 trademark of Gaussian, Inc.
  
 This software contains proprietary and confidential information,
 including trade secrets, belonging to Gaussian, Inc.
  
 This software is provided under written license and may be
 used, copied, transmitted, or stored only in accord with that
 written license.
  
 The following legend is applicable only to US Government
 contracts under FAR:
  
                    RESTRICTED RIGHTS LEGEND
  
 Use, reproduction and disclosure by the US Government is
 subject to restrictions as set forth in subparagraphs (a)
 and (c) of the Commercial Computer Software - Restricted
 Rights clause in FAR 52.227-19.
  
 Gaussian, Inc.
 340 Quinnipiac St., Bldg. 40, Wallingford CT 06492
  
  
 ---------------------------------------------------------------
 Warning -- This program may not be used in any manner that
 competes with the business of Gaussian, Inc. or will provide
 assistance to any competitor of Gaussian, Inc.  The licensee
 of this program is prohibited from giving any competitor of
 Gaussian, Inc. access to this program.  By using this program,
 the user acknowledges that Gaussian, Inc. is engaged in the
 business of creating and licensing software in the field of
 computational chemistry and represents and warrants to the
 licensee that it is not a competitor of Gaussian, Inc. and that
 it will not use this program in any manner prohibited above.
 ---------------------------------------------------------------
  

 Cite this work as:
 Gaussian 09, Revision D.01,
 M. J. Frisch, G. W. Trucks, H. B. Schlegel, G. E. Scuseria, 
 M. A. Robb, J. R. Cheeseman, G. Scalmani, V. Barone, B. Mennucci, 
 G. A. Petersson, H. Nakatsuji, M. Caricato, X. Li, H. P. Hratchian, 
 A. F. Izmaylov, J. Bloino, G. Zheng, J. L. Sonnenberg, M. Hada, 
 M. Ehara, K. Toyota, R. Fukuda, J. Hasegawa, M. Ishida, T. Nakajima, 
 Y. Honda, O. Kitao, H. Nakai, T. Vreven, J. A. Montgomery, Jr., 
 J. E. Peralta, F. Ogliaro, M. Bearpark, J. J. Heyd, E. Brothers, 
 K. N. Kudin, V. N. Staroverov, T. Keith, R. Kobayashi, J. Normand, 
 K. Raghavachari, A. Rendell, J. C. Burant, S. S. Iyengar, J. Tomasi, 
 M. Cossi, N. Rega, J. M. Millam, M. Klene, J. E. Knox, J. B. Cross, 
 V. Bakken, C. Adamo, J. Jaramillo, R. Gomperts, R. E. Stratmann, 
 O. Yazyev, A. J. Austin, R. Cammi, C. Pomelli, J. W. Ochterski, 
 R. L. Martin, K. Morokuma, V. G. Zakrzewski, G. A. Voth, 
 P. Salvador, J. J. Dannenberg, S. Dapprich, A. D. Daniels, 
 O. Farkas, J. B. Foresman, J. V. Ortiz, J. Cioslowski, 
 and D. J. Fox, Gaussian, Inc., Wallingford CT, 2013.
 
 ******************************************
 Gaussian 09:  EM64L-G09RevD.01 24-Apr-2013
                21-Dec-2017 
 ******************************************
 %Mem=26GB
 %NProc=12
 Will use up to   12 processors via shared memory.
 %RWF=/home/michal/Cholesterol_grant/peroxy_params,20GB
 ----------------------------
 #P CCSD(T)/cc-pVDZ SP Nosymm
 ----------------------------
 1/38=1/1;
 2/12=2,15=1,17=6,18=5,40=1/2;
 3/5=16,11=9,16=1,25=1,30=1/1,2,3;
 4//1;
 5/5=2,38=5/2;
 8/6=4,9=120000,10=1/1,4;
 9/5=7,14=2/13;
 6/7=2,8=2,9=2,10=2/1;
 99/5=1,9=1/99;
 Leave Link    1 at Thu Dec 21 20:07:59 2017, MaxMem=  3489660928 cpu:         0.3
 (Enter /home/michal/g09/l101.exe)
 ------
 PEscan
 ------
 Symbolic Z-matrix:
 Charge =  0 Multiplicity = 1
 C                    -0.56725  -1.02525  -3.66579 
 C                    -0.06938  -0.40311  -2.37047 
 O                     0.77826  -1.37418  -1.76289 
 O                     0.86946  -1.0189   -0.35059 
 H                     0.45206  -1.8151    0.01836 
 H                    -1.15459  -1.93215  -3.45445 
 H                     0.48418   0.53794  -2.54897 
 H                    -0.91414  -0.18385  -1.6941 
 H                    -1.20192  -0.30694  -4.20948 
 H                     0.27846  -1.30059  -4.31604 
 
 NAtoms=     10 NQM=       10 NQMF=       0 NMMI=      0 NMMIF=      0
                NMic=       0 NMicF=      0.
                    Isotopes and Nuclear Properties:
 (Nuclear quadrupole moments (NQMom) in fm**2, nuclear magnetic moments (NMagM)
  in nuclear magnetons)

  Atom         1           2           3           4           5           6           7           8           9          10
 IAtWgt=          12          12          16          16           1           1           1           1           1           1
 AtmWgt=  12.0000000  12.0000000  15.9949146  15.9949146   1.0078250   1.0078250   1.0078250   1.0078250   1.0078250   1.0078250
 NucSpn=           0           0           0           0           1           1           1           1           1           1
 AtZEff=   0.0000000   0.0000000   0.0000000   0.0000000   0.0000000   0.0000000   0.0000000   0.0000000   0.0000000   0.0000000
 NQMom=    0.0000000   0.0000000   0.0000000   0.0000000   0.0000000   0.0000000   0.0000000   0.0000000   0.0000000   0.0000000
 NMagM=    0.0000000   0.0000000   0.0000000   0.0000000   2.7928460   2.7928460   2.7928460   2.7928460   2.7928460   2.7928460
 AtZNuc=   6.0000000   6.0000000   8.0000000   8.0000000   1.0000000   1.0000000   1.0000000   1.0000000   1.0000000   1.0000000
 Leave Link  101 at Thu Dec 21 20:07:59 2017, MaxMem=  3489660928 cpu:         0.5
 (Enter /home/michal/g09/l202.exe)
                          Input orientation:                          
 ---------------------------------------------------------------------
 Center     Atomic      Atomic             Coordinates (Angstroms)
 Number     Number       Type             X           Y           Z
 ---------------------------------------------------------------------
      1          6           0       -0.567250   -1.025250   -3.665790
      2          6           0       -0.069380   -0.403110   -2.370470
      3          8           0        0.778260   -1.374180   -1.762890
      4          8           0        0.869460   -1.018900   -0.350590
      5          1           0        0.452060   -1.815100    0.018360
      6          1           0       -1.154590   -1.932150   -3.454450
      7          1           0        0.484180    0.537940   -2.548970
      8          1           0       -0.914140   -0.183850   -1.694100
      9          1           0       -1.201920   -0.306940   -4.209480
     10          1           0        0.278460   -1.300590   -4.316040
 ---------------------------------------------------------------------
                    Distance matrix (angstroms):
                    1          2          3          4          5
     1  C    0.000000
     2  C    1.520785   0.000000
     3  O    2.356518   1.425000   0.000000
     4  O    3.613133   2.310959   1.459155   0.000000
     5  H    3.903308   2.823495   1.863778   0.971741   0.000000
     6  H    1.100954   2.165792   2.628424   3.816379   3.828242
     7  H    2.190058   1.106285   2.088207   2.721225   3.482673
     8  H    2.171600   1.104161   2.070226   2.384021   2.731300
     9  H    1.101986   2.161910   3.323540   4.437176   4.783809
    10  H    1.101754   2.170646   2.602651   4.019132   4.368281
                    6          7          8          9         10
     6  H    0.000000
     7  H    3.099485   0.000000
     8  H    2.492629   1.790833   0.000000
     9  H    1.792657   2.512777   2.534779   0.000000
    10  H    1.787411   2.558329   3.089332   1.786119   0.000000
 Symmetry turned off by external request.
 Stoichiometry    C2H6O2
 Framework group  C1[X(C2H6O2)]
 Deg. of freedom    24
 Full point group                 C1      NOp   1
 Rotational constants (GHZ):     28.7820428      4.1816141      3.9399347
 Leave Link  202 at Thu Dec 21 20:07:59 2017, MaxMem=  3489660928 cpu:         0.0
 (Enter /home/michal/g09/l301.exe)
 Standard basis: CC-pVDZ (5D, 7F)
 Ernie: Thresh=  0.10000D-02 Tol=  0.10000D-05 Strict=F.
 Ernie:  8 primitive shells out of 118 were deleted.
    86 basis functions,   174 primitive gaussians,    90 cartesian basis functions
    17 alpha electrons       17 beta electrons
       nuclear repulsion energy       130.7402059900 Hartrees.
 IExCor=    0 DFT=F Ex=HF Corr=None ExCW=0 ScaHFX=  1.000000
 ScaDFX=  1.000000  1.000000  1.000000  1.000000 ScalE2=  1.000000  1.000000
 IRadAn=      0 IRanWt=     -1 IRanGd=            0 ICorTp=0 IEmpDi=  4
 NAtoms=   10 NActive=   10 NUniq=   10 SFac= 1.00D+00 NAtFMM=   60 NAOKFM=F Big=F
 Integral buffers will be    131072 words long.
 Raffenetti 1 integral format.
 Two-electron integral symmetry is turned off.
 Leave Link  301 at Thu Dec 21 20:07:59 2017, MaxMem=  3489660928 cpu:         0.3
 (Enter /home/michal/g09/l302.exe)
 NPDir=0 NMtPBC=     1 NCelOv=     1 NCel=       1 NClECP=     1 NCelD=      1
         NCelK=      1 NCelE2=     1 NClLst=     1 CellRange=     0.0.
 One-electron integrals computed using PRISM.
 NBasis=    86 RedAO= T EigKep=  6.20D-03  NBF=    86
 NBsUse=    86 1.00D-06 EigRej= -1.00D+00 NBFU=    86
 Leave Link  302 at Thu Dec 21 20:07:59 2017, MaxMem=  3489660928 cpu:         1.6
 (Enter /home/michal/g09/l303.exe)
 DipDrv:  MaxL=1.
 Leave Link  303 at Thu Dec 21 20:07:59 2017, MaxMem=  3489660928 cpu:         0.2
 (Enter /home/michal/g09/l401.exe)
 ExpMin= 1.22D-01 ExpMax= 1.17D+04 ExpMxC= 4.01D+02 IAcc=1 IRadAn=         1 AccDes= 0.00D+00
 Harris functional with IExCor=  205 and IRadAn=       1 diagonalized for initial guess.
 HarFok:  IExCor=  205 AccDes= 0.00D+00 IRadAn=         1 IDoV= 1 UseB2=F ITyADJ=14
 ICtDFT=  3500011 ScaDFX=  1.000000  1.000000  1.000000  1.000000
 FoFCou: FMM=F IPFlag=           0 FMFlag=      100000 FMFlg1=           0
         NFxFlg=           0 DoJE=T BraDBF=F KetDBF=T FulRan=T
         wScrn=  0.000000 ICntrl=     500 IOpCl=  0 I1Cent=   200000004 NGrid=           0
         NMat0=    1 NMatS0=      1 NMatT0=    0 NMatD0=    1 NMtDS0=    0 NMtDT0=    0
 Symmetry not used in FoFCou.
 Harris En= -229.127596604616    
 JPrj=0 DoOrth=F DoCkMO=F.
 Leave Link  401 at Thu Dec 21 20:07:59 2017, MaxMem=  3489660928 cpu:         1.9
 (Enter /home/michal/g09/l502.exe)
 Closed shell SCF:
 Using DIIS extrapolation, IDIIS=  1040.
 Two-electron integral symmetry not used.
 Keep R1 ints in memory in canonical form, NReq=7943197.
 IVT=       44490 IEndB=       44490 NGot=  3489660928 MDV=  3482617028
 LenX=  3482617028 LenY=  3482608487
 Requested convergence on RMS density matrix=1.00D-08 within 128 cycles.
 Requested convergence on MAX density matrix=1.00D-06.
 Requested convergence on             energy=1.00D-06.
 No special actions if energy rises.
 FoFCou: FMM=F IPFlag=           0 FMFlag=           0 FMFlg1=           0
         NFxFlg=           0 DoJE=F BraDBF=F KetDBF=F FulRan=T
         wScrn=  0.000000 ICntrl=     600 IOpCl=  0 I1Cent=           0 NGrid=           0
         NMat0=    1 NMatS0=   3741 NMatT0=    0 NMatD0=    1 NMtDS0=    0 NMtDT0=    0
 Symmetry not used in FoFCou.

 Cycle   1  Pass 1  IDiag  1:
 E= -228.694197678130    
 DIIS: error= 3.48D-02 at cycle   1 NSaved=   1.
 NSaved= 1 IEnMin= 1 EnMin= -228.694197678130     IErMin= 1 ErrMin= 3.48D-02
 ErrMax= 3.48D-02  0.00D+00 EMaxC= 1.00D-01 BMatC= 2.03D-01 BMatP= 2.03D-01
 IDIUse=3 WtCom= 6.52D-01 WtEn= 3.48D-01
 Coeff-Com:  0.100D+01
 Coeff-En:   0.100D+01
 Coeff:      0.100D+01
 Gap=     0.714 Goal=   None    Shift=    0.000
 GapD=    0.714 DampG=2.000 DampE=0.500 DampFc=1.0000 IDamp=-1.
 RMSDP=4.86D-03 MaxDP=1.10D-01              OVMax= 1.19D-01

 Cycle   2  Pass 1  IDiag  1:
 E= -228.829700206949     Delta-E=       -0.135502528818 Rises=F Damp=F
 DIIS: error= 1.61D-02 at cycle   2 NSaved=   2.
 NSaved= 2 IEnMin= 2 EnMin= -228.829700206949     IErMin= 2 ErrMin= 1.61D-02
 ErrMax= 1.61D-02  0.00D+00 EMaxC= 1.00D-01 BMatC= 2.59D-02 BMatP= 2.03D-01
 IDIUse=3 WtCom= 8.39D-01 WtEn= 1.61D-01
 Coeff-Com:  0.211D+00 0.789D+00
 Coeff-En:   0.000D+00 0.100D+01
 Coeff:      0.177D+00 0.823D+00
 Gap=     0.680 Goal=   None    Shift=    0.000
 RMSDP=1.55D-03 MaxDP=3.01D-02 DE=-1.36D-01 OVMax= 3.63D-02

 Cycle   3  Pass 1  IDiag  1:
 E= -228.852130840488     Delta-E=       -0.022430633540 Rises=F Damp=F
 DIIS: error= 3.03D-03 at cycle   3 NSaved=   3.
 NSaved= 3 IEnMin= 3 EnMin= -228.852130840488     IErMin= 3 ErrMin= 3.03D-03
 ErrMax= 3.03D-03  0.00D+00 EMaxC= 1.00D-01 BMatC= 1.27D-03 BMatP= 2.59D-02
 IDIUse=3 WtCom= 9.70D-01 WtEn= 3.03D-02
 Coeff-Com: -0.216D-01 0.128D+00 0.894D+00
 Coeff-En:   0.000D+00 0.000D+00 0.100D+01
 Coeff:     -0.210D-01 0.124D+00 0.897D+00
 Gap=     0.627 Goal=   None    Shift=    0.000
 RMSDP=3.47D-04 MaxDP=5.88D-03 DE=-2.24D-02 OVMax= 7.80D-03

 Cycle   4  Pass 1  IDiag  1:
 E= -228.853338749492     Delta-E=       -0.001207909003 Rises=F Damp=F
 DIIS: error= 7.43D-04 at cycle   4 NSaved=   4.
 NSaved= 4 IEnMin= 4 EnMin= -228.853338749492     IErMin= 4 ErrMin= 7.43D-04
 ErrMax= 7.43D-04  0.00D+00 EMaxC= 1.00D-01 BMatC= 1.24D-04 BMatP= 1.27D-03
 IDIUse=3 WtCom= 9.93D-01 WtEn= 7.43D-03
 Coeff-Com: -0.120D-01 0.158D-01 0.285D+00 0.711D+00
 Coeff-En:   0.000D+00 0.000D+00 0.000D+00 0.100D+01
 Coeff:     -0.119D-01 0.156D-01 0.283D+00 0.713D+00
 Gap=     0.624 Goal=   None    Shift=    0.000
 RMSDP=9.38D-05 MaxDP=2.31D-03 DE=-1.21D-03 OVMax= 2.04D-03

 Cycle   5  Pass 1  IDiag  1:
 E= -228.853437313115     Delta-E=       -0.000098563624 Rises=F Damp=F
 DIIS: error= 2.38D-04 at cycle   5 NSaved=   5.
 NSaved= 5 IEnMin= 5 EnMin= -228.853437313115     IErMin= 5 ErrMin= 2.38D-04
 ErrMax= 2.38D-04  0.00D+00 EMaxC= 1.00D-01 BMatC= 7.74D-06 BMatP= 1.24D-04
 IDIUse=3 WtCom= 9.98D-01 WtEn= 2.38D-03
 Coeff-Com:  0.177D-02-0.176D-01-0.967D-01 0.561D-01 0.106D+01
 Coeff-En:   0.000D+00 0.000D+00 0.000D+00 0.000D+00 0.100D+01
 Coeff:      0.177D-02-0.175D-01-0.965D-01 0.560D-01 0.106D+01
 Gap=     0.624 Goal=   None    Shift=    0.000
 RMSDP=4.71D-05 MaxDP=5.38D-04 DE=-9.86D-05 OVMax= 1.26D-03

 Cycle   6  Pass 1  IDiag  1:
 E= -228.853450484187     Delta-E=       -0.000013171072 Rises=F Damp=F
 DIIS: error= 5.03D-05 at cycle   6 NSaved=   6.
 NSaved= 6 IEnMin= 6 EnMin= -228.853450484187     IErMin= 6 ErrMin= 5.03D-05
 ErrMax= 5.03D-05  0.00D+00 EMaxC= 1.00D-01 BMatC= 4.99D-07 BMatP= 7.74D-06
 IDIUse=1 WtCom= 1.00D+00 WtEn= 0.00D+00
 Coeff-Com:  0.796D-03-0.330D-02-0.248D-01-0.333D-01 0.137D+00 0.924D+00
 Coeff:      0.796D-03-0.330D-02-0.248D-01-0.333D-01 0.137D+00 0.924D+00
 Gap=     0.624 Goal=   None    Shift=    0.000
 RMSDP=1.17D-05 MaxDP=1.83D-04 DE=-1.32D-05 OVMax= 3.31D-04

 Cycle   7  Pass 1  IDiag  1:
 E= -228.853451353711     Delta-E=       -0.000000869524 Rises=F Damp=F
 DIIS: error= 1.87D-05 at cycle   7 NSaved=   7.
 NSaved= 7 IEnMin= 7 EnMin= -228.853451353711     IErMin= 7 ErrMin= 1.87D-05
 ErrMax= 1.87D-05  0.00D+00 EMaxC= 1.00D-01 BMatC= 7.05D-08 BMatP= 4.99D-07
 IDIUse=1 WtCom= 1.00D+00 WtEn= 0.00D+00
 Coeff-Com: -0.746D-04 0.156D-02 0.789D-02-0.123D-01-0.101D+00 0.719D-01
 Coeff-Com:  0.103D+01
 Coeff:     -0.746D-04 0.156D-02 0.789D-02-0.123D-01-0.101D+00 0.719D-01
 Coeff:      0.103D+01
 Gap=     0.624 Goal=   None    Shift=    0.000
 RMSDP=5.76D-06 MaxDP=8.10D-05 DE=-8.70D-07 OVMax= 2.03D-04

 Cycle   8  Pass 1  IDiag  1:
 E= -228.853451544372     Delta-E=       -0.000000190660 Rises=F Damp=F
 DIIS: error= 9.90D-06 at cycle   8 NSaved=   8.
 NSaved= 8 IEnMin= 8 EnMin= -228.853451544372     IErMin= 8 ErrMin= 9.90D-06
 ErrMax= 9.90D-06  0.00D+00 EMaxC= 1.00D-01 BMatC= 1.19D-08 BMatP= 7.05D-08
 IDIUse=1 WtCom= 1.00D+00 WtEn= 0.00D+00
 Coeff-Com: -0.862D-04 0.709D-04 0.148D-02 0.790D-02 0.101D-01-0.168D+00
 Coeff-Com: -0.238D+00 0.139D+01
 Coeff:     -0.862D-04 0.709D-04 0.148D-02 0.790D-02 0.101D-01-0.168D+00
 Coeff:     -0.238D+00 0.139D+01
 Gap=     0.624 Goal=   None    Shift=    0.000
 RMSDP=3.48D-06 MaxDP=6.21D-05 DE=-1.91D-07 OVMax= 1.49D-04

 Cycle   9  Pass 1  IDiag  1:
 E= -228.853451596029     Delta-E=       -0.000000051657 Rises=F Damp=F
 DIIS: error= 3.59D-06 at cycle   9 NSaved=   9.
 NSaved= 9 IEnMin= 9 EnMin= -228.853451596029     IErMin= 9 ErrMin= 3.59D-06
 ErrMax= 3.59D-06  0.00D+00 EMaxC= 1.00D-01 BMatC= 1.57D-09 BMatP= 1.19D-08
 IDIUse=1 WtCom= 1.00D+00 WtEn= 0.00D+00
 Coeff-Com:  0.461D-04-0.219D-03-0.172D-02-0.191D-02 0.997D-02 0.625D-01
 Coeff-Com: -0.359D-01-0.611D+00 0.158D+01
 Coeff:      0.461D-04-0.219D-03-0.172D-02-0.191D-02 0.997D-02 0.625D-01
 Coeff:     -0.359D-01-0.611D+00 0.158D+01
 Gap=     0.624 Goal=   None    Shift=    0.000
 RMSDP=1.65D-06 MaxDP=3.17D-05 DE=-5.17D-08 OVMax= 6.85D-05

 Cycle  10  Pass 1  IDiag  1:
 E= -228.853451604345     Delta-E=       -0.000000008316 Rises=F Damp=F
 DIIS: error= 1.02D-06 at cycle  10 NSaved=  10.
 NSaved=10 IEnMin=10 EnMin= -228.853451604345     IErMin=10 ErrMin= 1.02D-06
 ErrMax= 1.02D-06  0.00D+00 EMaxC= 1.00D-01 BMatC= 1.42D-10 BMatP= 1.57D-09
 IDIUse=1 WtCom= 1.00D+00 WtEn= 0.00D+00
 Coeff-Com: -0.101D-05 0.300D-04 0.175D-03-0.276D-03-0.291D-02 0.258D-02
 Coeff-Com:  0.289D-01-0.175D-03-0.330D+00 0.130D+01
 Coeff:     -0.101D-05 0.300D-04 0.175D-03-0.276D-03-0.291D-02 0.258D-02
 Coeff:      0.289D-01-0.175D-03-0.330D+00 0.130D+01
 Gap=     0.624 Goal=   None    Shift=    0.000
 RMSDP=4.15D-07 MaxDP=7.93D-06 DE=-8.32D-09 OVMax= 1.67D-05

 Cycle  11  Pass 1  IDiag  1:
 E= -228.853451604987     Delta-E=       -0.000000000642 Rises=F Damp=F
 DIIS: error= 3.93D-07 at cycle  11 NSaved=  11.
 NSaved=11 IEnMin=11 EnMin= -228.853451604987     IErMin=11 ErrMin= 3.93D-07
 ErrMax= 3.93D-07  0.00D+00 EMaxC= 1.00D-01 BMatC= 2.07D-11 BMatP= 1.42D-10
 IDIUse=1 WtCom= 1.00D+00 WtEn= 0.00D+00
 Coeff-Com: -0.612D-05 0.299D-04 0.246D-03 0.362D-03-0.134D-02-0.107D-01
 Coeff-Com:  0.363D-02 0.103D+00-0.253D+00-0.139D-01 0.117D+01
 Coeff:     -0.612D-05 0.299D-04 0.246D-03 0.362D-03-0.134D-02-0.107D-01
 Coeff:      0.363D-02 0.103D+00-0.253D+00-0.139D-01 0.117D+01
 Gap=     0.624 Goal=   None    Shift=    0.000
 RMSDP=1.48D-07 MaxDP=2.62D-06 DE=-6.42D-10 OVMax= 6.15D-06

 Cycle  12  Pass 1  IDiag  1:
 E= -228.853451605068     Delta-E=       -0.000000000081 Rises=F Damp=F
 DIIS: error= 9.96D-08 at cycle  12 NSaved=  12.
 NSaved=12 IEnMin=12 EnMin= -228.853451605068     IErMin=12 ErrMin= 9.96D-08
 ErrMax= 9.96D-08  0.00D+00 EMaxC= 1.00D-01 BMatC= 1.71D-12 BMatP= 2.07D-11
 IDIUse=1 WtCom= 1.00D+00 WtEn= 0.00D+00
 Coeff-Com: -0.105D-06-0.303D-05-0.117D-04 0.471D-04 0.270D-03-0.608D-03
 Coeff-Com: -0.279D-02 0.341D-02 0.238D-01-0.122D+00 0.426D-02 0.109D+01
 Coeff:     -0.105D-06-0.303D-05-0.117D-04 0.471D-04 0.270D-03-0.608D-03
 Coeff:     -0.279D-02 0.341D-02 0.238D-01-0.122D+00 0.426D-02 0.109D+01
 Gap=     0.624 Goal=   None    Shift=    0.000
 RMSDP=3.63D-08 MaxDP=5.82D-07 DE=-8.13D-11 OVMax= 1.58D-06

 Cycle  13  Pass 1  IDiag  1:
 E= -228.853451605072     Delta-E=       -0.000000000004 Rises=F Damp=F
 DIIS: error= 3.94D-08 at cycle  13 NSaved=  13.
 NSaved=13 IEnMin=13 EnMin= -228.853451605072     IErMin=13 ErrMin= 3.94D-08
 ErrMax= 3.94D-08  0.00D+00 EMaxC= 1.00D-01 BMatC= 2.35D-13 BMatP= 1.71D-12
 IDIUse=1 WtCom= 1.00D+00 WtEn= 0.00D+00
 Coeff-Com:  0.573D-06-0.173D-05-0.181D-04-0.507D-04 0.159D-04 0.127D-02
 Coeff-Com:  0.769D-03-0.115D-01 0.160D-01 0.507D-01-0.123D+00-0.434D+00
 Coeff-Com:  0.150D+01
 Coeff:      0.573D-06-0.173D-05-0.181D-04-0.507D-04 0.159D-04 0.127D-02
 Coeff:      0.769D-03-0.115D-01 0.160D-01 0.507D-01-0.123D+00-0.434D+00
 Coeff:      0.150D+01
 Gap=     0.624 Goal=   None    Shift=    0.000
 RMSDP=1.60D-08 MaxDP=3.09D-07 DE=-3.98D-12 OVMax= 6.41D-07

 Cycle  14  Pass 1  IDiag  1:
 E= -228.853451605075     Delta-E=       -0.000000000002 Rises=F Damp=F
 DIIS: error= 1.37D-08 at cycle  14 NSaved=  14.
 NSaved=14 IEnMin=14 EnMin= -228.853451605075     IErMin=14 ErrMin= 1.37D-08
 ErrMax= 1.37D-08  0.00D+00 EMaxC= 1.00D-01 BMatC= 2.47D-14 BMatP= 2.35D-13
 IDIUse=1 WtCom= 1.00D+00 WtEn= 0.00D+00
 Coeff-Com: -0.256D-06 0.129D-05 0.998D-05 0.155D-04-0.542D-04-0.447D-03
 Coeff-Com:  0.924D-04 0.428D-02-0.102D-01-0.232D-02 0.487D-01 0.451D-02
 Coeff-Com: -0.488D+00 0.144D+01
 Coeff:     -0.256D-06 0.129D-05 0.998D-05 0.155D-04-0.542D-04-0.447D-03
 Coeff:      0.924D-04 0.428D-02-0.102D-01-0.232D-02 0.487D-01 0.451D-02
 Coeff:     -0.488D+00 0.144D+01
 Gap=     0.624 Goal=   None    Shift=    0.000
 RMSDP=5.72D-09 MaxDP=9.13D-08 DE=-2.39D-12 OVMax= 2.21D-07

 SCF Done:  E(RHF) =  -228.853451605     A.U. after   14 cycles
            NFock= 14  Conv=0.57D-08     -V/T= 2.0014
 KE= 2.285392687473D+02 PE=-8.009531721449D+02 EE= 2.128202458025D+02
 Leave Link  502 at Thu Dec 21 20:08:00 2017, MaxMem=  3489660928 cpu:         9.6
 (Enter /home/michal/g09/l801.exe)
 Windowed orbitals will be sorted by symmetry type.
 ExpMin= 1.22D-01 ExpMax= 1.17D+04 ExpMxC= 4.01D+02 IAcc=3 IRadAn=         5 AccDes= 0.00D+00
 HarFok:  IExCor=  205 AccDes= 0.00D+00 IRadAn=         5 IDoV=-2 UseB2=F ITyADJ=14
 ICtDFT= 12500011 ScaDFX=  1.000000  1.000000  1.000000  1.000000
 Largest valence mixing into a core orbital is  1.06D-04
 Largest core mixing into a valence orbital is  4.40D-05
 Range of M.O.s used for correlation:     5    86
 NBasis=    86 NAE=    17 NBE=    17 NFC=     4 NFV=     0
 NROrb=     82 NOA=    13 NOB=    13 NVA=    69 NVB=    69
 Leave Link  801 at Thu Dec 21 20:08:00 2017, MaxMem=  3489660928 cpu:         0.7
 (Enter /home/michal/g09/l804.exe)
 Closed-shell transformation, MDV=  3489660928 ITran=4 ISComp=1.
 Semi-Direct transformation.
 ModeAB=           2 MOrb=            13 LenV=    3489332003
 LASXX=      3165006 LTotXX=     3165006 LenRXX=     3165006
 LTotAB=     3280537 MaxLAS=     4365270 LenRXY=     4365270
 NonZer=     6330012 LenScr=    10221568 LnRSAI=           0
 LnScr1=           0 LExtra=      494080 Total=     18245924
 MaxDsk=  2684354560 SrtSym=           F ITran=            4
 DoSDTr:  NPSUse= 12
 JobTyp=0 Pass  1:  I=   1 to  13.
 (rs|ai) integrals will be sorted in core.
 Complete sort for first half transformation.
 First half transformation complete.
 Begin second half transformation for I=  10.
 Begin second half transformation for I=  10.
 Complete sort for second half transformation.
 Second half transformation complete.
 Spin components of T(2) and E(2):
     alpha-alpha T2 =       0.2433692691D-01 E2=     -0.8151007573D-01
     alpha-beta  T2 =       0.1528458097D+00 E2=     -0.5073113231D+00
     beta-beta   T2 =       0.2433692691D-01 E2=     -0.8151007573D-01
 ANorm=    0.1096138524D+01
 E2 =    -0.6703314746D+00 EUMP2 =    -0.22952378307966D+03
 Leave Link  804 at Thu Dec 21 20:08:01 2017, MaxMem=  3489660928 cpu:        12.2
 (Enter /home/michal/g09/l913.exe)
 CIDS:  MDV=  3489660928.
 Frozen-core window:  NFC=   4 NFV=   0.
 IFCWin=0 IBDFC=1 NFBD=     0     0 NFCmp=     0     0 NFFFC=     0     0
 Using DD3R+UMP44R for 1st iteration, S=T.
 Using DD4RQ for 2nd and later iterations.
 Keep R2 and R3 ints in memory in canonical form, NReq=14820214.
 FoFCou: FMM=F IPFlag=           0 FMFlag=           0 FMFlg1=           0
         NFxFlg=           0 DoJE=F BraDBF=F KetDBF=F FulRan=T
         wScrn=  0.000000 ICntrl=     600 IOpCl=  0 I1Cent=           0 NGrid=           0
         NMat0=    1 NMatS0=   3741 NMatT0=    0 NMatD0=    1 NMtDS0=    0 NMtDT0=    0
 Symmetry not used in FoFCou.
 CCSD(T)
 =======
 Iterations=  50 Convergence= 0.100D-06
 Iteration Nr.   1
 **********************
 DD1Dir will call FoFMem   1 times, MxPair=       182
 NAB=    91 NAA=     0 NBB=     0.
 MP4(R+Q)=  0.12026817D-01
 Maximum subspace dimension=  5
 Norm of the A-vectors is  1.1327378D+00 conv= 1.00D-05.
 RLE energy=       -0.6892485023
 E3=       -0.30473644D-01        EUMP3=      -0.22955425672D+03
 E4(DQ)=   -0.48493864D-02        UMP4(DQ)=   -0.22955910611D+03
 E4(SDQ)=  -0.10212370D-01        UMP4(SDQ)=  -0.22956446909D+03
 VARIATIONAL ENERGIES WITH THE FIRST-ORDER WAVEFUNCTION:
 DE(Corr)= -0.68872931     E(Corr)=     -229.54218092    
 NORM(A)=   0.11043591D+01
 Iteration Nr.   2
 **********************
 DD1Dir will call FoFMem   1 times, MxPair=       182
 NAB=    91 NAA=     0 NBB=     0.
 Norm of the A-vectors is  3.7926305D-01 conv= 1.00D-05.
 RLE energy=       -0.7100998037
 DE(Corr)= -0.70707405     E(CORR)=     -229.56052566     Delta=-1.83D-02
 NORM(A)=   0.11130589D+01
 Iteration Nr.   3
 **********************
 DD1Dir will call FoFMem   1 times, MxPair=       182
 NAB=    91 NAA=     0 NBB=     0.
 Norm of the A-vectors is  1.1243331D-01 conv= 1.00D-05.
 RLE energy=       -0.7111558678
 DE(Corr)= -0.70974181     E(CORR)=     -229.56319342     Delta=-2.67D-03
 NORM(A)=   0.11147553D+01
 Iteration Nr.   4
 **********************
 DD1Dir will call FoFMem   1 times, MxPair=       182
 NAB=    91 NAA=     0 NBB=     0.
 Norm of the A-vectors is  3.9419552D-02 conv= 1.00D-05.
 RLE energy=       -0.7113863332
 DE(Corr)= -0.71126400     E(CORR)=     -229.56471561     Delta=-1.52D-03
 NORM(A)=   0.11151636D+01
 Iteration Nr.   5
 **********************
 DD1Dir will call FoFMem   1 times, MxPair=       182
 NAB=    91 NAA=     0 NBB=     0.
 Norm of the A-vectors is  1.0955042D-02 conv= 1.00D-05.
 RLE energy=       -0.7114443027
 DE(Corr)= -0.71140752     E(CORR)=     -229.56485912     Delta=-1.44D-04
 NORM(A)=   0.11152732D+01
 Iteration Nr.   6
 **********************
 DD1Dir will call FoFMem   1 times, MxPair=       182
 NAB=    91 NAA=     0 NBB=     0.
 Norm of the A-vectors is  4.3806538D-03 conv= 1.00D-05.
 RLE energy=       -0.7114105291
 DE(Corr)= -0.71142734     E(CORR)=     -229.56487894     Delta=-1.98D-05
 NORM(A)=   0.11152790D+01
 Iteration Nr.   7
 **********************
 DD1Dir will call FoFMem   1 times, MxPair=       182
 NAB=    91 NAA=     0 NBB=     0.
 Norm of the A-vectors is  1.8508696D-03 conv= 1.00D-05.
 RLE energy=       -0.7114219798
 DE(Corr)= -0.71142758     E(CORR)=     -229.56487919     Delta=-2.42D-07
 NORM(A)=   0.11152864D+01
 Iteration Nr.   8
 **********************
 DD1Dir will call FoFMem   1 times, MxPair=       182
 NAB=    91 NAA=     0 NBB=     0.
 Norm of the A-vectors is  7.5105290D-04 conv= 1.00D-05.
 RLE energy=       -0.7114231520
 DE(Corr)= -0.71142436     E(CORR)=     -229.56487597     Delta= 3.22D-06
 NORM(A)=   0.11152887D+01
 Iteration Nr.   9
 **********************
 DD1Dir will call FoFMem   1 times, MxPair=       182
 NAB=    91 NAA=     0 NBB=     0.
 Norm of the A-vectors is  3.4190692D-04 conv= 1.00D-05.
 RLE energy=       -0.7114256537
 DE(Corr)= -0.71142583     E(CORR)=     -229.56487743     Delta=-1.46D-06
 NORM(A)=   0.11152899D+01
 Iteration Nr.  10
 **********************
 DD1Dir will call FoFMem   1 times, MxPair=       182
 NAB=    91 NAA=     0 NBB=     0.
 Norm of the A-vectors is  1.7458915D-04 conv= 1.00D-05.
 RLE energy=       -0.7114267300
 DE(Corr)= -0.71142621     E(CORR)=     -229.56487782     Delta=-3.89D-07
 NORM(A)=   0.11152908D+01
 Iteration Nr.  11
 **********************
 DD1Dir will call FoFMem   1 times, MxPair=       182
 NAB=    91 NAA=     0 NBB=     0.
 Norm of the A-vectors is  9.4906878D-05 conv= 1.00D-05.
 RLE energy=       -0.7114269563
 DE(Corr)= -0.71142673     E(CORR)=     -229.56487834     Delta=-5.19D-07
 NORM(A)=   0.11152911D+01
 Iteration Nr.  12
 **********************
 DD1Dir will call FoFMem   1 times, MxPair=       182
 NAB=    91 NAA=     0 NBB=     0.
 Norm of the A-vectors is  5.2730203D-05 conv= 1.00D-05.
 RLE energy=       -0.7114270651
 DE(Corr)= -0.71142696     E(CORR)=     -229.56487856     Delta=-2.25D-07
 NORM(A)=   0.11152913D+01
 Iteration Nr.  13
 **********************
 DD1Dir will call FoFMem   1 times, MxPair=       182
 NAB=    91 NAA=     0 NBB=     0.
 Norm of the A-vectors is  2.6551768D-05 conv= 1.00D-05.
 RLE energy=       -0.7114270333
 DE(Corr)= -0.71142702     E(CORR)=     -229.56487862     Delta=-5.89D-08
 NORM(A)=   0.11152913D+01
 Iteration Nr.  14
 **********************
 DD1Dir will call FoFMem   1 times, MxPair=       182
 NAB=    91 NAA=     0 NBB=     0.
 Norm of the A-vectors is  1.1223505D-05 conv= 1.00D-05.
 RLE energy=       -0.7114270124
 DE(Corr)= -0.71142702     E(CORR)=     -229.56487862     Delta=-5.35D-10
 NORM(A)=   0.11152913D+01
 Iteration Nr.  15
 **********************
 DD1Dir will call FoFMem   1 times, MxPair=       182
 NAB=    91 NAA=     0 NBB=     0.
 Norm of the A-vectors is  5.5002310D-06 conv= 1.00D-05.
 RLE energy=       -0.7114270117
 DE(Corr)= -0.71142701     E(CORR)=     -229.56487862     Delta= 2.80D-09
 NORM(A)=   0.11152914D+01
 CI/CC converged in   15 iterations to DelEn= 2.80D-09 Conv= 1.00D-07 ErrA1= 5.50D-06 Conv= 1.00D-05
 Largest amplitude= 2.11D-02
 T4(AAA)= -0.44677317D-03
 T4(AAB)= -0.97279606D-02
 T5(AAA)=  0.24760635D-04
 T5(AAB)=  0.34751856D-03
 Time for triples=      119.05 seconds.
 T4(CCSD)= -0.20349468D-01
 T5(CCSD)=  0.74455838D-03
 CCSD(T)= -0.22958448353D+03
 Discarding MO integrals.
 Leave Link  913 at Thu Dec 21 20:09:08 2017, MaxMem=  3489660928 cpu:       783.8
 (Enter /home/michal/g09/l601.exe)
 Copying SCF densities to generalized density rwf, IOpCl= 0 IROHF=0.

 **********************************************************************

            Population analysis using the SCF density.

 **********************************************************************

 Alpha  occ. eigenvalues --  -20.61829 -20.61615 -11.28705 -11.23386  -1.46460
 Alpha  occ. eigenvalues --   -1.22452  -1.00377  -0.83893  -0.70786  -0.66066
 Alpha  occ. eigenvalues --   -0.64748  -0.58887  -0.54025  -0.53489  -0.49441
 Alpha  occ. eigenvalues --   -0.48455  -0.44059
 Alpha virt. eigenvalues --    0.18348   0.19203   0.23455   0.24180   0.26004
 Alpha virt. eigenvalues --    0.27665   0.29197   0.36520   0.39756   0.59311
 Alpha virt. eigenvalues --    0.61450   0.67377   0.74484   0.76592   0.82605
 Alpha virt. eigenvalues --    0.83510   0.85944   0.87280   0.88067   0.88387
 Alpha virt. eigenvalues --    0.92004   1.10174   1.10883   1.12895   1.19030
 Alpha virt. eigenvalues --    1.23308   1.28074   1.31827   1.35044   1.44490
 Alpha virt. eigenvalues --    1.44964   1.52504   1.59646   1.63927   1.67049
 Alpha virt. eigenvalues --    1.73411   1.83413   1.85539   1.86998   1.90945
 Alpha virt. eigenvalues --    1.91797   1.94819   1.95209   1.97341   2.04719
 Alpha virt. eigenvalues --    2.10552   2.17840   2.23357   2.28797   2.32022
 Alpha virt. eigenvalues --    2.42448   2.48263   2.50330   2.51433   2.70142
 Alpha virt. eigenvalues --    2.72582   2.73107   2.78233   2.84039   2.89974
 Alpha virt. eigenvalues --    2.94203   2.96632   3.26786   3.35279   3.44884
 Alpha virt. eigenvalues --    3.49501   3.57291   3.93623   4.22995
          Condensed to atoms (all electrons):
               1          2          3          4          5          6
     1  C    4.543632   0.426850  -0.037495   0.004074  -0.000805   0.402972
     2  C    0.426850   4.436666   0.255719  -0.054444   0.001023  -0.029346
     3  O   -0.037495   0.255719   8.063864   0.118595  -0.027929   0.003819
     4  O    0.004074  -0.054444   0.118595   7.773433   0.345948  -0.000149
     5  H   -0.000805   0.001023  -0.027929   0.345948   0.477911   0.000009
     6  H    0.402972  -0.029346   0.003819  -0.000149   0.000009   0.628497
     7  H   -0.030199   0.410200  -0.030126   0.001479  -0.000116   0.007478
     8  H   -0.026145   0.404322  -0.030065   0.004358   0.002487  -0.009181
     9  H    0.400149  -0.025506   0.002713  -0.000142   0.000021  -0.020597
    10  H    0.404087  -0.026218   0.001087  -0.000150   0.000040  -0.027069
               7          8          9         10
     1  C   -0.030199  -0.026145   0.400149   0.404087
     2  C    0.410200   0.404322  -0.025506  -0.026218
     3  O   -0.030126  -0.030065   0.002713   0.001087
     4  O    0.001479   0.004358  -0.000142  -0.000150
     5  H   -0.000116   0.002487   0.000021   0.000040
     6  H    0.007478  -0.009181  -0.020597  -0.027069
     7  H    0.653648  -0.041267  -0.000736  -0.007494
     8  H   -0.041267   0.662356  -0.003085   0.007529
     9  H   -0.000736  -0.003085   0.631152  -0.021579
    10  H   -0.007494   0.007529  -0.021579   0.618616
 Mulliken charges:
               1
     1  C   -0.087120
     2  C    0.200734
     3  O   -0.320182
     4  O   -0.193001
     5  H    0.201409
     6  H    0.043568
     7  H    0.037135
     8  H    0.028693
     9  H    0.037612
    10  H    0.051152
 Sum of Mulliken charges =   0.00000
 Mulliken charges with hydrogens summed into heavy atoms:
               1
     1  C    0.045212
     2  C    0.266562
     3  O   -0.320182
     4  O    0.008409
 Electronic spatial extent (au):  <R**2>=            962.9121
 Charge=              0.0000 electrons
 Dipole moment (field-independent basis, Debye):
    X=             -1.9304    Y=             -0.2162    Z=             -0.2593  Tot=              1.9597
 Quadrupole moment (field-independent basis, Debye-Ang):
   XX=            -27.2316   YY=            -23.2437   ZZ=            -21.5371
   XY=              2.0253   XZ=              2.2918   YZ=             -2.7588
 Traceless Quadrupole moment (field-independent basis, Debye-Ang):
   XX=             -3.2274   YY=              0.7604   ZZ=              2.4670
   XY=              2.0253   XZ=              2.2918   YZ=             -2.7588
 Octapole moment (field-independent basis, Debye-Ang**2):
  XXX=            -14.6129  YYY=             64.8683  ZZZ=            150.5714  XYY=             -5.9470
  XXY=             26.2084  XXZ=             55.9414  XZZ=             -6.6563  YZZ=             26.2176
  YYZ=             59.3559  XYZ=             -3.3879
 Hexadecapole moment (field-independent basis, Debye-Ang**3):
 XXXX=            -98.8561 YYYY=           -176.2370 ZZZZ=           -934.7670 XXXY=             20.4679
 XXXZ=            -24.4296 YYYX=             19.9094 YYYZ=           -155.4750 ZZZX=            -25.5121
 ZZZY=           -148.7624 XXYY=            -49.5645 XXZZ=           -179.0539 YYZZ=           -199.9245
 XXYZ=            -52.4218 YYXZ=             -2.9092 ZZXY=              8.1876
 N-N= 1.307402059900D+02 E-N=-8.009531722675D+02  KE= 2.285392687473D+02
 Leave Link  601 at Thu Dec 21 20:09:08 2017, MaxMem=  3489660928 cpu:         0.5
 (Enter /home/michal/g09/l9999.exe)
 1\1\GINC-LINUX\SP\RCCSD(T)-FC\CC-pVDZ\C2H6O2\MICHAL\21-Dec-2017\0\\#P 
 CCSD(T)/cc-pVDZ SP Nosymm\\PEscan\\0,1\C,0,-0.56725,-1.02525,-3.66579\
 C,0,-0.06938,-0.40311,-2.37047\O,0,0.77826,-1.37418,-1.76289\O,0,0.869
 46,-1.0189,-0.35059\H,0,0.45206,-1.8151,0.01836\H,0,-1.15459,-1.93215,
 -3.45445\H,0,0.48418,0.53794,-2.54897\H,0,-0.91414,-0.18385,-1.6941\H,
 0,-1.20192,-0.30694,-4.20948\H,0,0.27846,-1.30059,-4.31604\\Version=EM
 64L-G09RevD.01\HF=-228.8534516\MP2=-229.5237831\MP3=-229.5542567\MP4D=
 -229.5711329\MP4DQ=-229.5591061\MP4SDQ=-229.5644691\CCSD=-229.5648786\
 CCSD(T)=-229.5844835\RMSD=5.718e-09\PG=C01 [X(C2H6O2)]\\@


 "MATHEMATICS IS THE ART OF GIVING THE SAME NAME
 TO DIFFERENT THINGS."
                    - H. POINCARE
 Job cpu time:       0 days  0 hours 13 minutes 32.0 seconds.
 File lengths (MBytes):  RWF=    699 Int=      0 D2E=      0 Chk=      1 Scr=      1
 Normal termination of Gaussian 09 at Thu Dec 21 20:09:08 2017.
