 Entering Gaussian System, Link 0=g09
 Input=1HPP_mp2qz_002.com
 Output=1HPP_mp2qz_002.log
 Initial command:
 /home/michal/g09/l1.exe "/home/michal/gauss_scratch/Gau-9336.inp" -scrdir="/home/michal/gauss_scratch/"
 Entering Link 1 = /home/michal/g09/l1.exe PID=      9337.
  
 Copyright (c) 1988,1990,1992,1993,1995,1998,2003,2009,2013,
            Gaussian, Inc.  All Rights Reserved.
  
 This is part of the Gaussian(R) 09 program.  It is based on
 the Gaussian(R) 03 system (copyright 2003, Gaussian, Inc.),
 the Gaussian(R) 98 system (copyright 1998, Gaussian, Inc.),
 the Gaussian(R) 94 system (copyright 1995, Gaussian, Inc.),
 the Gaussian 92(TM) system (copyright 1992, Gaussian, Inc.),
 the Gaussian 90(TM) system (copyright 1990, Gaussian, Inc.),
 the Gaussian 88(TM) system (copyright 1988, Gaussian, Inc.),
 the Gaussian 86(TM) system (copyright 1986, Carnegie Mellon
 University), and the Gaussian 82(TM) system (copyright 1983,
 Carnegie Mellon University). Gaussian is a federally registered
 trademark of Gaussian, Inc.
  
 This software contains proprietary and confidential information,
 including trade secrets, belonging to Gaussian, Inc.
  
 This software is provided under written license and may be
 used, copied, transmitted, or stored only in accord with that
 written license.
  
 The following legend is applicable only to US Government
 contracts under FAR:
  
                    RESTRICTED RIGHTS LEGEND
  
 Use, reproduction and disclosure by the US Government is
 subject to restrictions as set forth in subparagraphs (a)
 and (c) of the Commercial Computer Software - Restricted
 Rights clause in FAR 52.227-19.
  
 Gaussian, Inc.
 340 Quinnipiac St., Bldg. 40, Wallingford CT 06492
  
  
 ---------------------------------------------------------------
 Warning -- This program may not be used in any manner that
 competes with the business of Gaussian, Inc. or will provide
 assistance to any competitor of Gaussian, Inc.  The licensee
 of this program is prohibited from giving any competitor of
 Gaussian, Inc. access to this program.  By using this program,
 the user acknowledges that Gaussian, Inc. is engaged in the
 business of creating and licensing software in the field of
 computational chemistry and represents and warrants to the
 licensee that it is not a competitor of Gaussian, Inc. and that
 it will not use this program in any manner prohibited above.
 ---------------------------------------------------------------
  

 Cite this work as:
 Gaussian 09, Revision D.01,
 M. J. Frisch, G. W. Trucks, H. B. Schlegel, G. E. Scuseria, 
 M. A. Robb, J. R. Cheeseman, G. Scalmani, V. Barone, B. Mennucci, 
 G. A. Petersson, H. Nakatsuji, M. Caricato, X. Li, H. P. Hratchian, 
 A. F. Izmaylov, J. Bloino, G. Zheng, J. L. Sonnenberg, M. Hada, 
 M. Ehara, K. Toyota, R. Fukuda, J. Hasegawa, M. Ishida, T. Nakajima, 
 Y. Honda, O. Kitao, H. Nakai, T. Vreven, J. A. Montgomery, Jr., 
 J. E. Peralta, F. Ogliaro, M. Bearpark, J. J. Heyd, E. Brothers, 
 K. N. Kudin, V. N. Staroverov, T. Keith, R. Kobayashi, J. Normand, 
 K. Raghavachari, A. Rendell, J. C. Burant, S. S. Iyengar, J. Tomasi, 
 M. Cossi, N. Rega, J. M. Millam, M. Klene, J. E. Knox, J. B. Cross, 
 V. Bakken, C. Adamo, J. Jaramillo, R. Gomperts, R. E. Stratmann, 
 O. Yazyev, A. J. Austin, R. Cammi, C. Pomelli, J. W. Ochterski, 
 R. L. Martin, K. Morokuma, V. G. Zakrzewski, G. A. Voth, 
 P. Salvador, J. J. Dannenberg, S. Dapprich, A. D. Daniels, 
 O. Farkas, J. B. Foresman, J. V. Ortiz, J. Cioslowski, 
 and D. J. Fox, Gaussian, Inc., Wallingford CT, 2013.
 
 ******************************************
 Gaussian 09:  EM64L-G09RevD.01 24-Apr-2013
                21-Dec-2017 
 ******************************************
 %Mem=26GB
 %NProc=12
 Will use up to   12 processors via shared memory.
 %RWF=/home/michal/Cholesterol_grant/peroxy_params,20GB
 ------------------------
 #P MP2/cc-pVQZ SP Nosymm
 ------------------------
 1/38=1/1;
 2/12=2,15=1,17=6,18=5,40=1/2;
 3/5=16,6=2,11=9,16=1,25=1,30=1/1,2,3;
 4//1;
 5/5=2,38=5/2;
 8/10=1/1;
 9/16=-3/6;
 6/7=2,8=2,9=2,10=2/1;
 99/5=1,9=1/99;
 Leave Link    1 at Thu Dec 21 16:20:21 2017, MaxMem=  3489660928 cpu:         0.3
 (Enter /home/michal/g09/l101.exe)
 ------
 PEscan
 ------
 Symbolic Z-matrix:
 Charge =  0 Multiplicity = 1
 C                    -0.56605  -1.01658  -3.68326 
 C                    -0.09947  -0.44049  -2.35571 
 O                     0.70757  -1.44693  -1.75601 
 O                     0.95689  -1.00265  -0.38916 
 H                     0.48506  -1.71263   0.0777 
 H                    -1.1654   -1.92553  -3.51913 
 H                     0.48327   0.48934  -2.49314 
 H                    -0.96036  -0.21453  -1.69988 
 H                    -1.18246  -0.2763   -4.21797 
 H                     0.29611  -1.27582  -4.31788 
 
 NAtoms=     10 NQM=       10 NQMF=       0 NMMI=      0 NMMIF=      0
                NMic=       0 NMicF=      0.
                    Isotopes and Nuclear Properties:
 (Nuclear quadrupole moments (NQMom) in fm**2, nuclear magnetic moments (NMagM)
  in nuclear magnetons)

  Atom         1           2           3           4           5           6           7           8           9          10
 IAtWgt=          12          12          16          16           1           1           1           1           1           1
 AtmWgt=  12.0000000  12.0000000  15.9949146  15.9949146   1.0078250   1.0078250   1.0078250   1.0078250   1.0078250   1.0078250
 NucSpn=           0           0           0           0           1           1           1           1           1           1
 AtZEff=   0.0000000   0.0000000   0.0000000   0.0000000   0.0000000   0.0000000   0.0000000   0.0000000   0.0000000   0.0000000
 NQMom=    0.0000000   0.0000000   0.0000000   0.0000000   0.0000000   0.0000000   0.0000000   0.0000000   0.0000000   0.0000000
 NMagM=    0.0000000   0.0000000   0.0000000   0.0000000   2.7928460   2.7928460   2.7928460   2.7928460   2.7928460   2.7928460
 AtZNuc=   6.0000000   6.0000000   8.0000000   8.0000000   1.0000000   1.0000000   1.0000000   1.0000000   1.0000000   1.0000000
 Leave Link  101 at Thu Dec 21 16:20:21 2017, MaxMem=  3489660928 cpu:         0.5
 (Enter /home/michal/g09/l202.exe)
                          Input orientation:                          
 ---------------------------------------------------------------------
 Center     Atomic      Atomic             Coordinates (Angstroms)
 Number     Number       Type             X           Y           Z
 ---------------------------------------------------------------------
      1          6           0       -0.566050   -1.016580   -3.683260
      2          6           0       -0.099470   -0.440490   -2.355710
      3          8           0        0.707570   -1.446930   -1.756010
      4          8           0        0.956890   -1.002650   -0.389160
      5          1           0        0.485060   -1.712630    0.077700
      6          1           0       -1.165400   -1.925530   -3.519130
      7          1           0        0.483270    0.489340   -2.493140
      8          1           0       -0.960360   -0.214530   -1.699880
      9          1           0       -1.182460   -0.276300   -4.217970
     10          1           0        0.296110   -1.275820   -4.317880
 ---------------------------------------------------------------------
                    Distance matrix (angstroms):
                    1          2          3          4          5
     1  C    0.000000
     2  C    1.520515   0.000000
     3  O    2.349809   1.422630   0.000000
     4  O    3.629137   2.302008   1.458706   0.000000
     5  H    3.966628   2.807401   1.866172   0.971933   0.000000
     6  H    1.101067   2.166817   2.616423   3.892626   3.963147
     7  H    2.187522   1.105919   2.083942   2.622419   3.384951
     8  H    2.175445   1.105578   2.074597   2.452543   2.737395
     9  H    1.101767   2.160518   3.317203   4.445693   4.826639
    10  H    1.101484   2.168956   2.600338   3.993256   4.421270
                    6          7          8          9         10
     6  H    0.000000
     7  H    3.098768   0.000000
     8  H    2.505840   1.791302   0.000000
     9  H    1.791264   2.517121   2.528620   0.000000
    10  H    1.787774   2.545682   3.091760   1.787510   0.000000
 Symmetry turned off by external request.
 Stoichiometry    C2H6O2
 Framework group  C1[X(C2H6O2)]
 Deg. of freedom    24
 Full point group                 C1      NOp   1
 Rotational constants (GHZ):     29.9386534      4.1767064      3.9086694
 Leave Link  202 at Thu Dec 21 16:20:21 2017, MaxMem=  3489660928 cpu:         0.0
 (Enter /home/michal/g09/l301.exe)
 Standard basis: CC-pVQZ (5D, 7F)
 Ernie: Thresh=  0.10000D-02 Tol=  0.10000D-05 Strict=F.
 Ernie:  12 primitive shells out of 204 were deleted.
   400 basis functions,   578 primitive gaussians,   490 cartesian basis functions
    17 alpha electrons       17 beta electrons
       nuclear repulsion energy       130.8102195016 Hartrees.
 IExCor=    0 DFT=F Ex=HF Corr=None ExCW=0 ScaHFX=  1.000000
 ScaDFX=  1.000000  1.000000  1.000000  1.000000 ScalE2=  1.000000  1.000000
 IRadAn=      0 IRanWt=     -1 IRanGd=            0 ICorTp=0 IEmpDi=  4
 NAtoms=   10 NActive=   10 NUniq=   10 SFac= 1.00D+00 NAtFMM=   60 NAOKFM=F Big=F
 Integral buffers will be    131072 words long.
 Raffenetti 1 integral format.
 Two-electron integral symmetry is turned off.
 Leave Link  301 at Thu Dec 21 16:20:21 2017, MaxMem=  3489660928 cpu:         0.3
 (Enter /home/michal/g09/l302.exe)
 NPDir=0 NMtPBC=     1 NCelOv=     1 NCel=       1 NClECP=     1 NCelD=      1
         NCelK=      1 NCelE2=     1 NClLst=     1 CellRange=     0.0.
 One-electron integrals computed using PRISM.
 NBasis=   400 RedAO= T EigKep=  1.38D-04  NBF=   400
 NBsUse=   400 1.00D-06 EigRej= -1.00D+00 NBFU=   400
 Leave Link  302 at Thu Dec 21 16:20:22 2017, MaxMem=  3489660928 cpu:         6.1
 (Enter /home/michal/g09/l303.exe)
 DipDrv:  MaxL=1.
 Leave Link  303 at Thu Dec 21 16:20:22 2017, MaxMem=  3489660928 cpu:         0.5
 (Enter /home/michal/g09/l401.exe)
 ExpMin= 8.99D-02 ExpMax= 6.14D+04 ExpMxC= 5.91D+02 IAcc=2 IRadAn=         4 AccDes= 0.00D+00
 Harris functional with IExCor=  205 and IRadAn=       4 diagonalized for initial guess.
 HarFok:  IExCor=  205 AccDes= 0.00D+00 IRadAn=         4 IDoV= 1 UseB2=F ITyADJ=14
 ICtDFT=  3500011 ScaDFX=  1.000000  1.000000  1.000000  1.000000
 FoFCou: FMM=F IPFlag=           0 FMFlag=      100000 FMFlg1=           0
         NFxFlg=           0 DoJE=T BraDBF=F KetDBF=T FulRan=T
         wScrn=  0.000000 ICntrl=     500 IOpCl=  0 I1Cent=   200000004 NGrid=           0
         NMat0=    1 NMatS0=      1 NMatT0=    0 NMatD0=    1 NMtDS0=    0 NMtDT0=    0
 Symmetry not used in FoFCou.
 Harris En= -229.245642051122    
 JPrj=0 DoOrth=F DoCkMO=F.
 Leave Link  401 at Thu Dec 21 16:20:23 2017, MaxMem=  3489660928 cpu:        11.0
 (Enter /home/michal/g09/l502.exe)
 Closed shell SCF:
 Using DIIS extrapolation, IDIIS=  1040.
 Two-electron integral symmetry not used.
 Keep R1 ints in memory in canonical form, NReq=3275992930.
 IVT=      747690 IEndB=      747690 NGot=  3489660928 MDV=   272853139
 LenX=   272853139 LenY=   272612549
 Requested convergence on RMS density matrix=1.00D-08 within 128 cycles.
 Requested convergence on MAX density matrix=1.00D-06.
 Requested convergence on             energy=1.00D-06.
 No special actions if energy rises.
 FoFCou: FMM=F IPFlag=           0 FMFlag=           0 FMFlg1=           0
         NFxFlg=           0 DoJE=F BraDBF=F KetDBF=F FulRan=T
         wScrn=  0.000000 ICntrl=     600 IOpCl=  0 I1Cent=           0 NGrid=           0
         NMat0=    1 NMatS0=  80200 NMatT0=    0 NMatD0=    1 NMtDS0=    0 NMtDT0=    0
 Symmetry not used in FoFCou.

 Cycle   1  Pass 1  IDiag  1:
 E= -228.744705765230    
 DIIS: error= 3.67D-02 at cycle   1 NSaved=   1.
 NSaved= 1 IEnMin= 1 EnMin= -228.744705765230     IErMin= 1 ErrMin= 3.67D-02
 ErrMax= 3.67D-02  0.00D+00 EMaxC= 1.00D-01 BMatC= 4.77D-01 BMatP= 4.77D-01
 IDIUse=3 WtCom= 6.33D-01 WtEn= 3.67D-01
 Coeff-Com:  0.100D+01
 Coeff-En:   0.100D+01
 Coeff:      0.100D+01
 Gap=     0.708 Goal=   None    Shift=    0.000
 GapD=    0.708 DampG=2.000 DampE=0.500 DampFc=1.0000 IDamp=-1.
 RMSDP=7.63D-04 MaxDP=3.74D-02              OVMax= 1.21D-01

 Cycle   2  Pass 1  IDiag  1:
 E= -228.914252937458     Delta-E=       -0.169547172228 Rises=F Damp=F
 DIIS: error= 1.16D-02 at cycle   2 NSaved=   2.
 NSaved= 2 IEnMin= 2 EnMin= -228.914252937458     IErMin= 2 ErrMin= 1.16D-02
 ErrMax= 1.16D-02  0.00D+00 EMaxC= 1.00D-01 BMatC= 3.52D-02 BMatP= 4.77D-01
 IDIUse=3 WtCom= 8.84D-01 WtEn= 1.16D-01
 Coeff-Com:  0.121D+00 0.879D+00
 Coeff-En:   0.000D+00 0.100D+01
 Coeff:      0.107D+00 0.893D+00
 Gap=     0.641 Goal=   None    Shift=    0.000
 RMSDP=3.34D-04 MaxDP=1.82D-02 DE=-1.70D-01 OVMax= 4.42D-02

 Cycle   3  Pass 1  IDiag  1:
 E= -228.939947873462     Delta-E=       -0.025694936004 Rises=F Damp=F
 DIIS: error= 3.60D-03 at cycle   3 NSaved=   3.
 NSaved= 3 IEnMin= 3 EnMin= -228.939947873462     IErMin= 3 ErrMin= 3.60D-03
 ErrMax= 3.60D-03  0.00D+00 EMaxC= 1.00D-01 BMatC= 3.70D-03 BMatP= 3.52D-02
 IDIUse=3 WtCom= 9.64D-01 WtEn= 3.60D-02
 Coeff-Com: -0.208D-01 0.211D+00 0.810D+00
 Coeff-En:   0.000D+00 0.000D+00 0.100D+01
 Coeff:     -0.201D-01 0.203D+00 0.817D+00
 Gap=     0.562 Goal=   None    Shift=    0.000
 RMSDP=7.23D-05 MaxDP=4.39D-03 DE=-2.57D-02 OVMax= 1.20D-02

 Cycle   4  Pass 1  IDiag  1:
 E= -228.942920883172     Delta-E=       -0.002973009710 Rises=F Damp=F
 DIIS: error= 5.97D-04 at cycle   4 NSaved=   4.
 NSaved= 4 IEnMin= 4 EnMin= -228.942920883172     IErMin= 4 ErrMin= 5.97D-04
 ErrMax= 5.97D-04  0.00D+00 EMaxC= 1.00D-01 BMatC= 1.77D-04 BMatP= 3.70D-03
 IDIUse=3 WtCom= 9.94D-01 WtEn= 5.97D-03
 Coeff-Com: -0.809D-02 0.421D-01 0.239D+00 0.727D+00
 Coeff-En:   0.000D+00 0.000D+00 0.000D+00 0.100D+01
 Coeff:     -0.804D-02 0.419D-01 0.238D+00 0.728D+00
 Gap=     0.558 Goal=   None    Shift=    0.000
 RMSDP=1.98D-05 MaxDP=9.02D-04 DE=-2.97D-03 OVMax= 2.88D-03

 Cycle   5  Pass 1  IDiag  1:
 E= -228.943047880348     Delta-E=       -0.000126997176 Rises=F Damp=F
 DIIS: error= 3.17D-04 at cycle   5 NSaved=   5.
 NSaved= 5 IEnMin= 5 EnMin= -228.943047880348     IErMin= 5 ErrMin= 3.17D-04
 ErrMax= 3.17D-04  0.00D+00 EMaxC= 1.00D-01 BMatC= 1.74D-05 BMatP= 1.77D-04
 IDIUse=3 WtCom= 9.97D-01 WtEn= 3.17D-03
 Coeff-Com:  0.189D-02-0.267D-01-0.886D-01 0.125D+00 0.988D+00
 Coeff-En:   0.000D+00 0.000D+00 0.000D+00 0.000D+00 0.100D+01
 Coeff:      0.188D-02-0.267D-01-0.883D-01 0.125D+00 0.988D+00
 Gap=     0.559 Goal=   None    Shift=    0.000
 RMSDP=1.18D-05 MaxDP=5.08D-04 DE=-1.27D-04 OVMax= 1.71D-03

 Cycle   6  Pass 1  IDiag  1:
 E= -228.943071680667     Delta-E=       -0.000023800319 Rises=F Damp=F
 DIIS: error= 6.37D-05 at cycle   6 NSaved=   6.
 NSaved= 6 IEnMin= 6 EnMin= -228.943071680667     IErMin= 6 ErrMin= 6.37D-05
 ErrMax= 6.37D-05  0.00D+00 EMaxC= 1.00D-01 BMatC= 7.82D-07 BMatP= 1.74D-05
 IDIUse=1 WtCom= 1.00D+00 WtEn= 0.00D+00
 Coeff-Com:  0.619D-03-0.482D-02-0.190D-01-0.436D-01 0.641D-01 0.100D+01
 Coeff:      0.619D-03-0.482D-02-0.190D-01-0.436D-01 0.641D-01 0.100D+01
 Gap=     0.559 Goal=   None    Shift=    0.000
 RMSDP=3.15D-06 MaxDP=1.62D-04 DE=-2.38D-05 OVMax= 3.49D-04

 Cycle   7  Pass 1  IDiag  1:
 E= -228.943073064844     Delta-E=       -0.000001384177 Rises=F Damp=F
 DIIS: error= 1.64D-05 at cycle   7 NSaved=   7.
 NSaved= 7 IEnMin= 7 EnMin= -228.943073064844     IErMin= 7 ErrMin= 1.64D-05
 ErrMax= 1.64D-05  0.00D+00 EMaxC= 1.00D-01 BMatC= 7.56D-08 BMatP= 7.82D-07
 IDIUse=1 WtCom= 1.00D+00 WtEn= 0.00D+00
 Coeff-Com: -0.144D-04 0.944D-03 0.286D-02-0.148D-01-0.571D-01 0.121D+00
 Coeff-Com:  0.947D+00
 Coeff:     -0.144D-04 0.944D-03 0.286D-02-0.148D-01-0.571D-01 0.121D+00
 Coeff:      0.947D+00
 Gap=     0.559 Goal=   None    Shift=    0.000
 RMSDP=8.28D-07 MaxDP=3.88D-05 DE=-1.38D-06 OVMax= 1.21D-04

 Cycle   8  Pass 1  IDiag  1:
 E= -228.943073206566     Delta-E=       -0.000000141722 Rises=F Damp=F
 DIIS: error= 3.95D-06 at cycle   8 NSaved=   8.
 NSaved= 8 IEnMin= 8 EnMin= -228.943073206566     IErMin= 8 ErrMin= 3.95D-06
 ErrMax= 3.95D-06  0.00D+00 EMaxC= 1.00D-01 BMatC= 1.18D-08 BMatP= 7.56D-08
 IDIUse=1 WtCom= 1.00D+00 WtEn= 0.00D+00
 Coeff-Com: -0.781D-04 0.625D-03 0.252D-02 0.713D-02-0.686D-02-0.150D+00
 Coeff-Com:  0.309D-01 0.112D+01
 Coeff:     -0.781D-04 0.625D-03 0.252D-02 0.713D-02-0.686D-02-0.150D+00
 Coeff:      0.309D-01 0.112D+01
 Gap=     0.559 Goal=   None    Shift=    0.000
 RMSDP=4.09D-07 MaxDP=1.43D-05 DE=-1.42D-07 OVMax= 8.98D-05

 Cycle   9  Pass 1  IDiag  1:
 E= -228.943073237074     Delta-E=       -0.000000030507 Rises=F Damp=F
 DIIS: error= 1.50D-06 at cycle   9 NSaved=   9.
 NSaved= 9 IEnMin= 9 EnMin= -228.943073237074     IErMin= 9 ErrMin= 1.50D-06
 ErrMax= 1.50D-06  0.00D+00 EMaxC= 1.00D-01 BMatC= 1.46D-09 BMatP= 1.18D-08
 IDIUse=1 WtCom= 1.00D+00 WtEn= 0.00D+00
 Coeff-Com:  0.193D-04-0.229D-03-0.920D-03-0.457D-03 0.788D-02 0.265D-01
 Coeff-Com: -0.102D+00-0.321D+00 0.139D+01
 Coeff:      0.193D-04-0.229D-03-0.920D-03-0.457D-03 0.788D-02 0.265D-01
 Coeff:     -0.102D+00-0.321D+00 0.139D+01
 Gap=     0.559 Goal=   None    Shift=    0.000
 RMSDP=1.86D-07 MaxDP=8.52D-06 DE=-3.05D-08 OVMax= 4.91D-05

 Cycle  10  Pass 1  IDiag  1:
 E= -228.943073243070     Delta-E=       -0.000000005996 Rises=F Damp=F
 DIIS: error= 6.24D-07 at cycle  10 NSaved=  10.
 NSaved=10 IEnMin=10 EnMin= -228.943073243070     IErMin=10 ErrMin= 6.24D-07
 ErrMax= 6.24D-07  0.00D+00 EMaxC= 1.00D-01 BMatC= 2.31D-10 BMatP= 1.46D-09
 IDIUse=1 WtCom= 1.00D+00 WtEn= 0.00D+00
 Coeff-Com:  0.783D-05-0.599D-04-0.237D-03-0.913D-03 0.442D-04 0.170D-01
 Coeff-Com:  0.802D-02-0.123D+00-0.121D+00 0.122D+01
 Coeff:      0.783D-05-0.599D-04-0.237D-03-0.913D-03 0.442D-04 0.170D-01
 Coeff:      0.802D-02-0.123D+00-0.121D+00 0.122D+01
 Gap=     0.559 Goal=   None    Shift=    0.000
 RMSDP=7.25D-08 MaxDP=3.38D-06 DE=-6.00D-09 OVMax= 2.03D-05

 Cycle  11  Pass 1  IDiag  1:
 E= -228.943073244028     Delta-E=       -0.000000000959 Rises=F Damp=F
 DIIS: error= 2.66D-07 at cycle  11 NSaved=  11.
 NSaved=11 IEnMin=11 EnMin= -228.943073244028     IErMin=11 ErrMin= 2.66D-07
 ErrMax= 2.66D-07  0.00D+00 EMaxC= 1.00D-01 BMatC= 4.51D-11 BMatP= 2.31D-10
 IDIUse=1 WtCom= 1.00D+00 WtEn= 0.00D+00
 Coeff-Com: -0.394D-05 0.468D-04 0.194D-03 0.222D-03-0.144D-02-0.791D-02
 Coeff-Com:  0.205D-01 0.792D-01-0.292D+00-0.441D-01 0.125D+01
 Coeff:     -0.394D-05 0.468D-04 0.194D-03 0.222D-03-0.144D-02-0.791D-02
 Coeff:      0.205D-01 0.792D-01-0.292D+00-0.441D-01 0.125D+01
 Gap=     0.559 Goal=   None    Shift=    0.000
 RMSDP=3.54D-08 MaxDP=1.53D-06 DE=-9.59D-10 OVMax= 9.03D-06

 Cycle  12  Pass 1  IDiag  1:
 E= -228.943073244217     Delta-E=       -0.000000000188 Rises=F Damp=F
 DIIS: error= 8.45D-08 at cycle  12 NSaved=  12.
 NSaved=12 IEnMin=12 EnMin= -228.943073244217     IErMin=12 ErrMin= 8.45D-08
 ErrMax= 8.45D-08  0.00D+00 EMaxC= 1.00D-01 BMatC= 4.50D-12 BMatP= 4.51D-11
 IDIUse=1 WtCom= 1.00D+00 WtEn= 0.00D+00
 Coeff-Com: -0.360D-06-0.127D-05-0.472D-05 0.126D-03 0.363D-03-0.160D-02
 Coeff-Com: -0.490D-02 0.807D-02 0.602D-01-0.154D+00-0.258D+00 0.135D+01
 Coeff:     -0.360D-06-0.127D-05-0.472D-05 0.126D-03 0.363D-03-0.160D-02
 Coeff:     -0.490D-02 0.807D-02 0.602D-01-0.154D+00-0.258D+00 0.135D+01
 Gap=     0.559 Goal=   None    Shift=    0.000
 RMSDP=1.23D-08 MaxDP=4.57D-07 DE=-1.88D-10 OVMax= 3.21D-06

 Cycle  13  Pass 1  IDiag  1:
 E= -228.943073244243     Delta-E=       -0.000000000026 Rises=F Damp=F
 DIIS: error= 1.99D-08 at cycle  13 NSaved=  13.
 NSaved=13 IEnMin=13 EnMin= -228.943073244243     IErMin=13 ErrMin= 1.99D-08
 ErrMax= 1.99D-08  0.00D+00 EMaxC= 1.00D-01 BMatC= 2.80D-13 BMatP= 4.50D-12
 IDIUse=1 WtCom= 1.00D+00 WtEn= 0.00D+00
 Coeff-Com:  0.370D-06-0.360D-05-0.140D-04-0.402D-04 0.371D-04 0.898D-03
 Coeff-Com: -0.698D-03-0.774D-02 0.125D-01 0.324D-01-0.538D-01-0.229D+00
 Coeff-Com:  0.125D+01
 Coeff:      0.370D-06-0.360D-05-0.140D-04-0.402D-04 0.371D-04 0.898D-03
 Coeff:     -0.698D-03-0.774D-02 0.125D-01 0.324D-01-0.538D-01-0.229D+00
 Coeff:      0.125D+01
 Gap=     0.559 Goal=   None    Shift=    0.000
 RMSDP=2.68D-09 MaxDP=1.12D-07 DE=-2.60D-11 OVMax= 6.67D-07

 SCF Done:  E(RHF) =  -228.943073244     A.U. after   13 cycles
            NFock= 13  Conv=0.27D-08     -V/T= 2.0017
 KE= 2.285613140855D+02 PE=-8.012233900108D+02 EE= 2.129087831795D+02
 Leave Link  502 at Thu Dec 21 16:22:12 2017, MaxMem=  3489660928 cpu:       707.3
 (Enter /home/michal/g09/l801.exe)
 ExpMin= 8.99D-02 ExpMax= 6.14D+04 ExpMxC= 5.91D+02 IAcc=3 IRadAn=         5 AccDes= 0.00D+00
 HarFok:  IExCor=  205 AccDes= 0.00D+00 IRadAn=         5 IDoV=-2 UseB2=F ITyADJ=14
 ICtDFT= 12500011 ScaDFX=  1.000000  1.000000  1.000000  1.000000
 Largest valence mixing into a core orbital is  1.82D-04
 Largest core mixing into a valence orbital is  3.04D-05
 Range of M.O.s used for correlation:     5   400
 NBasis=   400 NAE=    17 NBE=    17 NFC=     4 NFV=     0
 NROrb=    396 NOA=    13 NOB=    13 NVA=   383 NVB=   383

 **** Warning!!: The largest alpha MO coefficient is  0.21542698D+02

 Leave Link  801 at Thu Dec 21 16:22:13 2017, MaxMem=  3489660928 cpu:         1.2
 (Enter /home/michal/g09/l906.exe)
 FulOut=F Deriv=F AODrv=F NAtomX=    10
   MMem=        1311  MDisk=          13 MDiskD=          13
  W3Min=     2439710 MinDsk=     3998052 NBas6D=         490
 NBas2D=      121807    NTT=      120295    LW2=     4508827
    MDV=  3488922618 MDiskM=       15813 NBas2p=      114535
 Fully direct method using O(OVN) memory.
 IMap=   1   2   3   4   5   6   7   8   9  10  11  12  13
 JobTyp=1 Pass  1:  I=   1 to  13 NPSUse= 12 ParTrn=T ParDer=T DoDerP=F.
 Spin components of T(2) and E(2):
     alpha-alpha T2 =       0.2891966297D-01 E2=     -0.1039362502D+00
     alpha-beta  T2 =       0.1787332235D+00 E2=     -0.6942970145D+00
     beta-beta   T2 =       0.2891966297D-01 E2=     -0.1039362502D+00
 The integrals were generated   1 times.
 ANorm=    0.1112012837D+01
 E2 =    -0.9021695149D+00 EUMP2 =    -0.22984524275917D+03
 Leave Link  906 at Thu Dec 21 16:26:23 2017, MaxMem=  3489660928 cpu:      2972.6
 (Enter /home/michal/g09/l601.exe)
 Copying SCF densities to generalized density rwf, IOpCl= 0 IROHF=0.

 **********************************************************************

            Population analysis using the SCF density.

 **********************************************************************

 Alpha  occ. eigenvalues --  -20.61883 -20.61854 -11.28377 -11.22676  -1.46654
 Alpha  occ. eigenvalues --   -1.22633  -1.00369  -0.84022  -0.71512  -0.66193
 Alpha  occ. eigenvalues --   -0.65030  -0.59826  -0.54190  -0.53253  -0.50067
 Alpha  occ. eigenvalues --   -0.48988  -0.44696
 Alpha virt. eigenvalues --    0.11186   0.13077   0.15741   0.17223   0.18786
 Alpha virt. eigenvalues --    0.20853   0.22879   0.26927   0.27247   0.30159
 Alpha virt. eigenvalues --    0.31227   0.35902   0.37097   0.45014   0.46180
 Alpha virt. eigenvalues --    0.46710   0.48011   0.48682   0.51162   0.52502
 Alpha virt. eigenvalues --    0.54172   0.54546   0.55026   0.59529   0.61378
 Alpha virt. eigenvalues --    0.62714   0.64356   0.66217   0.67987   0.71699
 Alpha virt. eigenvalues --    0.75500   0.76487   0.80625   0.82976   0.85239
 Alpha virt. eigenvalues --    0.86735   0.88560   0.89808   0.93128   0.93605
 Alpha virt. eigenvalues --    0.96927   0.98737   1.00138   1.01478   1.02942
 Alpha virt. eigenvalues --    1.05328   1.09350   1.10538   1.12897   1.13848
 Alpha virt. eigenvalues --    1.14666   1.15730   1.18782   1.19667   1.19831
 Alpha virt. eigenvalues --    1.21649   1.24432   1.29232   1.37887   1.38236
 Alpha virt. eigenvalues --    1.44638   1.48469   1.54081   1.54991   1.59965
 Alpha virt. eigenvalues --    1.61886   1.62649   1.68685   1.71879   1.75170
 Alpha virt. eigenvalues --    1.77040   1.77584   1.81448   1.85219   1.91498
 Alpha virt. eigenvalues --    1.94304   1.95460   1.97941   2.01675   2.03167
 Alpha virt. eigenvalues --    2.05262   2.06837   2.08349   2.08892   2.11955
 Alpha virt. eigenvalues --    2.13607   2.18640   2.20168   2.21367   2.23652
 Alpha virt. eigenvalues --    2.26650   2.27633   2.30444   2.31786   2.33280
 Alpha virt. eigenvalues --    2.34144   2.36989   2.40068   2.40472   2.44664
 Alpha virt. eigenvalues --    2.45270   2.48612   2.50456   2.55645   2.56701
 Alpha virt. eigenvalues --    2.59770   2.63773   2.64773   2.65355   2.66037
 Alpha virt. eigenvalues --    2.68243   2.73439   2.74033   2.76016   2.78125
 Alpha virt. eigenvalues --    2.79725   2.80732   2.83185   2.86071   2.89037
 Alpha virt. eigenvalues --    2.91825   2.92699   2.95452   3.01409   3.04956
 Alpha virt. eigenvalues --    3.07958   3.08823   3.12451   3.14522   3.19367
 Alpha virt. eigenvalues --    3.20990   3.22919   3.25749   3.27528   3.29803
 Alpha virt. eigenvalues --    3.34577   3.36521   3.38906   3.40556   3.43901
 Alpha virt. eigenvalues --    3.44641   3.46467   3.54463   3.55713   3.56519
 Alpha virt. eigenvalues --    3.60267   3.62105   3.68809   3.69141   3.72053
 Alpha virt. eigenvalues --    3.74481   3.77973   3.82229   3.86121   3.86819
 Alpha virt. eigenvalues --    3.94338   3.97905   4.01230   4.05002   4.07867
 Alpha virt. eigenvalues --    4.08702   4.10891   4.14129   4.16757   4.17379
 Alpha virt. eigenvalues --    4.22394   4.24995   4.30799   4.37050   4.40279
 Alpha virt. eigenvalues --    4.43374   4.45552   4.49159   4.52301   4.53465
 Alpha virt. eigenvalues --    4.65020   4.70323   4.76820   4.80555   4.87505
 Alpha virt. eigenvalues --    4.90515   4.99769   5.03610   5.12838   5.34047
 Alpha virt. eigenvalues --    5.41015   5.50701   5.57326   5.60512   5.69447
 Alpha virt. eigenvalues --    5.71290   5.72670   5.74077   5.76744   5.86475
 Alpha virt. eigenvalues --    5.90811   5.99574   6.04834   6.09020   6.10907
 Alpha virt. eigenvalues --    6.12556   6.13782   6.17990   6.20994   6.22558
 Alpha virt. eigenvalues --    6.23068   6.24986   6.29120   6.32655   6.33804
 Alpha virt. eigenvalues --    6.37329   6.40601   6.42812   6.43539   6.44563
 Alpha virt. eigenvalues --    6.48133   6.50576   6.52152   6.52735   6.53438
 Alpha virt. eigenvalues --    6.54819   6.57544   6.60458   6.62305   6.69117
 Alpha virt. eigenvalues --    6.71465   6.75712   6.76142   6.82660   6.84519
 Alpha virt. eigenvalues --    6.86083   6.95460   6.96004   7.04098   7.05707
 Alpha virt. eigenvalues --    7.07082   7.10916   7.12558   7.19914   7.21851
 Alpha virt. eigenvalues --    7.26138   7.29390   7.34088   7.34514   7.37954
 Alpha virt. eigenvalues --    7.41732   7.46863   7.53604   7.56478   7.59475
 Alpha virt. eigenvalues --    7.61612   7.67093   7.77660   7.79021   7.80422
 Alpha virt. eigenvalues --    7.84796   7.85601   7.87450   7.90375   7.94494
 Alpha virt. eigenvalues --    7.97410   8.02356   8.03586   8.05451   8.09839
 Alpha virt. eigenvalues --    8.12363   8.14845   8.15743   8.17040   8.18103
 Alpha virt. eigenvalues --    8.22482   8.25367   8.26131   8.31184   8.31987
 Alpha virt. eigenvalues --    8.33448   8.37442   8.42936   8.45195   8.47502
 Alpha virt. eigenvalues --    8.51909   8.64323   8.64472   8.69178   8.74112
 Alpha virt. eigenvalues --    8.74931   8.75729   8.80692   8.82676   8.83928
 Alpha virt. eigenvalues --    8.85512   8.86375   8.89150   8.92021   8.94955
 Alpha virt. eigenvalues --    8.96597   8.99772   9.01512   9.05476   9.08027
 Alpha virt. eigenvalues --    9.11373   9.16715   9.17858   9.22769   9.26731
 Alpha virt. eigenvalues --    9.28774   9.33721   9.36771   9.37199   9.40783
 Alpha virt. eigenvalues --    9.41492   9.44353   9.50057   9.53754   9.56330
 Alpha virt. eigenvalues --    9.76690   9.80393   9.94787   9.99683  10.10220
 Alpha virt. eigenvalues --   10.12217  10.13044  10.15155  10.23215  10.23837
 Alpha virt. eigenvalues --   10.30990  10.34578  10.38753  10.42527  10.44259
 Alpha virt. eigenvalues --   10.48039  10.52309  10.57770  10.60530  10.65711
 Alpha virt. eigenvalues --   10.68458  10.70030  10.72938  10.77376  10.89222
 Alpha virt. eigenvalues --   10.93274  10.95193  11.01483  11.18047  11.33163
 Alpha virt. eigenvalues --   11.37387  11.47421  11.60990  11.63660  11.65453
 Alpha virt. eigenvalues --   11.73579  11.82287  11.89152  11.93848  11.97530
 Alpha virt. eigenvalues --   12.05998  12.07562  12.26957  12.34865  12.44431
 Alpha virt. eigenvalues --   12.49479  12.58293  12.61651  12.73353  12.76017
 Alpha virt. eigenvalues --   12.80106  12.80875  12.85435  13.11723  13.14661
 Alpha virt. eigenvalues --   13.24343  13.24574  13.58894  13.70877  14.07201
 Alpha virt. eigenvalues --   14.34434  14.37523  15.09059  16.56281  26.23835
 Alpha virt. eigenvalues --   26.99667  42.57888  44.32754
          Condensed to atoms (all electrons):
               1          2          3          4          5          6
     1  C    4.711824   0.368936  -0.039049   0.008369  -0.001459   0.409854
     2  C    0.368936   4.475527   0.306178  -0.051580  -0.001585  -0.033330
     3  O   -0.039049   0.306178   8.021940   0.090708  -0.033798   0.001023
     4  O    0.008369  -0.051580   0.090708   7.922792   0.333579  -0.000071
     5  H   -0.001459  -0.001585  -0.033798   0.333579   0.418799  -0.000015
     6  H    0.409854  -0.033330   0.001023  -0.000071  -0.000015   0.594569
     7  H   -0.037250   0.429949  -0.049463   0.000941  -0.000338   0.008629
     8  H   -0.029644   0.398741  -0.059737   0.003191   0.003907  -0.009948
     9  H    0.411267  -0.034492   0.003192  -0.000373   0.000052  -0.023095
    10  H    0.409700  -0.031019  -0.000670  -0.000200   0.000055  -0.025052
               7          8          9         10
     1  C   -0.037250  -0.029644   0.411267   0.409700
     2  C    0.429949   0.398741  -0.034492  -0.031019
     3  O   -0.049463  -0.059737   0.003192  -0.000670
     4  O    0.000941   0.003191  -0.000373  -0.000200
     5  H   -0.000338   0.003907   0.000052   0.000055
     6  H    0.008629  -0.009948  -0.023095  -0.025052
     7  H    0.679115  -0.072464   0.000261  -0.008055
     8  H   -0.072464   0.727203  -0.001909   0.008921
     9  H    0.000261  -0.001909   0.603286  -0.024281
    10  H   -0.008055   0.008921  -0.024281   0.587793
 Mulliken charges:
               1
     1  C   -0.212547
     2  C    0.172675
     3  O   -0.240325
     4  O   -0.307356
     5  H    0.280802
     6  H    0.077435
     7  H    0.048676
     8  H    0.031740
     9  H    0.066092
    10  H    0.082808
 Sum of Mulliken charges =   0.00000
 Mulliken charges with hydrogens summed into heavy atoms:
               1
     1  C    0.013788
     2  C    0.253091
     3  O   -0.240325
     4  O   -0.026553
 Electronic spatial extent (au):  <R**2>=            971.5048
 Charge=              0.0000 electrons
 Dipole moment (field-independent basis, Debye):
    X=             -1.8946    Y=             -0.0226    Z=             -0.1862  Tot=              1.9038
 Quadrupole moment (field-independent basis, Debye-Ang):
   XX=            -27.3168   YY=            -24.3389   ZZ=            -21.3986
   XY=              2.0976   XZ=              2.1817   YZ=             -2.8710
 Traceless Quadrupole moment (field-independent basis, Debye-Ang):
   XX=             -2.9653   YY=              0.0125   ZZ=              2.9528
   XY=              2.0976   XZ=              2.1817   YZ=             -2.8710
 Octapole moment (field-independent basis, Debye-Ang**2):
  XXX=            -14.8735  YYY=             69.2926  ZZZ=            150.5740  XYY=             -6.3970
  XXY=             26.7428  XXZ=             55.7127  XZZ=             -6.4245  YZZ=             26.1368
  YYZ=             60.1775  XYZ=             -3.5039
 Hexadecapole moment (field-independent basis, Debye-Ang**3):
 XXXX=           -103.6137 YYYY=           -189.9940 ZZZZ=           -938.0846 XXXY=             21.6491
 XXXZ=            -27.4286 YYYX=             21.9791 YYYZ=           -160.6969 ZZZX=            -27.4023
 ZZZY=           -150.2356 XXYY=            -51.4201 XXZZ=           -179.2511 YYZZ=           -201.5198
 XXYZ=            -53.1652 YYXZ=             -3.0088 ZZXY=              8.7406
 N-N= 1.308102195016D+02 E-N=-8.012233896970D+02  KE= 2.285613140855D+02
 Leave Link  601 at Thu Dec 21 16:26:23 2017, MaxMem=  3489660928 cpu:         0.5
 (Enter /home/michal/g09/l9999.exe)
 1\1\GINC-LINUX\SP\RMP2-FC\CC-pVQZ\C2H6O2\MICHAL\21-Dec-2017\0\\#P MP2/
 cc-pVQZ SP Nosymm\\PEscan\\0,1\C,0,-0.56605,-1.01658,-3.68326\C,0,-0.0
 9947,-0.44049,-2.35571\O,0,0.70757,-1.44693,-1.75601\O,0,0.95689,-1.00
 265,-0.38916\H,0,0.48506,-1.71263,0.0777\H,0,-1.1654,-1.92553,-3.51913
 \H,0,0.48327,0.48934,-2.49314\H,0,-0.96036,-0.21453,-1.69988\H,0,-1.18
 246,-0.2763,-4.21797\H,0,0.29611,-1.27582,-4.31788\\Version=EM64L-G09R
 evD.01\HF=-228.9430732\MP2=-229.8452428\RMSD=2.684e-09\PG=C01 [X(C2H6O
 2)]\\@


 WE ARE PERHAPS NOT FAR REMOVED FROM THE TIME WHEN WE SHALL BE ABLE TO SUBMIT
 THE BULK OF CHEMICAL PHENOMENA TO CALCULATION.

            -- JOSEPH LOUIS GAY-LUSSAC
               MEMOIRES DE LA SOCIETE D'ARCUEIL, 2, 207 (1808)
 Job cpu time:       0 days  1 hours  1 minutes 41.5 seconds.
 File lengths (MBytes):  RWF=    699 Int=      0 D2E=      0 Chk=      8 Scr=      1
 Normal termination of Gaussian 09 at Thu Dec 21 16:26:23 2017.
