 Entering Gaussian System, Link 0=g09
 Input=1HPP_ccsdtdz_020.com
 Output=1HPP_ccsdtdz_020.log
 Initial command:
 /home/michal/g09/l1.exe "/home/michal/gauss_scratch/Gau-17575.inp" -scrdir="/home/michal/gauss_scratch/"
 Entering Link 1 = /home/michal/g09/l1.exe PID=     17576.
  
 Copyright (c) 1988,1990,1992,1993,1995,1998,2003,2009,2013,
            Gaussian, Inc.  All Rights Reserved.
  
 This is part of the Gaussian(R) 09 program.  It is based on
 the Gaussian(R) 03 system (copyright 2003, Gaussian, Inc.),
 the Gaussian(R) 98 system (copyright 1998, Gaussian, Inc.),
 the Gaussian(R) 94 system (copyright 1995, Gaussian, Inc.),
 the Gaussian 92(TM) system (copyright 1992, Gaussian, Inc.),
 the Gaussian 90(TM) system (copyright 1990, Gaussian, Inc.),
 the Gaussian 88(TM) system (copyright 1988, Gaussian, Inc.),
 the Gaussian 86(TM) system (copyright 1986, Carnegie Mellon
 University), and the Gaussian 82(TM) system (copyright 1983,
 Carnegie Mellon University). Gaussian is a federally registered
 trademark of Gaussian, Inc.
  
 This software contains proprietary and confidential information,
 including trade secrets, belonging to Gaussian, Inc.
  
 This software is provided under written license and may be
 used, copied, transmitted, or stored only in accord with that
 written license.
  
 The following legend is applicable only to US Government
 contracts under FAR:
  
                    RESTRICTED RIGHTS LEGEND
  
 Use, reproduction and disclosure by the US Government is
 subject to restrictions as set forth in subparagraphs (a)
 and (c) of the Commercial Computer Software - Restricted
 Rights clause in FAR 52.227-19.
  
 Gaussian, Inc.
 340 Quinnipiac St., Bldg. 40, Wallingford CT 06492
  
  
 ---------------------------------------------------------------
 Warning -- This program may not be used in any manner that
 competes with the business of Gaussian, Inc. or will provide
 assistance to any competitor of Gaussian, Inc.  The licensee
 of this program is prohibited from giving any competitor of
 Gaussian, Inc. access to this program.  By using this program,
 the user acknowledges that Gaussian, Inc. is engaged in the
 business of creating and licensing software in the field of
 computational chemistry and represents and warrants to the
 licensee that it is not a competitor of Gaussian, Inc. and that
 it will not use this program in any manner prohibited above.
 ---------------------------------------------------------------
  

 Cite this work as:
 Gaussian 09, Revision D.01,
 M. J. Frisch, G. W. Trucks, H. B. Schlegel, G. E. Scuseria, 
 M. A. Robb, J. R. Cheeseman, G. Scalmani, V. Barone, B. Mennucci, 
 G. A. Petersson, H. Nakatsuji, M. Caricato, X. Li, H. P. Hratchian, 
 A. F. Izmaylov, J. Bloino, G. Zheng, J. L. Sonnenberg, M. Hada, 
 M. Ehara, K. Toyota, R. Fukuda, J. Hasegawa, M. Ishida, T. Nakajima, 
 Y. Honda, O. Kitao, H. Nakai, T. Vreven, J. A. Montgomery, Jr., 
 J. E. Peralta, F. Ogliaro, M. Bearpark, J. J. Heyd, E. Brothers, 
 K. N. Kudin, V. N. Staroverov, T. Keith, R. Kobayashi, J. Normand, 
 K. Raghavachari, A. Rendell, J. C. Burant, S. S. Iyengar, J. Tomasi, 
 M. Cossi, N. Rega, J. M. Millam, M. Klene, J. E. Knox, J. B. Cross, 
 V. Bakken, C. Adamo, J. Jaramillo, R. Gomperts, R. E. Stratmann, 
 O. Yazyev, A. J. Austin, R. Cammi, C. Pomelli, J. W. Ochterski, 
 R. L. Martin, K. Morokuma, V. G. Zakrzewski, G. A. Voth, 
 P. Salvador, J. J. Dannenberg, S. Dapprich, A. D. Daniels, 
 O. Farkas, J. B. Foresman, J. V. Ortiz, J. Cioslowski, 
 and D. J. Fox, Gaussian, Inc., Wallingford CT, 2013.
 
 ******************************************
 Gaussian 09:  EM64L-G09RevD.01 24-Apr-2013
                21-Dec-2017 
 ******************************************
 %Mem=26GB
 %NProc=12
 Will use up to   12 processors via shared memory.
 %RWF=/home/michal/Cholesterol_grant/peroxy_params,20GB
 ----------------------------
 #P CCSD(T)/cc-pVDZ SP Nosymm
 ----------------------------
 1/38=1/1;
 2/12=2,15=1,17=6,18=5,40=1/2;
 3/5=16,11=9,16=1,25=1,30=1/1,2,3;
 4//1;
 5/5=2,38=5/2;
 8/6=4,9=120000,10=1/1,4;
 9/5=7,14=2/13;
 6/7=2,8=2,9=2,10=2/1;
 99/5=1,9=1/99;
 Leave Link    1 at Thu Dec 21 20:25:25 2017, MaxMem=  3489660928 cpu:         0.3
 (Enter /home/michal/g09/l101.exe)
 ------
 PEscan
 ------
 Symbolic Z-matrix:
 Charge =  0 Multiplicity = 1
 C                    -0.64752  -1.10547  -3.29671 
 C                    -0.06432  -0.06867  -2.34912 
 O                     0.37408  -0.55214  -1.06242 
 O                     0.37031  -2.00551  -1.04276 
 H                     1.32976  -2.15777  -1.00889 
 H                    -1.50714  -1.62373  -2.84656 
 H                     0.80008   0.42408  -2.83691 
 H                    -0.81349   0.70951  -2.12186 
 H                    -0.98557  -0.58304  -4.2073 
 H                     0.09897  -1.85938  -3.58189 
 
 NAtoms=     10 NQM=       10 NQMF=       0 NMMI=      0 NMMIF=      0
                NMic=       0 NMicF=      0.
                    Isotopes and Nuclear Properties:
 (Nuclear quadrupole moments (NQMom) in fm**2, nuclear magnetic moments (NMagM)
  in nuclear magnetons)

  Atom         1           2           3           4           5           6           7           8           9          10
 IAtWgt=          12          12          16          16           1           1           1           1           1           1
 AtmWgt=  12.0000000  12.0000000  15.9949146  15.9949146   1.0078250   1.0078250   1.0078250   1.0078250   1.0078250   1.0078250
 NucSpn=           0           0           0           0           1           1           1           1           1           1
 AtZEff=   0.0000000   0.0000000   0.0000000   0.0000000   0.0000000   0.0000000   0.0000000   0.0000000   0.0000000   0.0000000
 NQMom=    0.0000000   0.0000000   0.0000000   0.0000000   0.0000000   0.0000000   0.0000000   0.0000000   0.0000000   0.0000000
 NMagM=    0.0000000   0.0000000   0.0000000   0.0000000   2.7928460   2.7928460   2.7928460   2.7928460   2.7928460   2.7928460
 AtZNuc=   6.0000000   6.0000000   8.0000000   8.0000000   1.0000000   1.0000000   1.0000000   1.0000000   1.0000000   1.0000000
 Leave Link  101 at Thu Dec 21 20:25:25 2017, MaxMem=  3489660928 cpu:         0.5
 (Enter /home/michal/g09/l202.exe)
                          Input orientation:                          
 ---------------------------------------------------------------------
 Center     Atomic      Atomic             Coordinates (Angstroms)
 Number     Number       Type             X           Y           Z
 ---------------------------------------------------------------------
      1          6           0       -0.647520   -1.105470   -3.296710
      2          6           0       -0.064320   -0.068670   -2.349120
      3          8           0        0.374080   -0.552140   -1.062420
      4          8           0        0.370310   -2.005510   -1.042760
      5          1           0        1.329760   -2.157770   -1.008890
      6          1           0       -1.507140   -1.623730   -2.846560
      7          1           0        0.800080    0.424080   -2.836910
      8          1           0       -0.813490    0.709510   -2.121860
      9          1           0       -0.985570   -0.583040   -4.207300
     10          1           0        0.098970   -1.859380   -3.581890
 ---------------------------------------------------------------------
                    Distance matrix (angstroms):
                    1          2          3          4          5
     1  C    0.000000
     2  C    1.520856   0.000000
     3  O    2.518311   1.442752   0.000000
     4  O    2.631794   2.376306   1.453508   0.000000
     5  H    3.201733   2.846755   1.869288   0.972047   0.000000
     6  H    1.100080   2.178850   2.805432   2.631401   3.422022
     7  H    2.155571   1.108120   2.069613   3.050669   3.207517
     8  H    2.168403   1.103842   2.030886   3.152328   3.748802
     9  H    1.102898   2.136846   3.426350   3.725070   4.250924
    10  H    1.098615   2.180144   2.851717   2.557765   2.867788
                    6          7          8          9         10
     6  H    0.000000
     7  H    3.084945   0.000000
     8  H    2.539754   1.787841   0.000000
     9  H    1.790722   2.465929   2.459544   0.000000
    10  H    1.782086   2.502147   3.092486   1.787850   0.000000
 Symmetry turned off by external request.
 Stoichiometry    C2H6O2
 Framework group  C1[X(C2H6O2)]
 Deg. of freedom    24
 Full point group                 C1      NOp   1
 Rotational constants (GHZ):     13.6909242      6.3068764      4.6406472
 Leave Link  202 at Thu Dec 21 20:25:25 2017, MaxMem=  3489660928 cpu:         0.0
 (Enter /home/michal/g09/l301.exe)
 Standard basis: CC-pVDZ (5D, 7F)
 Ernie: Thresh=  0.10000D-02 Tol=  0.10000D-05 Strict=F.
 Ernie:  8 primitive shells out of 118 were deleted.
    86 basis functions,   174 primitive gaussians,    90 cartesian basis functions
    17 alpha electrons       17 beta electrons
       nuclear repulsion energy       132.9557757136 Hartrees.
 IExCor=    0 DFT=F Ex=HF Corr=None ExCW=0 ScaHFX=  1.000000
 ScaDFX=  1.000000  1.000000  1.000000  1.000000 ScalE2=  1.000000  1.000000
 IRadAn=      0 IRanWt=     -1 IRanGd=            0 ICorTp=0 IEmpDi=  4
 NAtoms=   10 NActive=   10 NUniq=   10 SFac= 1.00D+00 NAtFMM=   60 NAOKFM=F Big=F
 Integral buffers will be    131072 words long.
 Raffenetti 1 integral format.
 Two-electron integral symmetry is turned off.
 Leave Link  301 at Thu Dec 21 20:25:25 2017, MaxMem=  3489660928 cpu:         0.3
 (Enter /home/michal/g09/l302.exe)
 NPDir=0 NMtPBC=     1 NCelOv=     1 NCel=       1 NClECP=     1 NCelD=      1
         NCelK=      1 NCelE2=     1 NClLst=     1 CellRange=     0.0.
 One-electron integrals computed using PRISM.
 NBasis=    86 RedAO= T EigKep=  6.21D-03  NBF=    86
 NBsUse=    86 1.00D-06 EigRej= -1.00D+00 NBFU=    86
 Leave Link  302 at Thu Dec 21 20:25:25 2017, MaxMem=  3489660928 cpu:         1.6
 (Enter /home/michal/g09/l303.exe)
 DipDrv:  MaxL=1.
 Leave Link  303 at Thu Dec 21 20:25:25 2017, MaxMem=  3489660928 cpu:         0.2
 (Enter /home/michal/g09/l401.exe)
 ExpMin= 1.22D-01 ExpMax= 1.17D+04 ExpMxC= 4.01D+02 IAcc=1 IRadAn=         1 AccDes= 0.00D+00
 Harris functional with IExCor=  205 and IRadAn=       1 diagonalized for initial guess.
 HarFok:  IExCor=  205 AccDes= 0.00D+00 IRadAn=         1 IDoV= 1 UseB2=F ITyADJ=14
 ICtDFT=  3500011 ScaDFX=  1.000000  1.000000  1.000000  1.000000
 FoFCou: FMM=F IPFlag=           0 FMFlag=      100000 FMFlg1=           0
         NFxFlg=           0 DoJE=T BraDBF=F KetDBF=T FulRan=T
         wScrn=  0.000000 ICntrl=     500 IOpCl=  0 I1Cent=   200000004 NGrid=           0
         NMat0=    1 NMatS0=      1 NMatT0=    0 NMatD0=    1 NMtDS0=    0 NMtDT0=    0
 Symmetry not used in FoFCou.
 Harris En= -229.123624172850    
 JPrj=0 DoOrth=F DoCkMO=F.
 Leave Link  401 at Thu Dec 21 20:25:25 2017, MaxMem=  3489660928 cpu:         1.9
 (Enter /home/michal/g09/l502.exe)
 Closed shell SCF:
 Using DIIS extrapolation, IDIIS=  1040.
 Two-electron integral symmetry not used.
 Keep R1 ints in memory in canonical form, NReq=7944578.
 IVT=       44490 IEndB=       44490 NGot=  3489660928 MDV=  3482617028
 LenX=  3482617028 LenY=  3482608487
 Requested convergence on RMS density matrix=1.00D-08 within 128 cycles.
 Requested convergence on MAX density matrix=1.00D-06.
 Requested convergence on             energy=1.00D-06.
 No special actions if energy rises.
 FoFCou: FMM=F IPFlag=           0 FMFlag=           0 FMFlg1=           0
         NFxFlg=           0 DoJE=F BraDBF=F KetDBF=F FulRan=T
         wScrn=  0.000000 ICntrl=     600 IOpCl=  0 I1Cent=           0 NGrid=           0
         NMat0=    1 NMatS0=   3741 NMatT0=    0 NMatD0=    1 NMtDS0=    0 NMtDT0=    0
 Symmetry not used in FoFCou.

 Cycle   1  Pass 1  IDiag  1:
 E= -228.686160818501    
 DIIS: error= 3.73D-02 at cycle   1 NSaved=   1.
 NSaved= 1 IEnMin= 1 EnMin= -228.686160818501     IErMin= 1 ErrMin= 3.73D-02
 ErrMax= 3.73D-02  0.00D+00 EMaxC= 1.00D-01 BMatC= 2.04D-01 BMatP= 2.04D-01
 IDIUse=3 WtCom= 6.27D-01 WtEn= 3.73D-01
 Coeff-Com:  0.100D+01
 Coeff-En:   0.100D+01
 Coeff:      0.100D+01
 Gap=     0.707 Goal=   None    Shift=    0.000
 GapD=    0.707 DampG=2.000 DampE=0.500 DampFc=1.0000 IDamp=-1.
 RMSDP=4.90D-03 MaxDP=1.09D-01              OVMax= 1.25D-01

 Cycle   2  Pass 1  IDiag  1:
 E= -228.821514133266     Delta-E=       -0.135353314765 Rises=F Damp=F
 DIIS: error= 1.71D-02 at cycle   2 NSaved=   2.
 NSaved= 2 IEnMin= 2 EnMin= -228.821514133266     IErMin= 2 ErrMin= 1.71D-02
 ErrMax= 1.71D-02  0.00D+00 EMaxC= 1.00D-01 BMatC= 2.70D-02 BMatP= 2.04D-01
 IDIUse=3 WtCom= 8.29D-01 WtEn= 1.71D-01
 Coeff-Com:  0.213D+00 0.787D+00
 Coeff-En:   0.000D+00 0.100D+01
 Coeff:      0.177D+00 0.823D+00
 Gap=     0.663 Goal=   None    Shift=    0.000
 RMSDP=1.59D-03 MaxDP=3.04D-02 DE=-1.35D-01 OVMax= 3.62D-02

 Cycle   3  Pass 1  IDiag  1:
 E= -228.844419122571     Delta-E=       -0.022904989305 Rises=F Damp=F
 DIIS: error= 3.45D-03 at cycle   3 NSaved=   3.
 NSaved= 3 IEnMin= 3 EnMin= -228.844419122571     IErMin= 3 ErrMin= 3.45D-03
 ErrMax= 3.45D-03  0.00D+00 EMaxC= 1.00D-01 BMatC= 1.82D-03 BMatP= 2.70D-02
 IDIUse=3 WtCom= 9.66D-01 WtEn= 3.45D-02
 Coeff-Com: -0.145D-01 0.163D+00 0.852D+00
 Coeff-En:   0.000D+00 0.000D+00 0.100D+01
 Coeff:     -0.140D-01 0.157D+00 0.857D+00
 Gap=     0.607 Goal=   None    Shift=    0.000
 RMSDP=3.93D-04 MaxDP=7.70D-03 DE=-2.29D-02 OVMax= 9.43D-03

 Cycle   4  Pass 1  IDiag  1:
 E= -228.845990431696     Delta-E=       -0.001571309125 Rises=F Damp=F
 DIIS: error= 1.01D-03 at cycle   4 NSaved=   4.
 NSaved= 4 IEnMin= 4 EnMin= -228.845990431696     IErMin= 4 ErrMin= 1.01D-03
 ErrMax= 1.01D-03  0.00D+00 EMaxC= 1.00D-01 BMatC= 1.94D-04 BMatP= 1.82D-03
 IDIUse=3 WtCom= 9.90D-01 WtEn= 1.01D-02
 Coeff-Com: -0.124D-01 0.204D-01 0.291D+00 0.701D+00
 Coeff-En:   0.000D+00 0.000D+00 0.000D+00 0.100D+01
 Coeff:     -0.123D-01 0.201D-01 0.288D+00 0.705D+00
 Gap=     0.602 Goal=   None    Shift=    0.000
 RMSDP=1.12D-04 MaxDP=2.88D-03 DE=-1.57D-03 OVMax= 2.91D-03

 Cycle   5  Pass 1  IDiag  1:
 E= -228.846143823526     Delta-E=       -0.000153391830 Rises=F Damp=F
 DIIS: error= 2.80D-04 at cycle   5 NSaved=   5.
 NSaved= 5 IEnMin= 5 EnMin= -228.846143823526     IErMin= 5 ErrMin= 2.80D-04
 ErrMax= 2.80D-04  0.00D+00 EMaxC= 1.00D-01 BMatC= 8.39D-06 BMatP= 1.94D-04
 IDIUse=3 WtCom= 9.97D-01 WtEn= 2.80D-03
 Coeff-Com:  0.656D-03-0.175D-01-0.740D-01 0.308D-01 0.106D+01
 Coeff-En:   0.000D+00 0.000D+00 0.000D+00 0.000D+00 0.100D+01
 Coeff:      0.654D-03-0.175D-01-0.738D-01 0.307D-01 0.106D+01
 Gap=     0.602 Goal=   None    Shift=    0.000
 RMSDP=4.86D-05 MaxDP=6.09D-04 DE=-1.53D-04 OVMax= 1.63D-03

 Cycle   6  Pass 1  IDiag  1:
 E= -228.846158806896     Delta-E=       -0.000014983370 Rises=F Damp=F
 DIIS: error= 4.44D-05 at cycle   6 NSaved=   6.
 NSaved= 6 IEnMin= 6 EnMin= -228.846158806896     IErMin= 6 ErrMin= 4.44D-05
 ErrMax= 4.44D-05  0.00D+00 EMaxC= 1.00D-01 BMatC= 4.70D-07 BMatP= 8.39D-06
 IDIUse=1 WtCom= 1.00D+00 WtEn= 0.00D+00
 Coeff-Com:  0.787D-03-0.175D-02-0.177D-01-0.453D-01 0.101D-01 0.105D+01
 Coeff:      0.787D-03-0.175D-02-0.177D-01-0.453D-01 0.101D-01 0.105D+01
 Gap=     0.602 Goal=   None    Shift=    0.000
 RMSDP=1.50D-05 MaxDP=2.02D-04 DE=-1.50D-05 OVMax= 4.70D-04

 Cycle   7  Pass 1  IDiag  1:
 E= -228.846159961130     Delta-E=       -0.000001154234 Rises=F Damp=F
 DIIS: error= 2.13D-05 at cycle   7 NSaved=   7.
 NSaved= 7 IEnMin= 7 EnMin= -228.846159961130     IErMin= 7 ErrMin= 2.13D-05
 ErrMax= 2.13D-05  0.00D+00 EMaxC= 1.00D-01 BMatC= 5.83D-08 BMatP= 4.70D-07
 IDIUse=1 WtCom= 1.00D+00 WtEn= 0.00D+00
 Coeff-Com: -0.461D-04 0.112D-02 0.512D-02-0.473D-03-0.635D-01-0.791D-01
 Coeff-Com:  0.114D+01
 Coeff:     -0.461D-04 0.112D-02 0.512D-02-0.473D-03-0.635D-01-0.791D-01
 Coeff:      0.114D+01
 Gap=     0.602 Goal=   None    Shift=    0.000
 RMSDP=5.75D-06 MaxDP=7.72D-05 DE=-1.15D-06 OVMax= 1.95D-04

 Cycle   8  Pass 1  IDiag  1:
 E= -228.846160139711     Delta-E=       -0.000000178581 Rises=F Damp=F
 DIIS: error= 1.10D-05 at cycle   8 NSaved=   8.
 NSaved= 8 IEnMin= 8 EnMin= -228.846160139711     IErMin= 8 ErrMin= 1.10D-05
 ErrMax= 1.10D-05  0.00D+00 EMaxC= 1.00D-01 BMatC= 1.32D-08 BMatP= 5.83D-08
 IDIUse=1 WtCom= 1.00D+00 WtEn= 0.00D+00
 Coeff-Com: -0.146D-03 0.434D-03 0.371D-02 0.863D-02-0.415D-02-0.209D+00
 Coeff-Com:  0.110D+00 0.109D+01
 Coeff:     -0.146D-03 0.434D-03 0.371D-02 0.863D-02-0.415D-02-0.209D+00
 Coeff:      0.110D+00 0.109D+01
 Gap=     0.602 Goal=   None    Shift=    0.000
 RMSDP=3.00D-06 MaxDP=5.25D-05 DE=-1.79D-07 OVMax= 1.03D-04

 Cycle   9  Pass 1  IDiag  1:
 E= -228.846160184586     Delta-E=       -0.000000044875 Rises=F Damp=F
 DIIS: error= 4.84D-06 at cycle   9 NSaved=   9.
 NSaved= 9 IEnMin= 9 EnMin= -228.846160184586     IErMin= 9 ErrMin= 4.84D-06
 ErrMax= 4.84D-06  0.00D+00 EMaxC= 1.00D-01 BMatC= 1.85D-09 BMatP= 1.32D-08
 IDIUse=1 WtCom= 1.00D+00 WtEn= 0.00D+00
 Coeff-Com:  0.535D-04-0.279D-03-0.200D-02-0.278D-02 0.114D-01 0.807D-01
 Coeff-Com: -0.215D+00-0.354D+00 0.148D+01
 Coeff:      0.535D-04-0.279D-03-0.200D-02-0.278D-02 0.114D-01 0.807D-01
 Coeff:     -0.215D+00-0.354D+00 0.148D+01
 Gap=     0.602 Goal=   None    Shift=    0.000
 RMSDP=1.65D-06 MaxDP=3.51D-05 DE=-4.49D-08 OVMax= 5.52D-05

 Cycle  10  Pass 1  IDiag  1:
 E= -228.846160193725     Delta-E=       -0.000000009140 Rises=F Damp=F
 DIIS: error= 1.26D-06 at cycle  10 NSaved=  10.
 NSaved=10 IEnMin=10 EnMin= -228.846160193725     IErMin=10 ErrMin= 1.26D-06
 ErrMax= 1.26D-06  0.00D+00 EMaxC= 1.00D-01 BMatC= 1.97D-10 BMatP= 1.85D-09
 IDIUse=1 WtCom= 1.00D+00 WtEn= 0.00D+00
 Coeff-Com:  0.926D-06 0.221D-04 0.116D-03-0.146D-03-0.238D-02-0.420D-04
 Coeff-Com:  0.449D-01-0.244D-01-0.381D+00 0.136D+01
 Coeff:      0.926D-06 0.221D-04 0.116D-03-0.146D-03-0.238D-02-0.420D-04
 Coeff:      0.449D-01-0.244D-01-0.381D+00 0.136D+01
 Gap=     0.602 Goal=   None    Shift=    0.000
 RMSDP=5.19D-07 MaxDP=1.15D-05 DE=-9.14D-09 OVMax= 1.97D-05

 Cycle  11  Pass 1  IDiag  1:
 E= -228.846160194670     Delta-E=       -0.000000000944 Rises=F Damp=F
 DIIS: error= 4.62D-07 at cycle  11 NSaved=  11.
 NSaved=11 IEnMin=11 EnMin= -228.846160194670     IErMin=11 ErrMin= 4.62D-07
 ErrMax= 4.62D-07  0.00D+00 EMaxC= 1.00D-01 BMatC= 2.83D-11 BMatP= 1.97D-10
 IDIUse=1 WtCom= 1.00D+00 WtEn= 0.00D+00
 Coeff-Com: -0.727D-05 0.404D-04 0.299D-03 0.427D-03-0.157D-02-0.133D-01
 Coeff-Com:  0.339D-01 0.560D-01-0.222D+00-0.534D-01 0.120D+01
 Coeff:     -0.727D-05 0.404D-04 0.299D-03 0.427D-03-0.157D-02-0.133D-01
 Coeff:      0.339D-01 0.560D-01-0.222D+00-0.534D-01 0.120D+01
 Gap=     0.602 Goal=   None    Shift=    0.000
 RMSDP=1.83D-07 MaxDP=3.62D-06 DE=-9.44D-10 OVMax= 7.21D-06

 Cycle  12  Pass 1  IDiag  1:
 E= -228.846160194783     Delta-E=       -0.000000000113 Rises=F Damp=F
 DIIS: error= 1.25D-07 at cycle  12 NSaved=  12.
 NSaved=12 IEnMin=12 EnMin= -228.846160194783     IErMin=12 ErrMin= 1.25D-07
 ErrMax= 1.25D-07  0.00D+00 EMaxC= 1.00D-01 BMatC= 2.50D-12 BMatP= 2.83D-11
 IDIUse=1 WtCom= 1.00D+00 WtEn= 0.00D+00
 Coeff-Com: -0.363D-06-0.244D-05-0.454D-05 0.295D-04 0.291D-03-0.572D-03
 Coeff-Com: -0.400D-02 0.463D-02 0.403D-01-0.168D+00 0.282D-01 0.110D+01
 Coeff:     -0.363D-06-0.244D-05-0.454D-05 0.295D-04 0.291D-03-0.572D-03
 Coeff:     -0.400D-02 0.463D-02 0.403D-01-0.168D+00 0.282D-01 0.110D+01
 Gap=     0.602 Goal=   None    Shift=    0.000
 RMSDP=4.71D-08 MaxDP=8.90D-07 DE=-1.13D-10 OVMax= 1.92D-06

 Cycle  13  Pass 1  IDiag  1:
 E= -228.846160194792     Delta-E=       -0.000000000009 Rises=F Damp=F
 DIIS: error= 4.16D-08 at cycle  13 NSaved=  13.
 NSaved=13 IEnMin=13 EnMin= -228.846160194792     IErMin=13 ErrMin= 4.16D-08
 ErrMax= 4.16D-08  0.00D+00 EMaxC= 1.00D-01 BMatC= 2.54D-13 BMatP= 2.50D-12
 IDIUse=1 WtCom= 1.00D+00 WtEn= 0.00D+00
 Coeff-Com:  0.703D-06-0.228D-05-0.205D-04-0.534D-04 0.910D-05 0.133D-02
 Coeff-Com: -0.105D-02-0.703D-02 0.211D-02 0.728D-01-0.105D+00-0.461D+00
 Coeff-Com:  0.150D+01
 Coeff:      0.703D-06-0.228D-05-0.205D-04-0.534D-04 0.910D-05 0.133D-02
 Coeff:     -0.105D-02-0.703D-02 0.211D-02 0.728D-01-0.105D+00-0.461D+00
 Coeff:      0.150D+01
 Gap=     0.602 Goal=   None    Shift=    0.000
 RMSDP=1.64D-08 MaxDP=3.71D-07 DE=-8.87D-12 OVMax= 6.69D-07

 Cycle  14  Pass 1  IDiag  1:
 E= -228.846160194793     Delta-E=       -0.000000000001 Rises=F Damp=F
 DIIS: error= 1.57D-08 at cycle  14 NSaved=  14.
 NSaved=14 IEnMin=14 EnMin= -228.846160194793     IErMin=14 ErrMin= 1.57D-08
 ErrMax= 1.57D-08  0.00D+00 EMaxC= 1.00D-01 BMatC= 2.40D-14 BMatP= 2.54D-13
 IDIUse=1 WtCom= 1.00D+00 WtEn= 0.00D+00
 Coeff-Com: -0.232D-06 0.117D-05 0.843D-05 0.152D-04-0.372D-04-0.412D-03
 Coeff-Com:  0.774D-03 0.198D-02-0.475D-02-0.919D-02 0.354D-01 0.486D-01
 Coeff-Com: -0.498D+00 0.143D+01
 Coeff:     -0.232D-06 0.117D-05 0.843D-05 0.152D-04-0.372D-04-0.412D-03
 Coeff:      0.774D-03 0.198D-02-0.475D-02-0.919D-02 0.354D-01 0.486D-01
 Coeff:     -0.498D+00 0.143D+01
 Gap=     0.602 Goal=   None    Shift=    0.000
 RMSDP=5.39D-09 MaxDP=1.22D-07 DE=-1.25D-12 OVMax= 2.11D-07

 SCF Done:  E(RHF) =  -228.846160195     A.U. after   14 cycles
            NFock= 14  Conv=0.54D-08     -V/T= 2.0014
 KE= 2.285260152159D+02 PE=-8.054193288150D+02 EE= 2.150913776907D+02
 Leave Link  502 at Thu Dec 21 20:25:26 2017, MaxMem=  3489660928 cpu:         3.7
 (Enter /home/michal/g09/l801.exe)
 Windowed orbitals will be sorted by symmetry type.
 ExpMin= 1.22D-01 ExpMax= 1.17D+04 ExpMxC= 4.01D+02 IAcc=3 IRadAn=         5 AccDes= 0.00D+00
 HarFok:  IExCor=  205 AccDes= 0.00D+00 IRadAn=         5 IDoV=-2 UseB2=F ITyADJ=14
 ICtDFT= 12500011 ScaDFX=  1.000000  1.000000  1.000000  1.000000
 Largest valence mixing into a core orbital is  1.07D-04
 Largest core mixing into a valence orbital is  4.38D-05
 Range of M.O.s used for correlation:     5    86
 NBasis=    86 NAE=    17 NBE=    17 NFC=     4 NFV=     0
 NROrb=     82 NOA=    13 NOB=    13 NVA=    69 NVB=    69
 Leave Link  801 at Thu Dec 21 20:25:26 2017, MaxMem=  3489660928 cpu:         0.7
 (Enter /home/michal/g09/l804.exe)
 Closed-shell transformation, MDV=  3489660928 ITran=4 ISComp=1.
 Semi-Direct transformation.
 ModeAB=           2 MOrb=            13 LenV=    3489330521
 LASXX=      3165006 LTotXX=     3165006 LenRXX=     3165006
 LTotAB=     3280537 MaxLAS=     4365270 LenRXY=     4365270
 NonZer=     6330012 LenScr=    10221568 LnRSAI=           0
 LnScr1=           0 LExtra=      494080 Total=     18245924
 MaxDsk=  2684354560 SrtSym=           F ITran=            4
 DoSDTr:  NPSUse= 12
 JobTyp=0 Pass  1:  I=   1 to  13.
 (rs|ai) integrals will be sorted in core.
 Complete sort for first half transformation.
 First half transformation complete.
 Begin second half transformation for I=  10.
 Begin second half transformation for I=  10.
 Complete sort for second half transformation.
 Second half transformation complete.
 Spin components of T(2) and E(2):
     alpha-alpha T2 =       0.2432686530D-01 E2=     -0.8147019204D-01
     alpha-beta  T2 =       0.1528254581D+00 E2=     -0.5073221563D+00
     beta-beta   T2 =       0.2432686530D-01 E2=     -0.8147019204D-01
 ANorm=    0.1096120061D+01
 E2 =    -0.6702625404D+00 EUMP2 =    -0.22951642273520D+03
 Leave Link  804 at Thu Dec 21 20:25:27 2017, MaxMem=  3489660928 cpu:        12.3
 (Enter /home/michal/g09/l913.exe)
 CIDS:  MDV=  3489660928.
 Frozen-core window:  NFC=   4 NFV=   0.
 IFCWin=0 IBDFC=1 NFBD=     0     0 NFCmp=     0     0 NFFFC=     0     0
 Using DD3R+UMP44R for 1st iteration, S=T.
 Using DD4RQ for 2nd and later iterations.
 Keep R2 and R3 ints in memory in canonical form, NReq=14820214.
 FoFCou: FMM=F IPFlag=           0 FMFlag=           0 FMFlg1=           0
         NFxFlg=           0 DoJE=F BraDBF=F KetDBF=F FulRan=T
         wScrn=  0.000000 ICntrl=     600 IOpCl=  0 I1Cent=           0 NGrid=           0
         NMat0=    1 NMatS0=   3741 NMatT0=    0 NMatD0=    1 NMtDS0=    0 NMtDT0=    0
 Symmetry not used in FoFCou.
 CCSD(T)
 =======
 Iterations=  50 Convergence= 0.100D-06
 Iteration Nr.   1
 **********************
 DD1Dir will call FoFMem   1 times, MxPair=       182
 NAB=    91 NAA=     0 NBB=     0.
 MP4(R+Q)=  0.12066102D-01
 Maximum subspace dimension=  5
 Norm of the A-vectors is  1.1198858D+00 conv= 1.00D-05.
 RLE energy=       -0.6896656320
 E3=       -0.30979143D-01        EUMP3=      -0.22954740188D+03
 E4(DQ)=   -0.47379535D-02        UMP4(DQ)=   -0.22955213983D+03
 E4(SDQ)=  -0.10108141D-01        UMP4(SDQ)=  -0.22955751002D+03
 VARIATIONAL ENERGIES WITH THE FIRST-ORDER WAVEFUNCTION:
 DE(Corr)= -0.68911975     E(Corr)=     -229.53527994    
 NORM(A)=   0.11045441D+01
 Iteration Nr.   2
 **********************
 DD1Dir will call FoFMem   1 times, MxPair=       182
 NAB=    91 NAA=     0 NBB=     0.
 Norm of the A-vectors is  3.7170228D-01 conv= 1.00D-05.
 RLE energy=       -0.7104589229
 DE(Corr)= -0.70738694     E(CORR)=     -229.55354713     Delta=-1.83D-02
 NORM(A)=   0.11132471D+01
 Iteration Nr.   3
 **********************
 DD1Dir will call FoFMem   1 times, MxPair=       182
 NAB=    91 NAA=     0 NBB=     0.
 Norm of the A-vectors is  1.0976832D-01 conv= 1.00D-05.
 RLE energy=       -0.7115137789
 DE(Corr)= -0.71010309     E(CORR)=     -229.55626328     Delta=-2.72D-03
 NORM(A)=   0.11149653D+01
 Iteration Nr.   4
 **********************
 DD1Dir will call FoFMem   1 times, MxPair=       182
 NAB=    91 NAA=     0 NBB=     0.
 Norm of the A-vectors is  3.8933021D-02 conv= 1.00D-05.
 RLE energy=       -0.7117516649
 DE(Corr)= -0.71162373     E(CORR)=     -229.55778392     Delta=-1.52D-03
 NORM(A)=   0.11153948D+01
 Iteration Nr.   5
 **********************
 DD1Dir will call FoFMem   1 times, MxPair=       182
 NAB=    91 NAA=     0 NBB=     0.
 Norm of the A-vectors is  1.0583406D-02 conv= 1.00D-05.
 RLE energy=       -0.7118118965
 DE(Corr)= -0.71177079     E(CORR)=     -229.55793099     Delta=-1.47D-04
 NORM(A)=   0.11155206D+01
 Iteration Nr.   6
 **********************
 DD1Dir will call FoFMem   1 times, MxPair=       182
 NAB=    91 NAA=     0 NBB=     0.
 Norm of the A-vectors is  4.9602794D-03 conv= 1.00D-05.
 RLE energy=       -0.7117696708
 DE(Corr)= -0.71179251     E(CORR)=     -229.55795271     Delta=-2.17D-05
 NORM(A)=   0.11155293D+01
 Iteration Nr.   7
 **********************
 DD1Dir will call FoFMem   1 times, MxPair=       182
 NAB=    91 NAA=     0 NBB=     0.
 Norm of the A-vectors is  2.1772056D-03 conv= 1.00D-05.
 RLE energy=       -0.7117873587
 DE(Corr)= -0.71179257     E(CORR)=     -229.55795276     Delta=-5.30D-08
 NORM(A)=   0.11155421D+01
 Iteration Nr.   8
 **********************
 DD1Dir will call FoFMem   1 times, MxPair=       182
 NAB=    91 NAA=     0 NBB=     0.
 Norm of the A-vectors is  1.0035604D-03 conv= 1.00D-05.
 RLE energy=       -0.7117863215
 DE(Corr)= -0.71178847     E(CORR)=     -229.55794866     Delta= 4.10D-06
 NORM(A)=   0.11155448D+01
 Iteration Nr.   9
 **********************
 DD1Dir will call FoFMem   1 times, MxPair=       182
 NAB=    91 NAA=     0 NBB=     0.
 Norm of the A-vectors is  5.2439713D-04 conv= 1.00D-05.
 RLE energy=       -0.7117907574
 DE(Corr)= -0.71179068     E(CORR)=     -229.55795088     Delta=-2.21D-06
 NORM(A)=   0.11155468D+01
 Iteration Nr.  10
 **********************
 DD1Dir will call FoFMem   1 times, MxPair=       182
 NAB=    91 NAA=     0 NBB=     0.
 Norm of the A-vectors is  3.1072597D-04 conv= 1.00D-05.
 RLE energy=       -0.7117916361
 DE(Corr)= -0.71179087     E(CORR)=     -229.55795107     Delta=-1.91D-07
 NORM(A)=   0.11155479D+01
 Iteration Nr.  11
 **********************
 DD1Dir will call FoFMem   1 times, MxPair=       182
 NAB=    91 NAA=     0 NBB=     0.
 Norm of the A-vectors is  1.6367619D-04 conv= 1.00D-05.
 RLE energy=       -0.7117918875
 DE(Corr)= -0.71179171     E(CORR)=     -229.55795190     Delta=-8.37D-07
 NORM(A)=   0.11155483D+01
 Iteration Nr.  12
 **********************
 DD1Dir will call FoFMem   1 times, MxPair=       182
 NAB=    91 NAA=     0 NBB=     0.
 Norm of the A-vectors is  7.1586840D-05 conv= 1.00D-05.
 RLE energy=       -0.7117920873
 DE(Corr)= -0.71179196     E(CORR)=     -229.55795215     Delta=-2.51D-07
 NORM(A)=   0.11155487D+01
 Iteration Nr.  13
 **********************
 DD1Dir will call FoFMem   1 times, MxPair=       182
 NAB=    91 NAA=     0 NBB=     0.
 Norm of the A-vectors is  3.5014456D-05 conv= 1.00D-05.
 RLE energy=       -0.7117921041
 DE(Corr)= -0.71179207     E(CORR)=     -229.55795227     Delta=-1.12D-07
 NORM(A)=   0.11155488D+01
 Iteration Nr.  14
 **********************
 DD1Dir will call FoFMem   1 times, MxPair=       182
 NAB=    91 NAA=     0 NBB=     0.
 Norm of the A-vectors is  1.4162980D-05 conv= 1.00D-05.
 RLE energy=       -0.7117921202
 DE(Corr)= -0.71179211     E(CORR)=     -229.55795230     Delta=-3.58D-08
 NORM(A)=   0.11155489D+01
 Iteration Nr.  15
 **********************
 DD1Dir will call FoFMem   1 times, MxPair=       182
 NAB=    91 NAA=     0 NBB=     0.
 Norm of the A-vectors is  8.3276918D-06 conv= 1.00D-05.
 RLE energy=       -0.7117921325
 DE(Corr)= -0.71179213     E(CORR)=     -229.55795232     Delta=-1.80D-08
 NORM(A)=   0.11155490D+01
 CI/CC converged in   15 iterations to DelEn=-1.80D-08 Conv= 1.00D-07 ErrA1= 8.33D-06 Conv= 1.00D-05
 Largest amplitude= 1.84D-02
 T4(AAA)= -0.44985554D-03
 T4(AAB)= -0.97686632D-02
 T5(AAA)=  0.25201824D-04
 T5(AAB)=  0.35336735D-03
 Time for triples=      123.04 seconds.
 T4(CCSD)= -0.20437037D-01
 T5(CCSD)=  0.75713834D-03
 CCSD(T)= -0.22957763222D+03
 Discarding MO integrals.
 Leave Link  913 at Thu Dec 21 20:26:25 2017, MaxMem=  3489660928 cpu:       693.2
 (Enter /home/michal/g09/l601.exe)
 Copying SCF densities to generalized density rwf, IOpCl= 0 IROHF=0.

 **********************************************************************

            Population analysis using the SCF density.

 **********************************************************************

 Alpha  occ. eigenvalues --  -20.61860 -20.61213 -11.28876 -11.23192  -1.46167
 Alpha  occ. eigenvalues --   -1.21738  -1.00983  -0.83240  -0.70584  -0.66242
 Alpha  occ. eigenvalues --   -0.64107  -0.59163  -0.53672  -0.52966  -0.50749
 Alpha  occ. eigenvalues --   -0.47442  -0.43334
 Alpha virt. eigenvalues --    0.16887   0.21308   0.23373   0.24470   0.26079
 Alpha virt. eigenvalues --    0.26393   0.28571   0.36033   0.42807   0.59160
 Alpha virt. eigenvalues --    0.61974   0.67734   0.74061   0.75367   0.80822
 Alpha virt. eigenvalues --    0.82745   0.86265   0.88285   0.88779   0.89276
 Alpha virt. eigenvalues --    0.92942   1.10529   1.12020   1.12559   1.19344
 Alpha virt. eigenvalues --    1.21983   1.30465   1.32666   1.36168   1.43222
 Alpha virt. eigenvalues --    1.45466   1.53568   1.57004   1.66817   1.68337
 Alpha virt. eigenvalues --    1.73030   1.81708   1.86694   1.86961   1.89800
 Alpha virt. eigenvalues --    1.92037   1.93982   1.95571   1.97393   2.01642
 Alpha virt. eigenvalues --    2.16160   2.19900   2.23360   2.29944   2.38185
 Alpha virt. eigenvalues --    2.41549   2.44217   2.50212   2.53893   2.71547
 Alpha virt. eigenvalues --    2.71696   2.73965   2.80398   2.83252   2.86573
 Alpha virt. eigenvalues --    2.92062   2.98792   3.26402   3.33074   3.43563
 Alpha virt. eigenvalues --    3.49129   3.61577   3.93841   4.22643
          Condensed to atoms (all electrons):
               1          2          3          4          5          6
     1  C    4.539633   0.433658  -0.031656  -0.009521  -0.000528   0.406742
     2  C    0.433658   4.418933   0.268598  -0.059160   0.003459  -0.024900
     3  O   -0.031656   0.268598   8.058224   0.118808  -0.030702  -0.000375
     4  O   -0.009521  -0.059160   0.118808   7.782983   0.344636   0.001270
     5  H   -0.000528   0.003459  -0.030702   0.344636   0.480657  -0.000085
     6  H    0.406742  -0.024900  -0.000375   0.001270  -0.000085   0.609522
     7  H   -0.035063   0.405430  -0.031407   0.002036   0.000223   0.007399
     8  H   -0.024791   0.409581  -0.027500   0.002887  -0.000267  -0.007635
     9  H    0.398664  -0.023339   0.002316   0.000671  -0.000067  -0.021960
    10  H    0.406039  -0.026142  -0.001513   0.007542  -0.000167  -0.026493
               7          8          9         10
     1  C   -0.035063  -0.024791   0.398664   0.406039
     2  C    0.405430   0.409581  -0.023339  -0.026142
     3  O   -0.031407  -0.027500   0.002316  -0.001513
     4  O    0.002036   0.002887   0.000671   0.007542
     5  H    0.000223  -0.000267  -0.000067  -0.000167
     6  H    0.007399  -0.007635  -0.021960  -0.026493
     7  H    0.673671  -0.040385  -0.002716  -0.008192
     8  H   -0.040385   0.641723  -0.003725   0.006921
     9  H   -0.002716  -0.003725   0.639299  -0.024125
    10  H   -0.008192   0.006921  -0.024125   0.626424
 Mulliken charges:
               1
     1  C   -0.083178
     2  C    0.193883
     3  O   -0.324794
     4  O   -0.192152
     5  H    0.202842
     6  H    0.056515
     7  H    0.029004
     8  H    0.043190
     9  H    0.034984
    10  H    0.039707
 Sum of Mulliken charges =   0.00000
 Mulliken charges with hydrogens summed into heavy atoms:
               1
     1  C    0.048028
     2  C    0.266077
     3  O   -0.324794
     4  O    0.010690
 Electronic spatial extent (au):  <R**2>=            881.2511
 Charge=              0.0000 electrons
 Dipole moment (field-independent basis, Debye):
    X=              0.9799    Y=              0.0997    Z=             -1.7744  Tot=              2.0294
 Quadrupole moment (field-independent basis, Debye-Ang):
   XX=            -21.7758   YY=            -24.2353   ZZ=            -19.7711
   XY=             -3.8033   XZ=             -0.7987   YZ=              0.2650
 Traceless Quadrupole moment (field-independent basis, Debye-Ang):
   XX=              0.1516   YY=             -2.3079   ZZ=              2.1563
   XY=             -3.8033   XZ=             -0.7987   YZ=              0.2650
 Octapole moment (field-independent basis, Debye-Ang**2):
  XXX=              6.8267  YYY=             66.6208  ZZZ=            143.2160  XYY=              9.7462
  XXY=             15.6774  XXZ=             48.4562  XZZ=              1.3540  YZZ=             22.9449
  YYZ=             51.0239  XYZ=              3.9340
 Hexadecapole moment (field-independent basis, Debye-Ang**3):
 XXXX=            -61.5328 YYYY=           -237.1900 ZZZZ=           -797.0099 XXXY=             -7.6358
 XXXZ=            -42.7347 YYYX=            -19.2436 YYYZ=           -127.2691 ZZZX=            -37.3375
 ZZZY=           -133.5309 XXYY=            -35.1199 XXZZ=           -145.3182 YYZZ=           -179.0710
 XXYZ=            -36.1986 YYXZ=            -22.1506 ZZXY=             -4.8355
 N-N= 1.329557757136D+02 E-N=-8.054193289049D+02  KE= 2.285260152159D+02
 Leave Link  601 at Thu Dec 21 20:26:25 2017, MaxMem=  3489660928 cpu:         0.2
 (Enter /home/michal/g09/l9999.exe)
 1\1\GINC-LINUX\SP\RCCSD(T)-FC\CC-pVDZ\C2H6O2\MICHAL\21-Dec-2017\0\\#P 
 CCSD(T)/cc-pVDZ SP Nosymm\\PEscan\\0,1\C,0,-0.64752,-1.10547,-3.29671\
 C,0,-0.06432,-0.06867,-2.34912\O,0,0.37408,-0.55214,-1.06242\O,0,0.370
 31,-2.00551,-1.04276\H,0,1.32976,-2.15777,-1.00889\H,0,-1.50714,-1.623
 73,-2.84656\H,0,0.80008,0.42408,-2.83691\H,0,-0.81349,0.70951,-2.12186
 \H,0,-0.98557,-0.58304,-4.2073\H,0,0.09897,-1.85938,-3.58189\\Version=
 EM64L-G09RevD.01\HF=-228.8461602\MP2=-229.5164227\MP3=-229.5474019\MP4
 D=-229.5642059\MP4DQ=-229.5521398\MP4SDQ=-229.55751\CCSD=-229.5579523\
 CCSD(T)=-229.5776322\RMSD=5.387e-09\PG=C01 [X(C2H6O2)]\\@


 DEMOCRATS BUY MOST OF THE BOOKS THAT HAVE BEEN
 BANNED; REPUBLICANS FORM CENSORSHIP COMMITTEES AND
 READ THEM AS A GROUP.
 Job cpu time:       0 days  0 hours 11 minutes 55.6 seconds.
 File lengths (MBytes):  RWF=    699 Int=      0 D2E=      0 Chk=      1 Scr=      1
 Normal termination of Gaussian 09 at Thu Dec 21 20:26:25 2017.
