 Entering Gaussian System, Link 0=g09
 Input=1HPP_ccsdtdz_019.com
 Output=1HPP_ccsdtdz_019.log
 Initial command:
 /home/michal/g09/l1.exe "/home/michal/gauss_scratch/Gau-4210.inp" -scrdir="/home/michal/gauss_scratch/"
 Entering Link 1 = /home/michal/g09/l1.exe PID=      4211.
  
 Copyright (c) 1988,1990,1992,1993,1995,1998,2003,2009,2013,
            Gaussian, Inc.  All Rights Reserved.
  
 This is part of the Gaussian(R) 09 program.  It is based on
 the Gaussian(R) 03 system (copyright 2003, Gaussian, Inc.),
 the Gaussian(R) 98 system (copyright 1998, Gaussian, Inc.),
 the Gaussian(R) 94 system (copyright 1995, Gaussian, Inc.),
 the Gaussian 92(TM) system (copyright 1992, Gaussian, Inc.),
 the Gaussian 90(TM) system (copyright 1990, Gaussian, Inc.),
 the Gaussian 88(TM) system (copyright 1988, Gaussian, Inc.),
 the Gaussian 86(TM) system (copyright 1986, Carnegie Mellon
 University), and the Gaussian 82(TM) system (copyright 1983,
 Carnegie Mellon University). Gaussian is a federally registered
 trademark of Gaussian, Inc.
  
 This software contains proprietary and confidential information,
 including trade secrets, belonging to Gaussian, Inc.
  
 This software is provided under written license and may be
 used, copied, transmitted, or stored only in accord with that
 written license.
  
 The following legend is applicable only to US Government
 contracts under FAR:
  
                    RESTRICTED RIGHTS LEGEND
  
 Use, reproduction and disclosure by the US Government is
 subject to restrictions as set forth in subparagraphs (a)
 and (c) of the Commercial Computer Software - Restricted
 Rights clause in FAR 52.227-19.
  
 Gaussian, Inc.
 340 Quinnipiac St., Bldg. 40, Wallingford CT 06492
  
  
 ---------------------------------------------------------------
 Warning -- This program may not be used in any manner that
 competes with the business of Gaussian, Inc. or will provide
 assistance to any competitor of Gaussian, Inc.  The licensee
 of this program is prohibited from giving any competitor of
 Gaussian, Inc. access to this program.  By using this program,
 the user acknowledges that Gaussian, Inc. is engaged in the
 business of creating and licensing software in the field of
 computational chemistry and represents and warrants to the
 licensee that it is not a competitor of Gaussian, Inc. and that
 it will not use this program in any manner prohibited above.
 ---------------------------------------------------------------
  

 Cite this work as:
 Gaussian 09, Revision D.01,
 M. J. Frisch, G. W. Trucks, H. B. Schlegel, G. E. Scuseria, 
 M. A. Robb, J. R. Cheeseman, G. Scalmani, V. Barone, B. Mennucci, 
 G. A. Petersson, H. Nakatsuji, M. Caricato, X. Li, H. P. Hratchian, 
 A. F. Izmaylov, J. Bloino, G. Zheng, J. L. Sonnenberg, M. Hada, 
 M. Ehara, K. Toyota, R. Fukuda, J. Hasegawa, M. Ishida, T. Nakajima, 
 Y. Honda, O. Kitao, H. Nakai, T. Vreven, J. A. Montgomery, Jr., 
 J. E. Peralta, F. Ogliaro, M. Bearpark, J. J. Heyd, E. Brothers, 
 K. N. Kudin, V. N. Staroverov, T. Keith, R. Kobayashi, J. Normand, 
 K. Raghavachari, A. Rendell, J. C. Burant, S. S. Iyengar, J. Tomasi, 
 M. Cossi, N. Rega, J. M. Millam, M. Klene, J. E. Knox, J. B. Cross, 
 V. Bakken, C. Adamo, J. Jaramillo, R. Gomperts, R. E. Stratmann, 
 O. Yazyev, A. J. Austin, R. Cammi, C. Pomelli, J. W. Ochterski, 
 R. L. Martin, K. Morokuma, V. G. Zakrzewski, G. A. Voth, 
 P. Salvador, J. J. Dannenberg, S. Dapprich, A. D. Daniels, 
 O. Farkas, J. B. Foresman, J. V. Ortiz, J. Cioslowski, 
 and D. J. Fox, Gaussian, Inc., Wallingford CT, 2013.
 
 ******************************************
 Gaussian 09:  EM64L-G09RevD.01 24-Apr-2013
                21-Dec-2017 
 ******************************************
 %Mem=26GB
 %NProc=12
 Will use up to   12 processors via shared memory.
 %RWF=/home/michal/Cholesterol_grant/peroxy_params,20GB
 ----------------------------
 #P CCSD(T)/cc-pVDZ SP Nosymm
 ----------------------------
 1/38=1/1;
 2/12=2,15=1,17=6,18=5,40=1/2;
 3/5=16,11=9,16=1,25=1,30=1/1,2,3;
 4//1;
 5/5=2,38=5/2;
 8/6=4,9=120000,10=1/1,4;
 9/5=7,14=2/13;
 6/7=2,8=2,9=2,10=2/1;
 99/5=1,9=1/99;
 Leave Link    1 at Thu Dec 21 02:41:45 2017, MaxMem=  3489660928 cpu:         0.3
 (Enter /home/michal/g09/l101.exe)
 ------
 PEscan
 ------
 Symbolic Z-matrix:
 Charge =  0 Multiplicity = 1
 C                     0.01069  -0.01187   0.05915 
 C                     0.20365   0.08875   1.56334 
 O                     1.58687  -0.0974    1.79594 
 O                     1.84638  -0.01245   3.23337 
 H                     0.95869   0.15113   3.59705 
 H                     0.33762  -0.99927  -0.30067 
 H                    -0.11852   1.08329   1.93682 
 H                    -0.38325  -0.69291   2.0896 
 H                    -1.05265   0.1249   -0.19334 
 H                     0.60042   0.76397  -0.45233 
 
 NAtoms=     10 NQM=       10 NQMF=       0 NMMI=      0 NMMIF=      0
                NMic=       0 NMicF=      0.
                    Isotopes and Nuclear Properties:
 (Nuclear quadrupole moments (NQMom) in fm**2, nuclear magnetic moments (NMagM)
  in nuclear magnetons)

  Atom         1           2           3           4           5           6           7           8           9          10
 IAtWgt=          12          12          16          16           1           1           1           1           1           1
 AtmWgt=  12.0000000  12.0000000  15.9949146  15.9949146   1.0078250   1.0078250   1.0078250   1.0078250   1.0078250   1.0078250
 NucSpn=           0           0           0           0           1           1           1           1           1           1
 AtZEff=   0.0000000   0.0000000   0.0000000   0.0000000   0.0000000   0.0000000   0.0000000   0.0000000   0.0000000   0.0000000
 NQMom=    0.0000000   0.0000000   0.0000000   0.0000000   0.0000000   0.0000000   0.0000000   0.0000000   0.0000000   0.0000000
 NMagM=    0.0000000   0.0000000   0.0000000   0.0000000   2.7928460   2.7928460   2.7928460   2.7928460   2.7928460   2.7928460
 AtZNuc=   6.0000000   6.0000000   8.0000000   8.0000000   1.0000000   1.0000000   1.0000000   1.0000000   1.0000000   1.0000000
 Leave Link  101 at Thu Dec 21 02:41:45 2017, MaxMem=  3489660928 cpu:         0.5
 (Enter /home/michal/g09/l202.exe)
                          Input orientation:                          
 ---------------------------------------------------------------------
 Center     Atomic      Atomic             Coordinates (Angstroms)
 Number     Number       Type             X           Y           Z
 ---------------------------------------------------------------------
      1          6           0        0.010690   -0.011870    0.059150
      2          6           0        0.203650    0.088750    1.563340
      3          8           0        1.586870   -0.097400    1.795940
      4          8           0        1.846380   -0.012450    3.233370
      5          1           0        0.958690    0.151130    3.597050
      6          1           0        0.337620   -0.999270   -0.300670
      7          1           0       -0.118520    1.083290    1.936820
      8          1           0       -0.383250   -0.692910    2.089600
      9          1           0       -1.052650    0.124900   -0.193340
     10          1           0        0.600420    0.763970   -0.452330
 ---------------------------------------------------------------------
                    Distance matrix (angstroms):
                    1          2          3          4          5
     1  C    0.000000
     2  C    1.519850   0.000000
     3  O    2.346934   1.414939   0.000000
     4  O    3.666801   2.344740   1.463136   0.000000
     5  H    3.666335   2.170243   1.923636   0.973147   0.000000
     6  H    1.100596   2.162468   2.601878   3.967318   4.111127
     7  H    2.177548   1.110131   2.078998   2.596636   2.187617
     8  H    2.177552   1.110132   2.079000   2.596630   2.187604
     9  H    1.101431   2.159982   3.312660   4.490610   4.291064
    10  H    1.100600   2.162469   2.601876   3.967320   4.111132
                    6          7          8          9         10
     6  H    0.000000
     7  H    3.090547   0.000000
     8  H    2.515333   1.802307   0.000000
     9  H    1.791125   2.515689   2.515696   0.000000
    10  H    1.789156   2.515329   3.090552   1.791124   0.000000
 Symmetry turned off by external request.
 Stoichiometry    C2H6O2
 Framework group  C1[X(C2H6O2)]
 Deg. of freedom    24
 Full point group                 C1      NOp   1
 Rotational constants (GHZ):     30.5391588      4.1855570      3.8639828
 Leave Link  202 at Thu Dec 21 02:41:45 2017, MaxMem=  3489660928 cpu:         0.0
 (Enter /home/michal/g09/l301.exe)
 Standard basis: CC-pVDZ (5D, 7F)
 Ernie: Thresh=  0.10000D-02 Tol=  0.10000D-05 Strict=F.
 Ernie:  8 primitive shells out of 118 were deleted.
    86 basis functions,   174 primitive gaussians,    90 cartesian basis functions
    17 alpha electrons       17 beta electrons
       nuclear repulsion energy       130.9621967492 Hartrees.
 IExCor=    0 DFT=F Ex=HF Corr=None ExCW=0 ScaHFX=  1.000000
 ScaDFX=  1.000000  1.000000  1.000000  1.000000 ScalE2=  1.000000  1.000000
 IRadAn=      0 IRanWt=     -1 IRanGd=            0 ICorTp=0 IEmpDi=  4
 NAtoms=   10 NActive=   10 NUniq=   10 SFac= 1.00D+00 NAtFMM=   60 NAOKFM=F Big=F
 Integral buffers will be    131072 words long.
 Raffenetti 1 integral format.
 Two-electron integral symmetry is turned off.
 Leave Link  301 at Thu Dec 21 02:41:45 2017, MaxMem=  3489660928 cpu:         0.3
 (Enter /home/michal/g09/l302.exe)
 NPDir=0 NMtPBC=     1 NCelOv=     1 NCel=       1 NClECP=     1 NCelD=      1
         NCelK=      1 NCelE2=     1 NClLst=     1 CellRange=     0.0.
 One-electron integrals computed using PRISM.
 NBasis=    86 RedAO= T EigKep=  5.62D-03  NBF=    86
 NBsUse=    86 1.00D-06 EigRej= -1.00D+00 NBFU=    86
 Leave Link  302 at Thu Dec 21 02:41:45 2017, MaxMem=  3489660928 cpu:         1.6
 (Enter /home/michal/g09/l303.exe)
 DipDrv:  MaxL=1.
 Leave Link  303 at Thu Dec 21 02:41:45 2017, MaxMem=  3489660928 cpu:         0.2
 (Enter /home/michal/g09/l401.exe)
 ExpMin= 1.22D-01 ExpMax= 1.17D+04 ExpMxC= 4.01D+02 IAcc=1 IRadAn=         1 AccDes= 0.00D+00
 Harris functional with IExCor=  205 and IRadAn=       1 diagonalized for initial guess.
 HarFok:  IExCor=  205 AccDes= 0.00D+00 IRadAn=         1 IDoV= 1 UseB2=F ITyADJ=14
 ICtDFT=  3500011 ScaDFX=  1.000000  1.000000  1.000000  1.000000
 FoFCou: FMM=F IPFlag=           0 FMFlag=      100000 FMFlg1=           0
         NFxFlg=           0 DoJE=T BraDBF=F KetDBF=T FulRan=T
         wScrn=  0.000000 ICntrl=     500 IOpCl=  0 I1Cent=   200000004 NGrid=           0
         NMat0=    1 NMatS0=      1 NMatT0=    0 NMatD0=    1 NMtDS0=    0 NMtDT0=    0
 Symmetry not used in FoFCou.
 Harris En= -229.121105617740    
 JPrj=0 DoOrth=F DoCkMO=F.
 Leave Link  401 at Thu Dec 21 02:41:45 2017, MaxMem=  3489660928 cpu:         1.9
 (Enter /home/michal/g09/l502.exe)
 Closed shell SCF:
 Using DIIS extrapolation, IDIIS=  1040.
 Two-electron integral symmetry not used.
 Keep R1 ints in memory in canonical form, NReq=7943380.
 IVT=       44490 IEndB=       44490 NGot=  3489660928 MDV=  3482617028
 LenX=  3482617028 LenY=  3482608487
 Requested convergence on RMS density matrix=1.00D-08 within 128 cycles.
 Requested convergence on MAX density matrix=1.00D-06.
 Requested convergence on             energy=1.00D-06.
 No special actions if energy rises.
 FoFCou: FMM=F IPFlag=           0 FMFlag=           0 FMFlg1=           0
         NFxFlg=           0 DoJE=F BraDBF=F KetDBF=F FulRan=T
         wScrn=  0.000000 ICntrl=     600 IOpCl=  0 I1Cent=           0 NGrid=           0
         NMat0=    1 NMatS0=   3741 NMatT0=    0 NMatD0=    1 NMtDS0=    0 NMtDT0=    0
 Symmetry not used in FoFCou.

 Cycle   1  Pass 1  IDiag  1:
 E= -228.687159757296    
 DIIS: error= 3.60D-02 at cycle   1 NSaved=   1.
 NSaved= 1 IEnMin= 1 EnMin= -228.687159757296     IErMin= 1 ErrMin= 3.60D-02
 ErrMax= 3.60D-02  0.00D+00 EMaxC= 1.00D-01 BMatC= 2.02D-01 BMatP= 2.02D-01
 IDIUse=3 WtCom= 6.40D-01 WtEn= 3.60D-01
 Coeff-Com:  0.100D+01
 Coeff-En:   0.100D+01
 Coeff:      0.100D+01
 Gap=     0.693 Goal=   None    Shift=    0.000
 GapD=    0.693 DampG=2.000 DampE=0.500 DampFc=1.0000 IDamp=-1.
 RMSDP=4.74D-03 MaxDP=1.12D-01              OVMax= 1.19D-01

 Cycle   2  Pass 1  IDiag  1:
 E= -228.821134545449     Delta-E=       -0.133974788153 Rises=F Damp=F
 DIIS: error= 1.66D-02 at cycle   2 NSaved=   2.
 NSaved= 2 IEnMin= 2 EnMin= -228.821134545449     IErMin= 2 ErrMin= 1.66D-02
 ErrMax= 1.66D-02  0.00D+00 EMaxC= 1.00D-01 BMatC= 2.50D-02 BMatP= 2.02D-01
 IDIUse=3 WtCom= 8.34D-01 WtEn= 1.66D-01
 Coeff-Com:  0.208D+00 0.792D+00
 Coeff-En:   0.000D+00 0.100D+01
 Coeff:      0.173D+00 0.827D+00
 Gap=     0.613 Goal=   None    Shift=    0.000
 RMSDP=1.53D-03 MaxDP=3.10D-02 DE=-1.34D-01 OVMax= 3.56D-02

 Cycle   3  Pass 1  IDiag  1:
 E= -228.843035286307     Delta-E=       -0.021900740858 Rises=F Damp=F
 DIIS: error= 3.15D-03 at cycle   3 NSaved=   3.
 NSaved= 3 IEnMin= 3 EnMin= -228.843035286307     IErMin= 3 ErrMin= 3.15D-03
 ErrMax= 3.15D-03  0.00D+00 EMaxC= 1.00D-01 BMatC= 1.11D-03 BMatP= 2.50D-02
 IDIUse=3 WtCom= 9.68D-01 WtEn= 3.15D-02
 Coeff-Com: -0.247D-01 0.117D+00 0.908D+00
 Coeff-En:   0.000D+00 0.000D+00 0.100D+01
 Coeff:     -0.239D-01 0.113D+00 0.911D+00
 Gap=     0.607 Goal=   None    Shift=    0.000
 RMSDP=3.30D-04 MaxDP=6.29D-03 DE=-2.19D-02 OVMax= 8.59D-03

 Cycle   4  Pass 1  IDiag  1:
 E= -228.844165803310     Delta-E=       -0.001130517003 Rises=F Damp=F
 DIIS: error= 6.62D-04 at cycle   4 NSaved=   4.
 NSaved= 4 IEnMin= 4 EnMin= -228.844165803310     IErMin= 4 ErrMin= 6.62D-04
 ErrMax= 6.62D-04  0.00D+00 EMaxC= 1.00D-01 BMatC= 8.31D-05 BMatP= 1.11D-03
 IDIUse=3 WtCom= 9.93D-01 WtEn= 6.62D-03
 Coeff-Com: -0.104D-01 0.950D-02 0.238D+00 0.763D+00
 Coeff-En:   0.000D+00 0.000D+00 0.000D+00 0.100D+01
 Coeff:     -0.104D-01 0.944D-02 0.236D+00 0.765D+00
 Gap=     0.605 Goal=   None    Shift=    0.000
 RMSDP=8.48D-05 MaxDP=1.91D-03 DE=-1.13D-03 OVMax= 2.23D-03

 Cycle   5  Pass 1  IDiag  1:
 E= -228.844235993116     Delta-E=       -0.000070189807 Rises=F Damp=F
 DIIS: error= 3.19D-04 at cycle   5 NSaved=   5.
 NSaved= 5 IEnMin= 5 EnMin= -228.844235993116     IErMin= 5 ErrMin= 3.19D-04
 ErrMax= 3.19D-04  0.00D+00 EMaxC= 1.00D-01 BMatC= 8.46D-06 BMatP= 8.31D-05
 IDIUse=3 WtCom= 9.97D-01 WtEn= 3.19D-03
 Coeff-Com:  0.203D-02-0.183D-01-0.105D+00 0.128D+00 0.993D+00
 Coeff-En:   0.000D+00 0.000D+00 0.000D+00 0.000D+00 0.100D+01
 Coeff:      0.203D-02-0.183D-01-0.104D+00 0.127D+00 0.993D+00
 Gap=     0.606 Goal=   None    Shift=    0.000
 RMSDP=4.59D-05 MaxDP=5.71D-04 DE=-7.02D-05 OVMax= 1.39D-03

 Cycle   6  Pass 1  IDiag  1:
 E= -228.844248722674     Delta-E=       -0.000012729557 Rises=F Damp=F
 DIIS: error= 6.35D-05 at cycle   6 NSaved=   6.
 NSaved= 6 IEnMin= 6 EnMin= -228.844248722674     IErMin= 6 ErrMin= 6.35D-05
 ErrMax= 6.35D-05  0.00D+00 EMaxC= 1.00D-01 BMatC= 3.80D-07 BMatP= 8.46D-06
 IDIUse=1 WtCom= 1.00D+00 WtEn= 0.00D+00
 Coeff-Com:  0.629D-03-0.219D-02-0.180D-01-0.331D-01 0.833D-01 0.969D+00
 Coeff:      0.629D-03-0.219D-02-0.180D-01-0.331D-01 0.833D-01 0.969D+00
 Gap=     0.606 Goal=   None    Shift=    0.000
 RMSDP=1.07D-05 MaxDP=2.23D-04 DE=-1.27D-05 OVMax= 2.55D-04

 Cycle   7  Pass 1  IDiag  1:
 E= -228.844249352980     Delta-E=       -0.000000630306 Rises=F Damp=F
 DIIS: error= 2.06D-05 at cycle   7 NSaved=   7.
 NSaved= 7 IEnMin= 7 EnMin= -228.844249352980     IErMin= 7 ErrMin= 2.06D-05
 ErrMax= 2.06D-05  0.00D+00 EMaxC= 1.00D-01 BMatC= 4.87D-08 BMatP= 3.80D-07
 IDIUse=1 WtCom= 1.00D+00 WtEn= 0.00D+00
 Coeff-Com: -0.668D-04 0.139D-02 0.709D-02-0.198D-01-0.802D-01 0.141D+00
 Coeff-Com:  0.950D+00
 Coeff:     -0.668D-04 0.139D-02 0.709D-02-0.198D-01-0.802D-01 0.141D+00
 Coeff:      0.950D+00
 Gap=     0.606 Goal=   None    Shift=    0.000
 RMSDP=3.91D-06 MaxDP=4.90D-05 DE=-6.30D-07 OVMax= 1.24D-04

 Cycle   8  Pass 1  IDiag  1:
 E= -228.844249451232     Delta-E=       -0.000000098252 Rises=F Damp=F
 DIIS: error= 1.11D-05 at cycle   8 NSaved=   8.
 NSaved= 8 IEnMin= 8 EnMin= -228.844249451232     IErMin= 8 ErrMin= 1.11D-05
 ErrMax= 1.11D-05  0.00D+00 EMaxC= 1.00D-01 BMatC= 6.16D-09 BMatP= 4.87D-08
 IDIUse=1 WtCom= 1.00D+00 WtEn= 0.00D+00
 Coeff-Com: -0.710D-04 0.102D-03 0.150D-02 0.718D-02 0.149D-02-0.160D+00
 Coeff-Com: -0.987D-01 0.125D+01
 Coeff:     -0.710D-04 0.102D-03 0.150D-02 0.718D-02 0.149D-02-0.160D+00
 Coeff:     -0.987D-01 0.125D+01
 Gap=     0.606 Goal=   None    Shift=    0.000
 RMSDP=1.94D-06 MaxDP=3.18D-05 DE=-9.83D-08 OVMax= 7.59D-05

 Cycle   9  Pass 1  IDiag  1:
 E= -228.844249469984     Delta-E=       -0.000000018752 Rises=F Damp=F
 DIIS: error= 3.27D-06 at cycle   9 NSaved=   9.
 NSaved= 9 IEnMin= 9 EnMin= -228.844249469984     IErMin= 9 ErrMin= 3.27D-06
 ErrMax= 3.27D-06  0.00D+00 EMaxC= 1.00D-01 BMatC= 4.47D-10 BMatP= 6.16D-09
 IDIUse=1 WtCom= 1.00D+00 WtEn= 0.00D+00
 Coeff-Com:  0.279D-04-0.129D-03-0.107D-02-0.103D-02 0.590D-02 0.490D-01
 Coeff-Com: -0.428D-01-0.486D+00 0.148D+01
 Coeff:      0.279D-04-0.129D-03-0.107D-02-0.103D-02 0.590D-02 0.490D-01
 Coeff:     -0.428D-01-0.486D+00 0.148D+01
 Gap=     0.606 Goal=   None    Shift=    0.000
 RMSDP=7.20D-07 MaxDP=1.19D-05 DE=-1.88D-08 OVMax= 2.76D-05

 Cycle  10  Pass 1  IDiag  1:
 E= -228.844249471758     Delta-E=       -0.000000001774 Rises=F Damp=F
 DIIS: error= 4.77D-07 at cycle  10 NSaved=  10.
 NSaved=10 IEnMin=10 EnMin= -228.844249471758     IErMin=10 ErrMin= 4.77D-07
 ErrMax= 4.77D-07  0.00D+00 EMaxC= 1.00D-01 BMatC= 1.81D-11 BMatP= 4.47D-10
 IDIUse=1 WtCom= 1.00D+00 WtEn= 0.00D+00
 Coeff-Com: -0.288D-05 0.258D-04 0.169D-03-0.614D-04-0.168D-02-0.293D-02
 Coeff-Com:  0.133D-01 0.493D-01-0.321D+00 0.126D+01
 Coeff:     -0.288D-05 0.258D-04 0.169D-03-0.614D-04-0.168D-02-0.293D-02
 Coeff:      0.133D-01 0.493D-01-0.321D+00 0.126D+01
 Gap=     0.606 Goal=   None    Shift=    0.000
 RMSDP=1.17D-07 MaxDP=1.77D-06 DE=-1.77D-09 OVMax= 4.28D-06

 Cycle  11  Pass 1  IDiag  1:
 E= -228.844249471817     Delta-E=       -0.000000000059 Rises=F Damp=F
 DIIS: error= 9.70D-08 at cycle  11 NSaved=  11.
 NSaved=11 IEnMin=11 EnMin= -228.844249471817     IErMin=11 ErrMin= 9.70D-08
 ErrMax= 9.70D-08  0.00D+00 EMaxC= 1.00D-01 BMatC= 1.41D-12 BMatP= 1.81D-11
 IDIUse=1 WtCom= 1.00D+00 WtEn= 0.00D+00
 Coeff-Com: -0.138D-05 0.429D-05 0.440D-04 0.133D-03-0.124D-03-0.333D-02
 Coeff-Com: -0.151D-03 0.308D-01-0.512D-01-0.287D+00 0.131D+01
 Coeff:     -0.138D-05 0.429D-05 0.440D-04 0.133D-03-0.124D-03-0.333D-02
 Coeff:     -0.151D-03 0.308D-01-0.512D-01-0.287D+00 0.131D+01
 Gap=     0.606 Goal=   None    Shift=    0.000
 RMSDP=3.31D-08 MaxDP=5.38D-07 DE=-5.85D-11 OVMax= 1.06D-06

 Cycle  12  Pass 1  IDiag  1:
 E= -228.844249471820     Delta-E=       -0.000000000003 Rises=F Damp=F
 DIIS: error= 1.70D-08 at cycle  12 NSaved=  12.
 NSaved=12 IEnMin=12 EnMin= -228.844249471820     IErMin=12 ErrMin= 1.70D-08
 ErrMax= 1.70D-08  0.00D+00 EMaxC= 1.00D-01 BMatC= 4.67D-14 BMatP= 1.41D-12
 IDIUse=1 WtCom= 1.00D+00 WtEn= 0.00D+00
 Coeff-Com:  0.230D-06-0.137D-05-0.980D-05 0.108D-06 0.698D-04 0.308D-03
 Coeff-Com: -0.584D-03-0.361D-02 0.161D-01-0.397D-01-0.450D-01 0.107D+01
 Coeff:      0.230D-06-0.137D-05-0.980D-05 0.108D-06 0.698D-04 0.308D-03
 Coeff:     -0.584D-03-0.361D-02 0.161D-01-0.397D-01-0.450D-01 0.107D+01
 Gap=     0.606 Goal=   None    Shift=    0.000
 RMSDP=4.40D-09 MaxDP=6.30D-08 DE=-3.07D-12 OVMax= 1.04D-07

 SCF Done:  E(RHF) =  -228.844249472     A.U. after   12 cycles
            NFock= 12  Conv=0.44D-08     -V/T= 2.0013
 KE= 2.285384654151D+02 PE=-8.011618110174D+02 EE= 2.128168993812D+02
 Leave Link  502 at Thu Dec 21 02:41:45 2017, MaxMem=  3489660928 cpu:         3.4
 (Enter /home/michal/g09/l801.exe)
 Windowed orbitals will be sorted by symmetry type.
 ExpMin= 1.22D-01 ExpMax= 1.17D+04 ExpMxC= 4.01D+02 IAcc=3 IRadAn=         5 AccDes= 0.00D+00
 HarFok:  IExCor=  205 AccDes= 0.00D+00 IRadAn=         5 IDoV=-2 UseB2=F ITyADJ=14
 ICtDFT= 12500011 ScaDFX=  1.000000  1.000000  1.000000  1.000000
 Largest valence mixing into a core orbital is  1.06D-04
 Largest core mixing into a valence orbital is  4.11D-05
 Range of M.O.s used for correlation:     5    86
 NBasis=    86 NAE=    17 NBE=    17 NFC=     4 NFV=     0
 NROrb=     82 NOA=    13 NOB=    13 NVA=    69 NVB=    69
 Leave Link  801 at Thu Dec 21 02:41:46 2017, MaxMem=  3489660928 cpu:         0.7
 (Enter /home/michal/g09/l804.exe)
 Closed-shell transformation, MDV=  3489660928 ITran=4 ISComp=1.
 Semi-Direct transformation.
 ModeAB=           2 MOrb=            13 LenV=    3489331929
 LASXX=      3165006 LTotXX=     3165006 LenRXX=     3165006
 LTotAB=     3280537 MaxLAS=     4365270 LenRXY=     4365270
 NonZer=     6330012 LenScr=    10221568 LnRSAI=           0
 LnScr1=           0 LExtra=      494080 Total=     18245924
 MaxDsk=  2684354560 SrtSym=           F ITran=            4
 DoSDTr:  NPSUse= 12
 JobTyp=0 Pass  1:  I=   1 to  13.
 (rs|ai) integrals will be sorted in core.
 Complete sort for first half transformation.
 First half transformation complete.
 Begin second half transformation for I=  10.
 Begin second half transformation for I=  10.
 Complete sort for second half transformation.
 Second half transformation complete.
 Spin components of T(2) and E(2):
     alpha-alpha T2 =       0.2454434471D-01 E2=     -0.8183549335D-01
     alpha-beta  T2 =       0.1531570032D+00 E2=     -0.5077039836D+00
     beta-beta   T2 =       0.2454434471D-01 E2=     -0.8183549335D-01
 ANorm=    0.1096469650D+01
 E2 =    -0.6713749704D+00 EUMP2 =    -0.22951562444217D+03
 Leave Link  804 at Thu Dec 21 02:41:47 2017, MaxMem=  3489660928 cpu:        12.3
 (Enter /home/michal/g09/l913.exe)
 CIDS:  MDV=  3489660928.
 Frozen-core window:  NFC=   4 NFV=   0.
 IFCWin=0 IBDFC=1 NFBD=     0     0 NFCmp=     0     0 NFFFC=     0     0
 Using DD3R+UMP44R for 1st iteration, S=T.
 Using DD4RQ for 2nd and later iterations.
 Keep R2 and R3 ints in memory in canonical form, NReq=14820214.
 FoFCou: FMM=F IPFlag=           0 FMFlag=           0 FMFlg1=           0
         NFxFlg=           0 DoJE=F BraDBF=F KetDBF=F FulRan=T
         wScrn=  0.000000 ICntrl=     600 IOpCl=  0 I1Cent=           0 NGrid=           0
         NMat0=    1 NMatS0=   3741 NMatT0=    0 NMatD0=    1 NMtDS0=    0 NMtDT0=    0
 Symmetry not used in FoFCou.
 CCSD(T)
 =======
 Iterations=  50 Convergence= 0.100D-06
 Iteration Nr.   1
 **********************
 DD1Dir will call FoFMem   1 times, MxPair=       182
 NAB=    91 NAA=     0 NBB=     0.
 MP4(R+Q)=  0.12197603D-01
 Maximum subspace dimension=  5
 Norm of the A-vectors is  1.1253487D+00 conv= 1.00D-05.
 RLE energy=       -0.6899764143
 E3=       -0.30353250D-01        EUMP3=      -0.22954597769D+03
 E4(DQ)=   -0.46321347D-02        UMP4(DQ)=   -0.22955060983D+03
 E4(SDQ)=  -0.10089163D-01        UMP4(SDQ)=  -0.22955606685D+03
 VARIATIONAL ENERGIES WITH THE FIRST-ORDER WAVEFUNCTION:
 DE(Corr)= -0.68947493     E(Corr)=     -229.53372440    
 NORM(A)=   0.11046108D+01
 Iteration Nr.   2
 **********************
 DD1Dir will call FoFMem   1 times, MxPair=       182
 NAB=    91 NAA=     0 NBB=     0.
 Norm of the A-vectors is  3.7220771D-01 conv= 1.00D-05.
 RLE energy=       -0.7108153392
 DE(Corr)= -0.70787608     E(CORR)=     -229.55212556     Delta=-1.84D-02
 NORM(A)=   0.11132642D+01
 Iteration Nr.   3
 **********************
 DD1Dir will call FoFMem   1 times, MxPair=       182
 NAB=    91 NAA=     0 NBB=     0.
 Norm of the A-vectors is  1.0884081D-01 conv= 1.00D-05.
 RLE energy=       -0.7118588798
 DE(Corr)= -0.71044414     E(CORR)=     -229.55469361     Delta=-2.57D-03
 NORM(A)=   0.11149628D+01
 Iteration Nr.   4
 **********************
 DD1Dir will call FoFMem   1 times, MxPair=       182
 NAB=    91 NAA=     0 NBB=     0.
 Norm of the A-vectors is  4.1215488D-02 conv= 1.00D-05.
 RLE energy=       -0.7120806423
 DE(Corr)= -0.71195818     E(CORR)=     -229.55620765     Delta=-1.51D-03
 NORM(A)=   0.11153843D+01
 Iteration Nr.   5
 **********************
 DD1Dir will call FoFMem   1 times, MxPair=       182
 NAB=    91 NAA=     0 NBB=     0.
 Norm of the A-vectors is  1.1271881D-02 conv= 1.00D-05.
 RLE energy=       -0.7121507014
 DE(Corr)= -0.71210763     E(CORR)=     -229.55635710     Delta=-1.49D-04
 NORM(A)=   0.11155209D+01
 Iteration Nr.   6
 **********************
 DD1Dir will call FoFMem   1 times, MxPair=       182
 NAB=    91 NAA=     0 NBB=     0.
 Norm of the A-vectors is  4.8630021D-03 conv= 1.00D-05.
 RLE energy=       -0.7121096480
 DE(Corr)= -0.71213084     E(CORR)=     -229.55638031     Delta=-2.32D-05
 NORM(A)=   0.11155324D+01
 Iteration Nr.   7
 **********************
 DD1Dir will call FoFMem   1 times, MxPair=       182
 NAB=    91 NAA=     0 NBB=     0.
 Norm of the A-vectors is  2.1635282D-03 conv= 1.00D-05.
 RLE energy=       -0.7121246224
 DE(Corr)= -0.71213146     E(CORR)=     -229.55638093     Delta=-6.17D-07
 NORM(A)=   0.11155430D+01
 Iteration Nr.   8
 **********************
 DD1Dir will call FoFMem   1 times, MxPair=       182
 NAB=    91 NAA=     0 NBB=     0.
 Norm of the A-vectors is  8.7899030D-04 conv= 1.00D-05.
 RLE energy=       -0.7121262998
 DE(Corr)= -0.71212756     E(CORR)=     -229.55637704     Delta= 3.90D-06
 NORM(A)=   0.11155460D+01
 Iteration Nr.   9
 **********************
 DD1Dir will call FoFMem   1 times, MxPair=       182
 NAB=    91 NAA=     0 NBB=     0.
 Norm of the A-vectors is  3.5676179D-04 conv= 1.00D-05.
 RLE energy=       -0.7121292245
 DE(Corr)= -0.71212948     E(CORR)=     -229.55637895     Delta=-1.92D-06
 NORM(A)=   0.11155474D+01
 Iteration Nr.  10
 **********************
 DD1Dir will call FoFMem   1 times, MxPair=       182
 NAB=    91 NAA=     0 NBB=     0.
 Norm of the A-vectors is  1.6604373D-04 conv= 1.00D-05.
 RLE energy=       -0.7121304044
 DE(Corr)= -0.71213001     E(CORR)=     -229.55637948     Delta=-5.29D-07
 NORM(A)=   0.11155483D+01
 Iteration Nr.  11
 **********************
 DD1Dir will call FoFMem   1 times, MxPair=       182
 NAB=    91 NAA=     0 NBB=     0.
 Norm of the A-vectors is  6.2409126D-05 conv= 1.00D-05.
 RLE energy=       -0.7121307235
 DE(Corr)= -0.71213056     E(CORR)=     -229.55638003     Delta=-5.52D-07
 NORM(A)=   0.11155486D+01
 Iteration Nr.  12
 **********************
 DD1Dir will call FoFMem   1 times, MxPair=       182
 NAB=    91 NAA=     0 NBB=     0.
 Norm of the A-vectors is  3.0302593D-05 conv= 1.00D-05.
 RLE energy=       -0.7121308683
 DE(Corr)= -0.71213079     E(CORR)=     -229.55638026     Delta=-2.24D-07
 NORM(A)=   0.11155488D+01
 Iteration Nr.  13
 **********************
 DD1Dir will call FoFMem   1 times, MxPair=       182
 NAB=    91 NAA=     0 NBB=     0.
 Norm of the A-vectors is  1.2239735D-05 conv= 1.00D-05.
 RLE energy=       -0.7121308961
 DE(Corr)= -0.71213087     E(CORR)=     -229.55638034     Delta=-8.20D-08
 NORM(A)=   0.11155488D+01
 Iteration Nr.  14
 **********************
 DD1Dir will call FoFMem   1 times, MxPair=       182
 NAB=    91 NAA=     0 NBB=     0.
 Norm of the A-vectors is  5.3157713D-06 conv= 1.00D-05.
 RLE energy=       -0.7121308957
 DE(Corr)= -0.71213089     E(CORR)=     -229.55638036     Delta=-2.29D-08
 NORM(A)=   0.11155488D+01
 CI/CC converged in   14 iterations to DelEn=-2.29D-08 Conv= 1.00D-07 ErrA1= 5.32D-06 Conv= 1.00D-05
 Largest amplitude= 1.98D-02
 T4(AAA)= -0.46651400D-03
 T4(AAB)= -0.98718665D-02
 T5(AAA)=  0.26927654D-04
 T5(AAB)=  0.36033453D-03
 Time for triples=      119.00 seconds.
 T4(CCSD)= -0.20676761D-01
 T5(CCSD)=  0.77452436D-03
 CCSD(T)= -0.22957628260D+03
 Discarding MO integrals.
 Leave Link  913 at Thu Dec 21 02:42:41 2017, MaxMem=  3489660928 cpu:       654.0
 (Enter /home/michal/g09/l601.exe)
 Copying SCF densities to generalized density rwf, IOpCl= 0 IROHF=0.

 **********************************************************************

            Population analysis using the SCF density.

 **********************************************************************

 Alpha  occ. eigenvalues --  -20.61975 -20.61939 -11.30230 -11.24184  -1.46679
 Alpha  occ. eigenvalues --   -1.22990  -1.01441  -0.85809  -0.70224  -0.68184
 Alpha  occ. eigenvalues --   -0.63213  -0.58084  -0.56599  -0.53272  -0.51096
 Alpha  occ. eigenvalues --   -0.50480  -0.43079
 Alpha virt. eigenvalues --    0.17487   0.18295   0.23089   0.23397   0.25906
 Alpha virt. eigenvalues --    0.27687   0.28026   0.36814   0.38592   0.58634
 Alpha virt. eigenvalues --    0.62318   0.66702   0.73696   0.74739   0.77766
 Alpha virt. eigenvalues --    0.84244   0.84467   0.87114   0.87823   0.89536
 Alpha virt. eigenvalues --    0.91824   1.10590   1.11178   1.12529   1.15097
 Alpha virt. eigenvalues --    1.22805   1.26416   1.35919   1.36895   1.44134
 Alpha virt. eigenvalues --    1.45559   1.54304   1.56300   1.66060   1.66636
 Alpha virt. eigenvalues --    1.73242   1.83326   1.86200   1.86591   1.90246
 Alpha virt. eigenvalues --    1.91075   1.94731   1.94751   1.98035   2.03985
 Alpha virt. eigenvalues --    2.11362   2.18044   2.22006   2.28740   2.35848
 Alpha virt. eigenvalues --    2.42109   2.47967   2.49354   2.52720   2.61637
 Alpha virt. eigenvalues --    2.70763   2.73017   2.76193   2.80773   2.89246
 Alpha virt. eigenvalues --    2.89552   3.04394   3.25146   3.34992   3.39399
 Alpha virt. eigenvalues --    3.51892   3.62285   3.95658   4.21712
          Condensed to atoms (all electrons):
               1          2          3          4          5          6
     1  C    4.508436   0.422005  -0.039718   0.004338   0.000199   0.407588
     2  C    0.422005   4.510373   0.282958  -0.056286  -0.004444  -0.029383
     3  O   -0.039718   0.282958   8.009766   0.128722  -0.032431   0.002719
     4  O    0.004338  -0.056286   0.128722   7.747373   0.352852  -0.000162
     5  H    0.000199  -0.004444  -0.032431   0.352852   0.494591   0.000051
     6  H    0.407588  -0.029383   0.002719  -0.000162   0.000051   0.608496
     7  H   -0.023244   0.400004  -0.034003   0.000326   0.003109   0.007682
     8  H   -0.023244   0.400004  -0.034003   0.000326   0.003109  -0.009083
     9  H    0.397987  -0.023465   0.002455  -0.000120   0.000043  -0.020337
    10  H    0.407587  -0.029383   0.002719  -0.000162   0.000051  -0.024906
               7          8          9         10
     1  C   -0.023244  -0.023244   0.397987   0.407587
     2  C    0.400004   0.400004  -0.023465  -0.029383
     3  O   -0.034003  -0.034003   0.002455   0.002719
     4  O    0.000326   0.000326  -0.000120  -0.000162
     5  H    0.003109   0.003109   0.000043   0.000051
     6  H    0.007682  -0.009083  -0.020337  -0.024906
     7  H    0.679186  -0.053811  -0.001842  -0.009083
     8  H   -0.053811   0.679186  -0.001843   0.007682
     9  H   -0.001842  -0.001843   0.627642  -0.020337
    10  H   -0.009083   0.007682  -0.020337   0.608497
 Mulliken charges:
               1
     1  C   -0.061935
     2  C    0.127616
     3  O   -0.289185
     4  O   -0.177208
     5  H    0.182869
     6  H    0.057335
     7  H    0.031678
     8  H    0.031678
     9  H    0.039816
    10  H    0.057335
 Sum of Mulliken charges =   0.00000
 Mulliken charges with hydrogens summed into heavy atoms:
               1
     1  C    0.092552
     2  C    0.190971
     3  O   -0.289185
     4  O    0.005661
 Electronic spatial extent (au):  <R**2>=            771.9604
 Charge=              0.0000 electrons
 Dipole moment (field-independent basis, Debye):
    X=             -3.3282    Y=              0.4840    Z=             -0.1399  Tot=              3.3661
 Quadrupole moment (field-independent basis, Debye-Ang):
   XX=            -32.9647   YY=            -25.1303   ZZ=            -23.2060
   XY=              0.5045   XZ=             -8.2388   YZ=              1.3988
 Traceless Quadrupole moment (field-independent basis, Debye-Ang):
   XX=             -5.8644   YY=              1.9700   ZZ=              3.8944
   XY=              0.5045   XZ=             -8.2388   YZ=              1.3988
 Octapole moment (field-independent basis, Debye-Ang**2):
  XXX=            -74.7143  YYY=             -0.2629  ZZZ=           -102.2053  XYY=            -20.0683
  XXY=              0.4647  XXZ=            -60.3113  XZZ=            -40.3093  YZZ=              4.5187
  YYZ=            -40.2023  XYZ=              1.3593
 Hexadecapole moment (field-independent basis, Debye-Ang**3):
 XXXX=           -252.8099 YYYY=            -36.4399 ZZZZ=           -531.7517 XXXY=              2.0000
 XXXZ=           -192.2905 YYYX=              2.1001 YYYZ=              0.0243 ZZZX=           -204.7551
 ZZZY=             15.1713 XXYY=            -45.4406 XXZZ=           -199.6402 YYZZ=           -111.2525
 XXYZ=              0.3800 YYXZ=            -53.1451 ZZXY=              5.3131
 N-N= 1.309621967492D+02 E-N=-8.011618101557D+02  KE= 2.285384654151D+02
 Leave Link  601 at Thu Dec 21 02:42:41 2017, MaxMem=  3489660928 cpu:         0.2
 (Enter /home/michal/g09/l9999.exe)
 1\1\GINC-LINUX\SP\RCCSD(T)-FC\CC-pVDZ\C2H6O2\MICHAL\21-Dec-2017\0\\#P 
 CCSD(T)/cc-pVDZ SP Nosymm\\PEscan\\0,1\C,0,0.01069,-0.01187,0.05915\C,
 0,0.20365,0.08875,1.56334\O,0,1.58687,-0.0974,1.79594\O,0,1.84638,-0.0
 1245,3.23337\H,0,0.95869,0.15113,3.59705\H,0,0.33762,-0.99927,-0.30067
 \H,0,-0.11852,1.08329,1.93682\H,0,-0.38325,-0.69291,2.0896\H,0,-1.0526
 5,0.1249,-0.19334\H,0,0.60042,0.76397,-0.45233\\Version=EM64L-G09RevD.
 01\HF=-228.8442495\MP2=-229.5156244\MP3=-229.5459777\MP4D=-229.5628074
 \MP4DQ=-229.5506098\MP4SDQ=-229.5560669\CCSD=-229.5563804\CCSD(T)=-229
 .5762826\RMSD=4.403e-09\PG=C01 [X(C2H6O2)]\\@


 THE 2ND LAW OF THERMODYNAMICS HAS THE SAME
 DEGREE OF TRUTH AS THE STATEMENT THAT IF YOU THROW
 A TUMBLERFULL OF WATER INTO THE SEA, YOU CANNOT GET
 THE SAME TUMBLERFULL OF WATER OUT AGAIN.
          - J.C. MAXWELL, LETTER TO LORD RAYLEIGH, DECEMBER 6,1870
 Job cpu time:       0 days  0 hours 11 minutes 15.6 seconds.
 File lengths (MBytes):  RWF=    699 Int=      0 D2E=      0 Chk=      1 Scr=      1
 Normal termination of Gaussian 09 at Thu Dec 21 02:42:41 2017.
