 Entering Gaussian System, Link 0=g09
 Input=1HPP_mp2qz_018.com
 Output=1HPP_mp2qz_018.log
 Initial command:
 /home/michal/g09/l1.exe "/home/michal/gauss_scratch/Gau-30592.inp" -scrdir="/home/michal/gauss_scratch/"
 Entering Link 1 = /home/michal/g09/l1.exe PID=     30593.
  
 Copyright (c) 1988,1990,1992,1993,1995,1998,2003,2009,2013,
            Gaussian, Inc.  All Rights Reserved.
  
 This is part of the Gaussian(R) 09 program.  It is based on
 the Gaussian(R) 03 system (copyright 2003, Gaussian, Inc.),
 the Gaussian(R) 98 system (copyright 1998, Gaussian, Inc.),
 the Gaussian(R) 94 system (copyright 1995, Gaussian, Inc.),
 the Gaussian 92(TM) system (copyright 1992, Gaussian, Inc.),
 the Gaussian 90(TM) system (copyright 1990, Gaussian, Inc.),
 the Gaussian 88(TM) system (copyright 1988, Gaussian, Inc.),
 the Gaussian 86(TM) system (copyright 1986, Carnegie Mellon
 University), and the Gaussian 82(TM) system (copyright 1983,
 Carnegie Mellon University). Gaussian is a federally registered
 trademark of Gaussian, Inc.
  
 This software contains proprietary and confidential information,
 including trade secrets, belonging to Gaussian, Inc.
  
 This software is provided under written license and may be
 used, copied, transmitted, or stored only in accord with that
 written license.
  
 The following legend is applicable only to US Government
 contracts under FAR:
  
                    RESTRICTED RIGHTS LEGEND
  
 Use, reproduction and disclosure by the US Government is
 subject to restrictions as set forth in subparagraphs (a)
 and (c) of the Commercial Computer Software - Restricted
 Rights clause in FAR 52.227-19.
  
 Gaussian, Inc.
 340 Quinnipiac St., Bldg. 40, Wallingford CT 06492
  
  
 ---------------------------------------------------------------
 Warning -- This program may not be used in any manner that
 competes with the business of Gaussian, Inc. or will provide
 assistance to any competitor of Gaussian, Inc.  The licensee
 of this program is prohibited from giving any competitor of
 Gaussian, Inc. access to this program.  By using this program,
 the user acknowledges that Gaussian, Inc. is engaged in the
 business of creating and licensing software in the field of
 computational chemistry and represents and warrants to the
 licensee that it is not a competitor of Gaussian, Inc. and that
 it will not use this program in any manner prohibited above.
 ---------------------------------------------------------------
  

 Cite this work as:
 Gaussian 09, Revision D.01,
 M. J. Frisch, G. W. Trucks, H. B. Schlegel, G. E. Scuseria, 
 M. A. Robb, J. R. Cheeseman, G. Scalmani, V. Barone, B. Mennucci, 
 G. A. Petersson, H. Nakatsuji, M. Caricato, X. Li, H. P. Hratchian, 
 A. F. Izmaylov, J. Bloino, G. Zheng, J. L. Sonnenberg, M. Hada, 
 M. Ehara, K. Toyota, R. Fukuda, J. Hasegawa, M. Ishida, T. Nakajima, 
 Y. Honda, O. Kitao, H. Nakai, T. Vreven, J. A. Montgomery, Jr., 
 J. E. Peralta, F. Ogliaro, M. Bearpark, J. J. Heyd, E. Brothers, 
 K. N. Kudin, V. N. Staroverov, T. Keith, R. Kobayashi, J. Normand, 
 K. Raghavachari, A. Rendell, J. C. Burant, S. S. Iyengar, J. Tomasi, 
 M. Cossi, N. Rega, J. M. Millam, M. Klene, J. E. Knox, J. B. Cross, 
 V. Bakken, C. Adamo, J. Jaramillo, R. Gomperts, R. E. Stratmann, 
 O. Yazyev, A. J. Austin, R. Cammi, C. Pomelli, J. W. Ochterski, 
 R. L. Martin, K. Morokuma, V. G. Zakrzewski, G. A. Voth, 
 P. Salvador, J. J. Dannenberg, S. Dapprich, A. D. Daniels, 
 O. Farkas, J. B. Foresman, J. V. Ortiz, J. Cioslowski, 
 and D. J. Fox, Gaussian, Inc., Wallingford CT, 2013.
 
 ******************************************
 Gaussian 09:  EM64L-G09RevD.01 24-Apr-2013
                21-Dec-2017 
 ******************************************
 %Mem=26GB
 %NProc=12
 Will use up to   12 processors via shared memory.
 %RWF=/home/michal/Cholesterol_grant/peroxy_params,20GB
 ------------------------
 #P MP2/cc-pVQZ SP Nosymm
 ------------------------
 1/38=1/1;
 2/12=2,15=1,17=6,18=5,40=1/2;
 3/5=16,6=2,11=9,16=1,25=1,30=1/1,2,3;
 4//1;
 5/5=2,38=5/2;
 8/10=1/1;
 9/16=-3/6;
 6/7=2,8=2,9=2,10=2/1;
 99/5=1,9=1/99;
 Leave Link    1 at Thu Dec 21 00:22:40 2017, MaxMem=  3489660928 cpu:         0.3
 (Enter /home/michal/g09/l101.exe)
 ------
 PEscan
 ------
 Symbolic Z-matrix:
 Charge =  0 Multiplicity = 1
 C                     0.01161  -0.00726   0.05894 
 C                     0.19915   0.0643    1.56545 
 O                     1.58229  -0.12151   1.79938 
 O                     1.83543  -0.05377   3.23815 
 H                     0.98294   0.26382   3.58431 
 H                     0.3384   -0.9883   -0.31805 
 H                    -0.1248    1.05343   1.95409 
 H                    -0.38866  -0.72478   2.07754 
 H                    -1.05069   0.13519  -0.19478 
 H                     0.60424   0.77702  -0.43609 
 
 NAtoms=     10 NQM=       10 NQMF=       0 NMMI=      0 NMMIF=      0
                NMic=       0 NMicF=      0.
                    Isotopes and Nuclear Properties:
 (Nuclear quadrupole moments (NQMom) in fm**2, nuclear magnetic moments (NMagM)
  in nuclear magnetons)

  Atom         1           2           3           4           5           6           7           8           9          10
 IAtWgt=          12          12          16          16           1           1           1           1           1           1
 AtmWgt=  12.0000000  12.0000000  15.9949146  15.9949146   1.0078250   1.0078250   1.0078250   1.0078250   1.0078250   1.0078250
 NucSpn=           0           0           0           0           1           1           1           1           1           1
 AtZEff=   0.0000000   0.0000000   0.0000000   0.0000000   0.0000000   0.0000000   0.0000000   0.0000000   0.0000000   0.0000000
 NQMom=    0.0000000   0.0000000   0.0000000   0.0000000   0.0000000   0.0000000   0.0000000   0.0000000   0.0000000   0.0000000
 NMagM=    0.0000000   0.0000000   0.0000000   0.0000000   2.7928460   2.7928460   2.7928460   2.7928460   2.7928460   2.7928460
 AtZNuc=   6.0000000   6.0000000   8.0000000   8.0000000   1.0000000   1.0000000   1.0000000   1.0000000   1.0000000   1.0000000
 Leave Link  101 at Thu Dec 21 00:22:40 2017, MaxMem=  3489660928 cpu:         0.5
 (Enter /home/michal/g09/l202.exe)
                          Input orientation:                          
 ---------------------------------------------------------------------
 Center     Atomic      Atomic             Coordinates (Angstroms)
 Number     Number       Type             X           Y           Z
 ---------------------------------------------------------------------
      1          6           0        0.011610   -0.007260    0.058940
      2          6           0        0.199150    0.064300    1.565450
      3          8           0        1.582290   -0.121510    1.799380
      4          8           0        1.835430   -0.053770    3.238150
      5          1           0        0.982940    0.263820    3.584310
      6          1           0        0.338400   -0.988300   -0.318050
      7          1           0       -0.124800    1.053430    1.954090
      8          1           0       -0.388660   -0.724780    2.077540
      9          1           0       -1.050690    0.135190   -0.194780
     10          1           0        0.604240    0.777020   -0.436090
 ---------------------------------------------------------------------
                    Distance matrix (angstroms):
                    1          2          3          4          5
     1  C    0.000000
     2  C    1.519824   0.000000
     3  O    2.347173   1.415035   0.000000
     4  O    3.665496   2.342921   1.462439   0.000000
     5  H    3.666770   2.174840   1.921894   0.973360   0.000000
     6  H    1.100615   2.162159   2.604246   3.970013   4.148693
     7  H    2.176066   1.111019   2.078118   2.591757   2.123250
     8  H    2.179403   1.109236   2.079892   2.596892   2.264723
     9  H    1.101430   2.159985   3.312877   4.488920   4.293451
    10  H    1.100618   2.162922   2.600243   3.963090   4.070676
                    6          7          8          9         10
     6  H    0.000000
     7  H    3.089634   0.000000
     8  H    2.517322   1.801914   0.000000
     9  H    1.790809   2.513579   2.518188   0.000000
    10  H    1.789122   2.514133   3.091859   1.791360   0.000000
 Symmetry turned off by external request.
 Stoichiometry    C2H6O2
 Framework group  C1[X(C2H6O2)]
 Deg. of freedom    24
 Full point group                 C1      NOp   1
 Rotational constants (GHZ):     30.5269919      4.1872812      3.8667112
 Leave Link  202 at Thu Dec 21 00:22:40 2017, MaxMem=  3489660928 cpu:         0.0
 (Enter /home/michal/g09/l301.exe)
 Standard basis: CC-pVQZ (5D, 7F)
 Ernie: Thresh=  0.10000D-02 Tol=  0.10000D-05 Strict=F.
 Ernie:  12 primitive shells out of 204 were deleted.
   400 basis functions,   578 primitive gaussians,   490 cartesian basis functions
    17 alpha electrons       17 beta electrons
       nuclear repulsion energy       130.9816645368 Hartrees.
 IExCor=    0 DFT=F Ex=HF Corr=None ExCW=0 ScaHFX=  1.000000
 ScaDFX=  1.000000  1.000000  1.000000  1.000000 ScalE2=  1.000000  1.000000
 IRadAn=      0 IRanWt=     -1 IRanGd=            0 ICorTp=0 IEmpDi=  4
 NAtoms=   10 NActive=   10 NUniq=   10 SFac= 1.00D+00 NAtFMM=   60 NAOKFM=F Big=F
 Integral buffers will be    131072 words long.
 Raffenetti 1 integral format.
 Two-electron integral symmetry is turned off.
 Leave Link  301 at Thu Dec 21 00:22:40 2017, MaxMem=  3489660928 cpu:         0.3
 (Enter /home/michal/g09/l302.exe)
 NPDir=0 NMtPBC=     1 NCelOv=     1 NCel=       1 NClECP=     1 NCelD=      1
         NCelK=      1 NCelE2=     1 NClLst=     1 CellRange=     0.0.
 One-electron integrals computed using PRISM.
 NBasis=   400 RedAO= T EigKep=  1.24D-04  NBF=   400
 NBsUse=   400 1.00D-06 EigRej= -1.00D+00 NBFU=   400
 Leave Link  302 at Thu Dec 21 00:22:40 2017, MaxMem=  3489660928 cpu:         6.1
 (Enter /home/michal/g09/l303.exe)
 DipDrv:  MaxL=1.
 Leave Link  303 at Thu Dec 21 00:22:40 2017, MaxMem=  3489660928 cpu:         0.5
 (Enter /home/michal/g09/l401.exe)
 ExpMin= 8.99D-02 ExpMax= 6.14D+04 ExpMxC= 5.91D+02 IAcc=2 IRadAn=         4 AccDes= 0.00D+00
 Harris functional with IExCor=  205 and IRadAn=       4 diagonalized for initial guess.
 HarFok:  IExCor=  205 AccDes= 0.00D+00 IRadAn=         4 IDoV= 1 UseB2=F ITyADJ=14
 ICtDFT=  3500011 ScaDFX=  1.000000  1.000000  1.000000  1.000000
 FoFCou: FMM=F IPFlag=           0 FMFlag=      100000 FMFlg1=           0
         NFxFlg=           0 DoJE=T BraDBF=F KetDBF=T FulRan=T
         wScrn=  0.000000 ICntrl=     500 IOpCl=  0 I1Cent=   200000004 NGrid=           0
         NMat0=    1 NMatS0=      1 NMatT0=    0 NMatD0=    1 NMtDS0=    0 NMtDT0=    0
 Symmetry not used in FoFCou.
 Harris En= -229.238979068137    
 JPrj=0 DoOrth=F DoCkMO=F.
 Leave Link  401 at Thu Dec 21 00:22:41 2017, MaxMem=  3489660928 cpu:        10.6
 (Enter /home/michal/g09/l502.exe)
 Closed shell SCF:
 Using DIIS extrapolation, IDIIS=  1040.
 Two-electron integral symmetry not used.
 Keep R1 ints in memory in canonical form, NReq=3275992930.
 IVT=      747690 IEndB=      747690 NGot=  3489660928 MDV=   272853139
 LenX=   272853139 LenY=   272612549
 Requested convergence on RMS density matrix=1.00D-08 within 128 cycles.
 Requested convergence on MAX density matrix=1.00D-06.
 Requested convergence on             energy=1.00D-06.
 No special actions if energy rises.
 FoFCou: FMM=F IPFlag=           0 FMFlag=           0 FMFlg1=           0
         NFxFlg=           0 DoJE=F BraDBF=F KetDBF=F FulRan=T
         wScrn=  0.000000 ICntrl=     600 IOpCl=  0 I1Cent=           0 NGrid=           0
         NMat0=    1 NMatS0=  80200 NMatT0=    0 NMatD0=    1 NMtDS0=    0 NMtDT0=    0
 Symmetry not used in FoFCou.

 Cycle   1  Pass 1  IDiag  1:
 E= -228.737564117700    
 DIIS: error= 3.22D-02 at cycle   1 NSaved=   1.
 NSaved= 1 IEnMin= 1 EnMin= -228.737564117700     IErMin= 1 ErrMin= 3.22D-02
 ErrMax= 3.22D-02  0.00D+00 EMaxC= 1.00D-01 BMatC= 4.75D-01 BMatP= 4.75D-01
 IDIUse=3 WtCom= 6.78D-01 WtEn= 3.22D-01
 Coeff-Com:  0.100D+01
 Coeff-En:   0.100D+01
 Coeff:      0.100D+01
 Gap=     0.687 Goal=   None    Shift=    0.000
 GapD=    0.687 DampG=2.000 DampE=0.500 DampFc=1.0000 IDamp=-1.
 RMSDP=7.55D-04 MaxDP=4.08D-02              OVMax= 1.25D-01

 Cycle   2  Pass 1  IDiag  1:
 E= -228.905842144844     Delta-E=       -0.168278027143 Rises=F Damp=F
 DIIS: error= 1.28D-02 at cycle   2 NSaved=   2.
 NSaved= 2 IEnMin= 2 EnMin= -228.905842144844     IErMin= 2 ErrMin= 1.28D-02
 ErrMax= 1.28D-02  0.00D+00 EMaxC= 1.00D-01 BMatC= 3.45D-02 BMatP= 4.75D-01
 IDIUse=3 WtCom= 8.72D-01 WtEn= 1.28D-01
 Coeff-Com:  0.120D+00 0.880D+00
 Coeff-En:   0.000D+00 0.100D+01
 Coeff:      0.104D+00 0.896D+00
 Gap=     0.562 Goal=   None    Shift=    0.000
 RMSDP=3.17D-04 MaxDP=1.83D-02 DE=-1.68D-01 OVMax= 4.12D-02

 Cycle   3  Pass 1  IDiag  1:
 E= -228.931121271503     Delta-E=       -0.025279126659 Rises=F Damp=F
 DIIS: error= 4.03D-03 at cycle   3 NSaved=   3.
 NSaved= 3 IEnMin= 3 EnMin= -228.931121271503     IErMin= 3 ErrMin= 4.03D-03
 ErrMax= 4.03D-03  0.00D+00 EMaxC= 1.00D-01 BMatC= 3.39D-03 BMatP= 3.45D-02
 IDIUse=3 WtCom= 9.60D-01 WtEn= 4.03D-02
 Coeff-Com: -0.218D-01 0.204D+00 0.818D+00
 Coeff-En:   0.000D+00 0.000D+00 0.100D+01
 Coeff:     -0.209D-01 0.196D+00 0.825D+00
 Gap=     0.544 Goal=   None    Shift=    0.000
 RMSDP=6.89D-05 MaxDP=4.57D-03 DE=-2.53D-02 OVMax= 1.14D-02

 Cycle   4  Pass 1  IDiag  1:
 E= -228.933937279225     Delta-E=       -0.002816007722 Rises=F Damp=F
 DIIS: error= 4.81D-04 at cycle   4 NSaved=   4.
 NSaved= 4 IEnMin= 4 EnMin= -228.933937279225     IErMin= 4 ErrMin= 4.81D-04
 ErrMax= 4.81D-04  0.00D+00 EMaxC= 1.00D-01 BMatC= 1.19D-04 BMatP= 3.39D-03
 IDIUse=3 WtCom= 9.95D-01 WtEn= 4.81D-03
 Coeff-Com: -0.654D-02 0.287D-01 0.186D+00 0.792D+00
 Coeff-En:   0.000D+00 0.000D+00 0.000D+00 0.100D+01
 Coeff:     -0.651D-02 0.285D-01 0.185D+00 0.793D+00
 Gap=     0.541 Goal=   None    Shift=    0.000
 RMSDP=1.68D-05 MaxDP=7.41D-04 DE=-2.82D-03 OVMax= 2.72D-03

 Cycle   5  Pass 1  IDiag  1:
 E= -228.934030252929     Delta-E=       -0.000092973703 Rises=F Damp=F
 DIIS: error= 2.45D-04 at cycle   5 NSaved=   5.
 NSaved= 5 IEnMin= 5 EnMin= -228.934030252929     IErMin= 5 ErrMin= 2.45D-04
 ErrMax= 2.45D-04  0.00D+00 EMaxC= 1.00D-01 BMatC= 1.85D-05 BMatP= 1.19D-04
 IDIUse=3 WtCom= 9.98D-01 WtEn= 2.45D-03
 Coeff-Com:  0.204D-02-0.278D-01-0.933D-01 0.198D+00 0.921D+00
 Coeff-En:   0.000D+00 0.000D+00 0.000D+00 0.000D+00 0.100D+01
 Coeff:      0.203D-02-0.277D-01-0.930D-01 0.198D+00 0.921D+00
 Gap=     0.542 Goal=   None    Shift=    0.000
 RMSDP=1.09D-05 MaxDP=5.54D-04 DE=-9.30D-05 OVMax= 1.77D-03

 Cycle   6  Pass 1  IDiag  1:
 E= -228.934052942780     Delta-E=       -0.000022689852 Rises=F Damp=F
 DIIS: error= 4.89D-05 at cycle   6 NSaved=   6.
 NSaved= 6 IEnMin= 6 EnMin= -228.934052942780     IErMin= 6 ErrMin= 4.89D-05
 ErrMax= 4.89D-05  0.00D+00 EMaxC= 1.00D-01 BMatC= 6.77D-07 BMatP= 1.85D-05
 IDIUse=1 WtCom= 1.00D+00 WtEn= 0.00D+00
 Coeff-Com:  0.491D-03-0.331D-02-0.140D-01-0.529D-01 0.367D-01 0.103D+01
 Coeff:      0.491D-03-0.331D-02-0.140D-01-0.529D-01 0.367D-01 0.103D+01
 Gap=     0.542 Goal=   None    Shift=    0.000
 RMSDP=2.66D-06 MaxDP=1.17D-04 DE=-2.27D-05 OVMax= 3.45D-04

 Cycle   7  Pass 1  IDiag  1:
 E= -228.934054168720     Delta-E=       -0.000001225940 Rises=F Damp=F
 DIIS: error= 1.13D-05 at cycle   7 NSaved=   7.
 NSaved= 7 IEnMin= 7 EnMin= -228.934054168720     IErMin= 7 ErrMin= 1.13D-05
 ErrMax= 1.13D-05  0.00D+00 EMaxC= 1.00D-01 BMatC= 5.15D-08 BMatP= 6.77D-07
 IDIUse=1 WtCom= 1.00D+00 WtEn= 0.00D+00
 Coeff-Com: -0.465D-04 0.109D-02 0.357D-02-0.150D-01-0.467D-01 0.635D-01
 Coeff-Com:  0.994D+00
 Coeff:     -0.465D-04 0.109D-02 0.357D-02-0.150D-01-0.467D-01 0.635D-01
 Coeff:      0.994D+00
 Gap=     0.542 Goal=   None    Shift=    0.000
 RMSDP=6.79D-07 MaxDP=3.73D-05 DE=-1.23D-06 OVMax= 1.07D-04

 Cycle   8  Pass 1  IDiag  1:
 E= -228.934054268568     Delta-E=       -0.000000099848 Rises=F Damp=F
 DIIS: error= 5.88D-06 at cycle   8 NSaved=   8.
 NSaved= 8 IEnMin= 8 EnMin= -228.934054268568     IErMin= 8 ErrMin= 5.88D-06
 ErrMax= 5.88D-06  0.00D+00 EMaxC= 1.00D-01 BMatC= 1.01D-08 BMatP= 5.15D-08
 IDIUse=1 WtCom= 1.00D+00 WtEn= 0.00D+00
 Coeff-Com: -0.748D-04 0.602D-03 0.251D-02 0.693D-02-0.982D-02-0.153D+00
 Coeff-Com:  0.160D+00 0.993D+00
 Coeff:     -0.748D-04 0.602D-03 0.251D-02 0.693D-02-0.982D-02-0.153D+00
 Coeff:      0.160D+00 0.993D+00
 Gap=     0.542 Goal=   None    Shift=    0.000
 RMSDP=2.87D-07 MaxDP=1.49D-05 DE=-9.98D-08 OVMax= 5.40D-05

 Cycle   9  Pass 1  IDiag  1:
 E= -228.934054287904     Delta-E=       -0.000000019335 Rises=F Damp=F
 DIIS: error= 1.82D-06 at cycle   9 NSaved=   9.
 NSaved= 9 IEnMin= 9 EnMin= -228.934054287904     IErMin= 9 ErrMin= 1.82D-06
 ErrMax= 1.82D-06  0.00D+00 EMaxC= 1.00D-01 BMatC= 8.52D-10 BMatP= 1.01D-08
 IDIUse=1 WtCom= 1.00D+00 WtEn= 0.00D+00
 Coeff-Com:  0.202D-04-0.226D-03-0.930D-03-0.495D-03 0.722D-02 0.340D-01
 Coeff-Com: -0.141D+00-0.290D+00 0.139D+01
 Coeff:      0.202D-04-0.226D-03-0.930D-03-0.495D-03 0.722D-02 0.340D-01
 Coeff:     -0.141D+00-0.290D+00 0.139D+01
 Gap=     0.542 Goal=   None    Shift=    0.000
 RMSDP=1.40D-07 MaxDP=5.26D-06 DE=-1.93D-08 OVMax= 2.74D-05

 Cycle  10  Pass 1  IDiag  1:
 E= -228.934054290974     Delta-E=       -0.000000003071 Rises=F Damp=F
 DIIS: error= 5.12D-07 at cycle  10 NSaved=  10.
 NSaved=10 IEnMin=10 EnMin= -228.934054290974     IErMin=10 ErrMin= 5.12D-07
 ErrMax= 5.12D-07  0.00D+00 EMaxC= 1.00D-01 BMatC= 7.44D-11 BMatP= 8.52D-10
 IDIUse=1 WtCom= 1.00D+00 WtEn= 0.00D+00
 Coeff-Com:  0.128D-05 0.378D-05 0.128D-04-0.558D-03-0.105D-02 0.601D-02
 Coeff-Com:  0.183D-01-0.299D-01-0.270D+00 0.128D+01
 Coeff:      0.128D-05 0.378D-05 0.128D-04-0.558D-03-0.105D-02 0.601D-02
 Coeff:      0.183D-01-0.299D-01-0.270D+00 0.128D+01
 Gap=     0.542 Goal=   None    Shift=    0.000
 RMSDP=4.02D-08 MaxDP=1.35D-06 DE=-3.07D-09 OVMax= 7.67D-06

 Cycle  11  Pass 1  IDiag  1:
 E= -228.934054291255     Delta-E=       -0.000000000281 Rises=F Damp=F
 DIIS: error= 1.89D-07 at cycle  11 NSaved=  11.
 NSaved=11 IEnMin=11 EnMin= -228.934054291255     IErMin=11 ErrMin= 1.89D-07
 ErrMax= 1.89D-07  0.00D+00 EMaxC= 1.00D-01 BMatC= 1.15D-11 BMatP= 7.44D-11
 IDIUse=1 WtCom= 1.00D+00 WtEn= 0.00D+00
 Coeff-Com: -0.202D-05 0.227D-04 0.933D-04 0.156D-03-0.597D-03-0.469D-02
 Coeff-Com:  0.135D-01 0.357D-01-0.131D+00-0.111D+00 0.120D+01
 Coeff:     -0.202D-05 0.227D-04 0.933D-04 0.156D-03-0.597D-03-0.469D-02
 Coeff:      0.135D-01 0.357D-01-0.131D+00-0.111D+00 0.120D+01
 Gap=     0.542 Goal=   None    Shift=    0.000
 RMSDP=1.51D-08 MaxDP=5.04D-07 DE=-2.81D-10 OVMax= 4.00D-06

 Cycle  12  Pass 1  IDiag  1:
 E= -228.934054291308     Delta-E=       -0.000000000053 Rises=F Damp=F
 DIIS: error= 1.01D-07 at cycle  12 NSaved=  12.
 NSaved=12 IEnMin=12 EnMin= -228.934054291308     IErMin=12 ErrMin= 1.01D-07
 ErrMax= 1.01D-07  0.00D+00 EMaxC= 1.00D-01 BMatC= 2.32D-12 BMatP= 1.15D-11
 IDIUse=1 WtCom= 1.00D+00 WtEn= 0.00D+00
 Coeff-Com: -0.585D-07-0.305D-05-0.122D-04 0.103D-03 0.249D-03-0.840D-03
 Coeff-Com: -0.437D-02 0.415D-02 0.578D-01-0.219D+00-0.128D+00 0.129D+01
 Coeff:     -0.585D-07-0.305D-05-0.122D-04 0.103D-03 0.249D-03-0.840D-03
 Coeff:     -0.437D-02 0.415D-02 0.578D-01-0.219D+00-0.128D+00 0.129D+01
 Gap=     0.542 Goal=   None    Shift=    0.000
 RMSDP=8.11D-09 MaxDP=3.34D-07 DE=-5.30D-11 OVMax= 2.52D-06

 SCF Done:  E(RHF) =  -228.934054291     A.U. after   12 cycles
            NFock= 12  Conv=0.81D-08     -V/T= 2.0017
 KE= 2.285544350213D+02 PE=-8.013499522915D+02 EE= 2.128797984422D+02
 Leave Link  502 at Thu Dec 21 00:24:29 2017, MaxMem=  3489660928 cpu:       734.6
 (Enter /home/michal/g09/l801.exe)
 ExpMin= 8.99D-02 ExpMax= 6.14D+04 ExpMxC= 5.91D+02 IAcc=3 IRadAn=         5 AccDes= 0.00D+00
 HarFok:  IExCor=  205 AccDes= 0.00D+00 IRadAn=         5 IDoV=-2 UseB2=F ITyADJ=14
 ICtDFT= 12500011 ScaDFX=  1.000000  1.000000  1.000000  1.000000
 Largest valence mixing into a core orbital is  1.81D-04
 Largest core mixing into a valence orbital is  3.00D-05
 Range of M.O.s used for correlation:     5   400
 NBasis=   400 NAE=    17 NBE=    17 NFC=     4 NFV=     0
 NROrb=    396 NOA=    13 NOB=    13 NVA=   383 NVB=   383

 **** Warning!!: The largest alpha MO coefficient is  0.21474270D+02

 Leave Link  801 at Thu Dec 21 00:24:30 2017, MaxMem=  3489660928 cpu:         1.2
 (Enter /home/michal/g09/l906.exe)
 FulOut=F Deriv=F AODrv=F NAtomX=    10
   MMem=        1311  MDisk=          13 MDiskD=          13
  W3Min=     2439710 MinDsk=     3998052 NBas6D=         490
 NBas2D=      121807    NTT=      120295    LW2=     4508827
    MDV=  3488919848 MDiskM=       15813 NBas2p=      115179
 Fully direct method using O(OVN) memory.
 IMap=   1   2   3   4   5   6   7   8   9  10  11  12  13
 JobTyp=1 Pass  1:  I=   1 to  13 NPSUse= 12 ParTrn=T ParDer=T DoDerP=F.
 Spin components of T(2) and E(2):
     alpha-alpha T2 =       0.2910701798D-01 E2=     -0.1042252785D+00
     alpha-beta  T2 =       0.1790986912D+00 E2=     -0.6946683474D+00
     beta-beta   T2 =       0.2910701798D-01 E2=     -0.1042252785D+00
 The integrals were generated   1 times.
 ANorm=    0.1112345597D+01
 E2 =    -0.9031189045D+00 EUMP2 =    -0.22983717319579D+03
 Leave Link  906 at Thu Dec 21 00:28:48 2017, MaxMem=  3489660928 cpu:      3070.0
 (Enter /home/michal/g09/l601.exe)
 Copying SCF densities to generalized density rwf, IOpCl= 0 IROHF=0.

 **********************************************************************

            Population analysis using the SCF density.

 **********************************************************************

 Alpha  occ. eigenvalues --  -20.62088 -20.61973 -11.29820 -11.23447  -1.46720
 Alpha  occ. eigenvalues --   -1.23015  -1.01413  -0.85853  -0.70650  -0.68446
 Alpha  occ. eigenvalues --   -0.63619  -0.58670  -0.56730  -0.53554  -0.51287
 Alpha  occ. eigenvalues --   -0.50857  -0.43656
 Alpha virt. eigenvalues --    0.10571   0.12429   0.15948   0.16891   0.18403
 Alpha virt. eigenvalues --    0.20436   0.22270   0.25422   0.26323   0.29737
 Alpha virt. eigenvalues --    0.33586   0.34867   0.36591   0.44735   0.45419
 Alpha virt. eigenvalues --    0.45692   0.48326   0.49452   0.50778   0.52828
 Alpha virt. eigenvalues --    0.53403   0.53906   0.55190   0.56513   0.61795
 Alpha virt. eigenvalues --    0.62652   0.64278   0.66593   0.69446   0.70691
 Alpha virt. eigenvalues --    0.71563   0.80099   0.81173   0.84751   0.85264
 Alpha virt. eigenvalues --    0.86072   0.89055   0.91044   0.91645   0.93366
 Alpha virt. eigenvalues --    0.94471   0.97442   1.01146   1.03185   1.04101
 Alpha virt. eigenvalues --    1.04931   1.07536   1.11079   1.11960   1.13387
 Alpha virt. eigenvalues --    1.14522   1.17611   1.18139   1.19599   1.20898
 Alpha virt. eigenvalues --    1.22108   1.23955   1.29972   1.33538   1.36690
 Alpha virt. eigenvalues --    1.44150   1.48368   1.50069   1.55516   1.60514
 Alpha virt. eigenvalues --    1.61939   1.65955   1.70452   1.73713   1.75548
 Alpha virt. eigenvalues --    1.76803   1.78913   1.80644   1.85789   1.89210
 Alpha virt. eigenvalues --    1.94141   1.95105   2.00119   2.01142   2.01961
 Alpha virt. eigenvalues --    2.04503   2.05727   2.08684   2.08841   2.09968
 Alpha virt. eigenvalues --    2.14692   2.17439   2.19478   2.21885   2.22680
 Alpha virt. eigenvalues --    2.24326   2.29193   2.30432   2.31088   2.34403
 Alpha virt. eigenvalues --    2.35116   2.37330   2.41098   2.41579   2.44901
 Alpha virt. eigenvalues --    2.46889   2.47645   2.54263   2.57974   2.59078
 Alpha virt. eigenvalues --    2.59848   2.62882   2.63308   2.67241   2.68263
 Alpha virt. eigenvalues --    2.69743   2.71950   2.75296   2.75986   2.79176
 Alpha virt. eigenvalues --    2.80224   2.81748   2.86031   2.86274   2.90601
 Alpha virt. eigenvalues --    2.92913   2.96605   2.99116   3.01566   3.05149
 Alpha virt. eigenvalues --    3.07296   3.08289   3.12898   3.18752   3.21235
 Alpha virt. eigenvalues --    3.22393   3.24966   3.27050   3.28678   3.31671
 Alpha virt. eigenvalues --    3.33272   3.36175   3.37889   3.40983   3.44181
 Alpha virt. eigenvalues --    3.44453   3.45214   3.51215   3.55886   3.57957
 Alpha virt. eigenvalues --    3.59394   3.61992   3.66204   3.70832   3.71271
 Alpha virt. eigenvalues --    3.75161   3.81764   3.83924   3.84977   3.87115
 Alpha virt. eigenvalues --    3.89843   3.96533   3.99995   4.02097   4.06084
 Alpha virt. eigenvalues --    4.09656   4.10483   4.13532   4.16229   4.16466
 Alpha virt. eigenvalues --    4.25883   4.27092   4.33137   4.34470   4.35726
 Alpha virt. eigenvalues --    4.44816   4.49009   4.52095   4.55037   4.57143
 Alpha virt. eigenvalues --    4.64815   4.65392   4.78209   4.79099   4.80683
 Alpha virt. eigenvalues --    4.97060   5.05095   5.07229   5.13793   5.23260
 Alpha virt. eigenvalues --    5.43381   5.51232   5.56590   5.59420   5.68188
 Alpha virt. eigenvalues --    5.70577   5.71730   5.72913   5.76061   5.87344
 Alpha virt. eigenvalues --    5.89180   5.97478   6.02541   6.05150   6.07142
 Alpha virt. eigenvalues --    6.08651   6.12266   6.14797   6.20091   6.21542
 Alpha virt. eigenvalues --    6.21866   6.26881   6.29555   6.32040   6.34747
 Alpha virt. eigenvalues --    6.35709   6.41507   6.42106   6.44101   6.47080
 Alpha virt. eigenvalues --    6.47957   6.50477   6.51398   6.52803   6.54237
 Alpha virt. eigenvalues --    6.55491   6.60205   6.62224   6.65244   6.67756
 Alpha virt. eigenvalues --    6.70979   6.77100   6.79774   6.84618   6.86074
 Alpha virt. eigenvalues --    6.89252   6.93864   6.96474   7.05705   7.05866
 Alpha virt. eigenvalues --    7.07577   7.10769   7.13208   7.19343   7.20458
 Alpha virt. eigenvalues --    7.24795   7.28859   7.31643   7.34250   7.37919
 Alpha virt. eigenvalues --    7.42081   7.51237   7.55061   7.58859   7.60126
 Alpha virt. eigenvalues --    7.62101   7.67357   7.77417   7.78059   7.81478
 Alpha virt. eigenvalues --    7.84710   7.86218   7.86541   7.89468   7.94265
 Alpha virt. eigenvalues --    7.99114   8.01251   8.02952   8.06056   8.07787
 Alpha virt. eigenvalues --    8.11638   8.14524   8.17436   8.20509   8.22004
 Alpha virt. eigenvalues --    8.25248   8.26582   8.29718   8.31841   8.36604
 Alpha virt. eigenvalues --    8.37265   8.39874   8.47770   8.50878   8.58551
 Alpha virt. eigenvalues --    8.64900   8.65562   8.70329   8.72110   8.74600
 Alpha virt. eigenvalues --    8.75325   8.78247   8.80317   8.82579   8.83454
 Alpha virt. eigenvalues --    8.83596   8.86285   8.89246   8.91531   8.93125
 Alpha virt. eigenvalues --    8.98170   8.99134   9.01494   9.04066   9.06392
 Alpha virt. eigenvalues --    9.10699   9.17087   9.20235   9.21485   9.24921
 Alpha virt. eigenvalues --    9.26611   9.33570   9.36066   9.37741   9.39980
 Alpha virt. eigenvalues --    9.46774   9.49677   9.51014   9.59076   9.69749
 Alpha virt. eigenvalues --    9.72487   9.84459   9.96244   9.98681  10.09123
 Alpha virt. eigenvalues --   10.12171  10.12933  10.19736  10.22327  10.28012
 Alpha virt. eigenvalues --   10.31517  10.33737  10.38318  10.39136  10.43951
 Alpha virt. eigenvalues --   10.47748  10.53318  10.55322  10.58629  10.61291
 Alpha virt. eigenvalues --   10.66527  10.67258  10.72539  10.73697  10.77635
 Alpha virt. eigenvalues --   10.92897  11.00266  11.01428  11.10806  11.35141
 Alpha virt. eigenvalues --   11.43221  11.51807  11.57521  11.64786  11.69736
 Alpha virt. eigenvalues --   11.70132  11.77759  11.84528  11.88501  11.95197
 Alpha virt. eigenvalues --   12.11145  12.14697  12.26057  12.35547  12.45879
 Alpha virt. eigenvalues --   12.51362  12.59259  12.61934  12.70784  12.75212
 Alpha virt. eigenvalues --   12.77676  12.79732  12.89028  13.08516  13.15753
 Alpha virt. eigenvalues --   13.21897  13.24102  13.49855  13.77272  14.03337
 Alpha virt. eigenvalues --   14.33515  14.36760  15.08040  16.58183  26.22777
 Alpha virt. eigenvalues --   27.01838  42.47725  44.34874
          Condensed to atoms (all electrons):
               1          2          3          4          5          6
     1  C    4.683634   0.367754  -0.037044   0.007187   0.000420   0.420075
     2  C    0.367754   4.510385   0.329054  -0.063347  -0.000208  -0.038095
     3  O   -0.037044   0.329054   7.944754   0.114846  -0.038815   0.000573
     4  O    0.007187  -0.063347   0.114846   7.879719   0.347095  -0.000152
     5  H    0.000420  -0.000208  -0.038815   0.347095   0.432129   0.000040
     6  H    0.420075  -0.038095   0.000573  -0.000152   0.000040   0.573906
     7  H   -0.031554   0.403939  -0.054370  -0.001814   0.005458   0.008799
     8  H   -0.027899   0.411966  -0.053132   0.002478   0.000011  -0.008832
     9  H    0.408768  -0.030198   0.002814  -0.000444   0.000136  -0.023709
    10  H    0.416078  -0.036177   0.000725  -0.000084   0.000034  -0.023186
               7          8          9         10
     1  C   -0.031554  -0.027899   0.408768   0.416078
     2  C    0.403939   0.411966  -0.030198  -0.036177
     3  O   -0.054370  -0.053132   0.002814   0.000725
     4  O   -0.001814   0.002478  -0.000444  -0.000084
     5  H    0.005458   0.000011   0.000136   0.000034
     6  H    0.008799  -0.008832  -0.023709  -0.023186
     7  H    0.755145  -0.094324  -0.001475  -0.009225
     8  H   -0.094324   0.725717  -0.001222   0.008683
     9  H   -0.001475  -0.001222   0.601538  -0.023686
    10  H   -0.009225   0.008683  -0.023686   0.577193
 Mulliken charges:
               1
     1  C   -0.207417
     2  C    0.144928
     3  O   -0.209406
     4  O   -0.285483
     5  H    0.253699
     6  H    0.090580
     7  H    0.019421
     8  H    0.036554
     9  H    0.067479
    10  H    0.089645
 Sum of Mulliken charges =   0.00000
 Mulliken charges with hydrogens summed into heavy atoms:
               1
     1  C    0.040287
     2  C    0.200904
     3  O   -0.209406
     4  O   -0.031784
 Electronic spatial extent (au):  <R**2>=            772.3456
 Charge=              0.0000 electrons
 Dipole moment (field-independent basis, Debye):
    X=             -3.1994    Y=              0.7020    Z=             -0.2620  Tot=              3.2860
 Quadrupole moment (field-independent basis, Debye-Ang):
   XX=            -32.7582   YY=            -25.1118   ZZ=            -24.0314
   XY=              0.7640   XZ=             -7.9905   YZ=              2.2975
 Traceless Quadrupole moment (field-independent basis, Debye-Ang):
   XX=             -5.4578   YY=              2.1887   ZZ=              3.2691
   XY=              0.7640   XZ=             -7.9905   YZ=              2.2975
 Octapole moment (field-independent basis, Debye-Ang**2):
  XXX=            -74.3123  YYY=              1.0050  ZZZ=           -106.8567  XYY=            -20.1163
  XXY=              1.0206  XXZ=            -59.9132  XZZ=            -40.0887  YZZ=              8.3469
  YYZ=            -40.2458  XYZ=              2.3097
 Hexadecapole moment (field-independent basis, Debye-Ang**3):
 XXXX=           -253.2572 YYYY=            -37.6501 ZZZZ=           -556.7946 XXXY=              3.4787
 XXXZ=           -191.6012 YYYX=              3.9882 YYYZ=              3.2438 ZZZX=           -206.4952
 ZZZY=             31.1140 XXYY=            -45.9658 XXZZ=           -199.6773 YYZZ=           -112.1321
 XXYZ=              1.9236 YYXZ=            -53.5649 ZZXY=              9.3588
 N-N= 1.309816645368D+02 E-N=-8.013499537819D+02  KE= 2.285544350213D+02
 Leave Link  601 at Thu Dec 21 00:28:48 2017, MaxMem=  3489660928 cpu:         0.5
 (Enter /home/michal/g09/l9999.exe)
 1\1\GINC-LINUX\SP\RMP2-FC\CC-pVQZ\C2H6O2\MICHAL\21-Dec-2017\0\\#P MP2/
 cc-pVQZ SP Nosymm\\PEscan\\0,1\C,0,0.01161,-0.00726,0.05894\C,0,0.1991
 5,0.0643,1.56545\O,0,1.58229,-0.12151,1.79938\O,0,1.83543,-0.05377,3.2
 3815\H,0,0.98294,0.26382,3.58431\H,0,0.3384,-0.9883,-0.31805\H,0,-0.12
 48,1.05343,1.95409\H,0,-0.38866,-0.72478,2.07754\H,0,-1.05069,0.13519,
 -0.19478\H,0,0.60424,0.77702,-0.43609\\Version=EM64L-G09RevD.01\HF=-22
 8.9340543\MP2=-229.8371732\RMSD=8.112e-09\PG=C01 [X(C2H6O2)]\\@


 THE REAL VOYAGE OF DISCOVERY CONSISTS NOT IN SEEKING NEW LANDSCAPES 
 BUT IN HAVING NEW EYES.
                                                    -- MARCEL PROUST
 Job cpu time:       0 days  1 hours  3 minutes 45.8 seconds.
 File lengths (MBytes):  RWF=    699 Int=      0 D2E=      0 Chk=      8 Scr=      1
 Normal termination of Gaussian 09 at Thu Dec 21 00:28:48 2017.
