 Entering Gaussian System, Link 0=g09
 Input=1HPP_mp2qz_023.com
 Output=1HPP_mp2qz_023.log
 Initial command:
 /home/michal/g09/l1.exe "/home/michal/gauss_scratch/Gau-31373.inp" -scrdir="/home/michal/gauss_scratch/"
 Entering Link 1 = /home/michal/g09/l1.exe PID=     31374.
  
 Copyright (c) 1988,1990,1992,1993,1995,1998,2003,2009,2013,
            Gaussian, Inc.  All Rights Reserved.
  
 This is part of the Gaussian(R) 09 program.  It is based on
 the Gaussian(R) 03 system (copyright 2003, Gaussian, Inc.),
 the Gaussian(R) 98 system (copyright 1998, Gaussian, Inc.),
 the Gaussian(R) 94 system (copyright 1995, Gaussian, Inc.),
 the Gaussian 92(TM) system (copyright 1992, Gaussian, Inc.),
 the Gaussian 90(TM) system (copyright 1990, Gaussian, Inc.),
 the Gaussian 88(TM) system (copyright 1988, Gaussian, Inc.),
 the Gaussian 86(TM) system (copyright 1986, Carnegie Mellon
 University), and the Gaussian 82(TM) system (copyright 1983,
 Carnegie Mellon University). Gaussian is a federally registered
 trademark of Gaussian, Inc.
  
 This software contains proprietary and confidential information,
 including trade secrets, belonging to Gaussian, Inc.
  
 This software is provided under written license and may be
 used, copied, transmitted, or stored only in accord with that
 written license.
  
 The following legend is applicable only to US Government
 contracts under FAR:
  
                    RESTRICTED RIGHTS LEGEND
  
 Use, reproduction and disclosure by the US Government is
 subject to restrictions as set forth in subparagraphs (a)
 and (c) of the Commercial Computer Software - Restricted
 Rights clause in FAR 52.227-19.
  
 Gaussian, Inc.
 340 Quinnipiac St., Bldg. 40, Wallingford CT 06492
  
  
 ---------------------------------------------------------------
 Warning -- This program may not be used in any manner that
 competes with the business of Gaussian, Inc. or will provide
 assistance to any competitor of Gaussian, Inc.  The licensee
 of this program is prohibited from giving any competitor of
 Gaussian, Inc. access to this program.  By using this program,
 the user acknowledges that Gaussian, Inc. is engaged in the
 business of creating and licensing software in the field of
 computational chemistry and represents and warrants to the
 licensee that it is not a competitor of Gaussian, Inc. and that
 it will not use this program in any manner prohibited above.
 ---------------------------------------------------------------
  

 Cite this work as:
 Gaussian 09, Revision D.01,
 M. J. Frisch, G. W. Trucks, H. B. Schlegel, G. E. Scuseria, 
 M. A. Robb, J. R. Cheeseman, G. Scalmani, V. Barone, B. Mennucci, 
 G. A. Petersson, H. Nakatsuji, M. Caricato, X. Li, H. P. Hratchian, 
 A. F. Izmaylov, J. Bloino, G. Zheng, J. L. Sonnenberg, M. Hada, 
 M. Ehara, K. Toyota, R. Fukuda, J. Hasegawa, M. Ishida, T. Nakajima, 
 Y. Honda, O. Kitao, H. Nakai, T. Vreven, J. A. Montgomery, Jr., 
 J. E. Peralta, F. Ogliaro, M. Bearpark, J. J. Heyd, E. Brothers, 
 K. N. Kudin, V. N. Staroverov, T. Keith, R. Kobayashi, J. Normand, 
 K. Raghavachari, A. Rendell, J. C. Burant, S. S. Iyengar, J. Tomasi, 
 M. Cossi, N. Rega, J. M. Millam, M. Klene, J. E. Knox, J. B. Cross, 
 V. Bakken, C. Adamo, J. Jaramillo, R. Gomperts, R. E. Stratmann, 
 O. Yazyev, A. J. Austin, R. Cammi, C. Pomelli, J. W. Ochterski, 
 R. L. Martin, K. Morokuma, V. G. Zakrzewski, G. A. Voth, 
 P. Salvador, J. J. Dannenberg, S. Dapprich, A. D. Daniels, 
 O. Farkas, J. B. Foresman, J. V. Ortiz, J. Cioslowski, 
 and D. J. Fox, Gaussian, Inc., Wallingford CT, 2013.
 
 ******************************************
 Gaussian 09:  EM64L-G09RevD.01 24-Apr-2013
                21-Dec-2017 
 ******************************************
 %Mem=26GB
 %NProc=12
 Will use up to   12 processors via shared memory.
 %RWF=/home/michal/Cholesterol_grant/peroxy_params,20GB
 ------------------------
 #P MP2/cc-pVQZ SP Nosymm
 ------------------------
 1/38=1/1;
 2/12=2,15=1,17=6,18=5,40=1/2;
 3/5=16,6=2,11=9,16=1,25=1,30=1/1,2,3;
 4//1;
 5/5=2,38=5/2;
 8/10=1/1;
 9/16=-3/6;
 6/7=2,8=2,9=2,10=2/1;
 99/5=1,9=1/99;
 Leave Link    1 at Thu Dec 21 00:53:10 2017, MaxMem=  3489660928 cpu:         0.3
 (Enter /home/michal/g09/l101.exe)
 ------
 PEscan
 ------
 Symbolic Z-matrix:
 Charge =  0 Multiplicity = 1
 C                     0.01118  -0.0273    0.05941 
 C                     0.19817   0.16756   1.55489 
 O                     1.57834  -0.02744   1.80989 
 O                     1.8063    0.1704    3.23343 
 H                     1.02067  -0.26269   3.61565 
 H                     0.33757  -1.03518  -0.23968 
 H                    -0.11357   1.17984   1.8758 
 H                    -0.40163  -0.57742   2.12296 
 H                    -1.05076   0.09565  -0.20602 
 H                     0.60362   0.71472  -0.49739 
 
 NAtoms=     10 NQM=       10 NQMF=       0 NMMI=      0 NMMIF=      0
                NMic=       0 NMicF=      0.
                    Isotopes and Nuclear Properties:
 (Nuclear quadrupole moments (NQMom) in fm**2, nuclear magnetic moments (NMagM)
  in nuclear magnetons)

  Atom         1           2           3           4           5           6           7           8           9          10
 IAtWgt=          12          12          16          16           1           1           1           1           1           1
 AtmWgt=  12.0000000  12.0000000  15.9949146  15.9949146   1.0078250   1.0078250   1.0078250   1.0078250   1.0078250   1.0078250
 NucSpn=           0           0           0           0           1           1           1           1           1           1
 AtZEff=   0.0000000   0.0000000   0.0000000   0.0000000   0.0000000   0.0000000   0.0000000   0.0000000   0.0000000   0.0000000
 NQMom=    0.0000000   0.0000000   0.0000000   0.0000000   0.0000000   0.0000000   0.0000000   0.0000000   0.0000000   0.0000000
 NMagM=    0.0000000   0.0000000   0.0000000   0.0000000   2.7928460   2.7928460   2.7928460   2.7928460   2.7928460   2.7928460
 AtZNuc=   6.0000000   6.0000000   8.0000000   8.0000000   1.0000000   1.0000000   1.0000000   1.0000000   1.0000000   1.0000000
 Leave Link  101 at Thu Dec 21 00:53:10 2017, MaxMem=  3489660928 cpu:         0.5
 (Enter /home/michal/g09/l202.exe)
                          Input orientation:                          
 ---------------------------------------------------------------------
 Center     Atomic      Atomic             Coordinates (Angstroms)
 Number     Number       Type             X           Y           Z
 ---------------------------------------------------------------------
      1          6           0        0.011180   -0.027300    0.059410
      2          6           0        0.198170    0.167560    1.554890
      3          8           0        1.578340   -0.027440    1.809890
      4          8           0        1.806300    0.170400    3.233430
      5          1           0        1.020670   -0.262690    3.615650
      6          1           0        0.337570   -1.035180   -0.239680
      7          1           0       -0.113570    1.179840    1.875800
      8          1           0       -0.401630   -0.577420    2.122960
      9          1           0       -1.050760    0.095650   -0.206020
     10          1           0        0.603620    0.714720   -0.497390
 ---------------------------------------------------------------------
                    Distance matrix (angstroms):
                    1          2          3          4          5
     1  C    0.000000
     2  C    1.519670   0.000000
     3  O    2.349504   1.417011   0.000000
     4  O    3.651841   2.324562   1.455188   0.000000
     5  H    3.704230   2.260167   1.904497   0.975127   0.000000
     6  H    1.100821   2.164832   2.599190   3.958925   3.990857
     7  H    2.184496   1.106741   2.079526   2.558912   2.528729
     8  H    2.175151   1.112411   2.078647   2.582118   2.085693
     9  H    1.101493   2.160047   3.315300   4.471934   4.361696
    10  H    1.100729   2.162320   2.612359   3.957492   4.248101
                    6          7          8          9         10
     6  H    0.000000
     7  H    3.095981   0.000000
     8  H    2.517544   1.797785   0.000000
     9  H    1.790913   2.527403   2.509689   0.000000
    10  H    1.788672   2.522445   3.089723   1.790284   0.000000
 Symmetry turned off by external request.
 Stoichiometry    C2H6O2
 Framework group  C1[X(C2H6O2)]
 Deg. of freedom    24
 Full point group                 C1      NOp   1
 Rotational constants (GHZ):     30.4135588      4.1995784      3.8929806
 Leave Link  202 at Thu Dec 21 00:53:10 2017, MaxMem=  3489660928 cpu:         0.1
 (Enter /home/michal/g09/l301.exe)
 Standard basis: CC-pVQZ (5D, 7F)
 Ernie: Thresh=  0.10000D-02 Tol=  0.10000D-05 Strict=F.
 Ernie:  12 primitive shells out of 204 were deleted.
   400 basis functions,   578 primitive gaussians,   490 cartesian basis functions
    17 alpha electrons       17 beta electrons
       nuclear repulsion energy       131.1303055395 Hartrees.
 IExCor=    0 DFT=F Ex=HF Corr=None ExCW=0 ScaHFX=  1.000000
 ScaDFX=  1.000000  1.000000  1.000000  1.000000 ScalE2=  1.000000  1.000000
 IRadAn=      0 IRanWt=     -1 IRanGd=            0 ICorTp=0 IEmpDi=  4
 NAtoms=   10 NActive=   10 NUniq=   10 SFac= 1.00D+00 NAtFMM=   60 NAOKFM=F Big=F
 Integral buffers will be    131072 words long.
 Raffenetti 1 integral format.
 Two-electron integral symmetry is turned off.
 Leave Link  301 at Thu Dec 21 00:53:10 2017, MaxMem=  3489660928 cpu:         0.3
 (Enter /home/michal/g09/l302.exe)
 NPDir=0 NMtPBC=     1 NCelOv=     1 NCel=       1 NClECP=     1 NCelD=      1
         NCelK=      1 NCelE2=     1 NClLst=     1 CellRange=     0.0.
 One-electron integrals computed using PRISM.
 NBasis=   400 RedAO= T EigKep=  1.30D-04  NBF=   400
 NBsUse=   400 1.00D-06 EigRej= -1.00D+00 NBFU=   400
 Leave Link  302 at Thu Dec 21 00:53:11 2017, MaxMem=  3489660928 cpu:         6.1
 (Enter /home/michal/g09/l303.exe)
 DipDrv:  MaxL=1.
 Leave Link  303 at Thu Dec 21 00:53:11 2017, MaxMem=  3489660928 cpu:         0.5
 (Enter /home/michal/g09/l401.exe)
 ExpMin= 8.99D-02 ExpMax= 6.14D+04 ExpMxC= 5.91D+02 IAcc=2 IRadAn=         4 AccDes= 0.00D+00
 Harris functional with IExCor=  205 and IRadAn=       4 diagonalized for initial guess.
 HarFok:  IExCor=  205 AccDes= 0.00D+00 IRadAn=         4 IDoV= 1 UseB2=F ITyADJ=14
 ICtDFT=  3500011 ScaDFX=  1.000000  1.000000  1.000000  1.000000
 FoFCou: FMM=F IPFlag=           0 FMFlag=      100000 FMFlg1=           0
         NFxFlg=           0 DoJE=T BraDBF=F KetDBF=T FulRan=T
         wScrn=  0.000000 ICntrl=     500 IOpCl=  0 I1Cent=   200000004 NGrid=           0
         NMat0=    1 NMatS0=      1 NMatT0=    0 NMatD0=    1 NMtDS0=    0 NMtDT0=    0
 Symmetry not used in FoFCou.
 Harris En= -229.241874613034    
 JPrj=0 DoOrth=F DoCkMO=F.
 Leave Link  401 at Thu Dec 21 00:53:12 2017, MaxMem=  3489660928 cpu:        11.2
 (Enter /home/michal/g09/l502.exe)
 Closed shell SCF:
 Using DIIS extrapolation, IDIIS=  1040.
 Two-electron integral symmetry not used.
 Keep R1 ints in memory in canonical form, NReq=3275992930.
 IVT=      747690 IEndB=      747690 NGot=  3489660928 MDV=   272853139
 LenX=   272853139 LenY=   272612549
 Requested convergence on RMS density matrix=1.00D-08 within 128 cycles.
 Requested convergence on MAX density matrix=1.00D-06.
 Requested convergence on             energy=1.00D-06.
 No special actions if energy rises.
 FoFCou: FMM=F IPFlag=           0 FMFlag=           0 FMFlg1=           0
         NFxFlg=           0 DoJE=F BraDBF=F KetDBF=F FulRan=T
         wScrn=  0.000000 ICntrl=     600 IOpCl=  0 I1Cent=           0 NGrid=           0
         NMat0=    1 NMatS0=  80200 NMatT0=    0 NMatD0=    1 NMtDS0=    0 NMtDT0=    0
 Symmetry not used in FoFCou.

 Cycle   1  Pass 1  IDiag  1:
 E= -228.740524631218    
 DIIS: error= 3.30D-02 at cycle   1 NSaved=   1.
 NSaved= 1 IEnMin= 1 EnMin= -228.740524631218     IErMin= 1 ErrMin= 3.30D-02
 ErrMax= 3.30D-02  0.00D+00 EMaxC= 1.00D-01 BMatC= 4.76D-01 BMatP= 4.76D-01
 IDIUse=3 WtCom= 6.70D-01 WtEn= 3.30D-01
 Coeff-Com:  0.100D+01
 Coeff-En:   0.100D+01
 Coeff:      0.100D+01
 Gap=     0.698 Goal=   None    Shift=    0.000
 GapD=    0.698 DampG=2.000 DampE=0.500 DampFc=1.0000 IDamp=-1.
 RMSDP=7.60D-04 MaxDP=4.56D-02              OVMax= 1.24D-01

 Cycle   2  Pass 1  IDiag  1:
 E= -228.909353422906     Delta-E=       -0.168828791688 Rises=F Damp=F
 DIIS: error= 1.12D-02 at cycle   2 NSaved=   2.
 NSaved= 2 IEnMin= 2 EnMin= -228.909353422906     IErMin= 2 ErrMin= 1.12D-02
 ErrMax= 1.12D-02  0.00D+00 EMaxC= 1.00D-01 BMatC= 3.45D-02 BMatP= 4.76D-01
 IDIUse=3 WtCom= 8.88D-01 WtEn= 1.12D-01
 Coeff-Com:  0.120D+00 0.880D+00
 Coeff-En:   0.000D+00 0.100D+01
 Coeff:      0.106D+00 0.894D+00
 Gap=     0.651 Goal=   None    Shift=    0.000
 RMSDP=3.33D-04 MaxDP=1.83D-02 DE=-1.69D-01 OVMax= 4.40D-02

 Cycle   3  Pass 1  IDiag  1:
 E= -228.934713286582     Delta-E=       -0.025359863676 Rises=F Damp=F
 DIIS: error= 3.33D-03 at cycle   3 NSaved=   3.
 NSaved= 3 IEnMin= 3 EnMin= -228.934713286582     IErMin= 3 ErrMin= 3.33D-03
 ErrMax= 3.33D-03  0.00D+00 EMaxC= 1.00D-01 BMatC= 3.36D-03 BMatP= 3.45D-02
 IDIUse=3 WtCom= 9.67D-01 WtEn= 3.33D-02
 Coeff-Com: -0.216D-01 0.203D+00 0.819D+00
 Coeff-En:   0.000D+00 0.000D+00 0.100D+01
 Coeff:     -0.209D-01 0.196D+00 0.825D+00
 Gap=     0.549 Goal=   None    Shift=    0.000
 RMSDP=6.90D-05 MaxDP=4.54D-03 DE=-2.54D-02 OVMax= 1.18D-02

 Cycle   4  Pass 1  IDiag  1:
 E= -228.937505770624     Delta-E=       -0.002792484042 Rises=F Damp=F
 DIIS: error= 4.77D-04 at cycle   4 NSaved=   4.
 NSaved= 4 IEnMin= 4 EnMin= -228.937505770624     IErMin= 4 ErrMin= 4.77D-04
 ErrMax= 4.77D-04  0.00D+00 EMaxC= 1.00D-01 BMatC= 1.21D-04 BMatP= 3.36D-03
 IDIUse=3 WtCom= 9.95D-01 WtEn= 4.77D-03
 Coeff-Com: -0.666D-02 0.296D-01 0.190D+00 0.787D+00
 Coeff-En:   0.000D+00 0.000D+00 0.000D+00 0.100D+01
 Coeff:     -0.663D-02 0.294D-01 0.189D+00 0.788D+00
 Gap=     0.546 Goal=   None    Shift=    0.000
 RMSDP=1.90D-05 MaxDP=8.49D-04 DE=-2.79D-03 OVMax= 2.55D-03

 Cycle   5  Pass 1  IDiag  1:
 E= -228.937599643955     Delta-E=       -0.000093873331 Rises=F Damp=F
 DIIS: error= 2.54D-04 at cycle   5 NSaved=   5.
 NSaved= 5 IEnMin= 5 EnMin= -228.937599643955     IErMin= 5 ErrMin= 2.54D-04
 ErrMax= 2.54D-04  0.00D+00 EMaxC= 1.00D-01 BMatC= 1.82D-05 BMatP= 1.21D-04
 IDIUse=3 WtCom= 9.97D-01 WtEn= 2.54D-03
 Coeff-Com:  0.199D-02-0.272D-01-0.923D-01 0.191D+00 0.927D+00
 Coeff-En:   0.000D+00 0.000D+00 0.000D+00 0.000D+00 0.100D+01
 Coeff:      0.199D-02-0.272D-01-0.921D-01 0.190D+00 0.927D+00
 Gap=     0.547 Goal=   None    Shift=    0.000
 RMSDP=1.12D-05 MaxDP=5.42D-04 DE=-9.39D-05 OVMax= 1.69D-03

 Cycle   6  Pass 1  IDiag  1:
 E= -228.937622122640     Delta-E=       -0.000022478685 Rises=F Damp=F
 DIIS: error= 5.21D-05 at cycle   6 NSaved=   6.
 NSaved= 6 IEnMin= 6 EnMin= -228.937622122640     IErMin= 6 ErrMin= 5.21D-05
 ErrMax= 5.21D-05  0.00D+00 EMaxC= 1.00D-01 BMatC= 6.96D-07 BMatP= 1.82D-05
 IDIUse=1 WtCom= 1.00D+00 WtEn= 0.00D+00
 Coeff-Com:  0.517D-03-0.362D-02-0.151D-01-0.506D-01 0.455D-01 0.102D+01
 Coeff:      0.517D-03-0.362D-02-0.151D-01-0.506D-01 0.455D-01 0.102D+01
 Gap=     0.548 Goal=   None    Shift=    0.000
 RMSDP=3.13D-06 MaxDP=1.66D-04 DE=-2.25D-05 OVMax= 3.30D-04

 Cycle   7  Pass 1  IDiag  1:
 E= -228.937623369196     Delta-E=       -0.000001246556 Rises=F Damp=F
 DIIS: error= 9.86D-06 at cycle   7 NSaved=   7.
 NSaved= 7 IEnMin= 7 EnMin= -228.937623369196     IErMin= 7 ErrMin= 9.86D-06
 ErrMax= 9.86D-06  0.00D+00 EMaxC= 1.00D-01 BMatC= 5.80D-08 BMatP= 6.96D-07
 IDIUse=1 WtCom= 1.00D+00 WtEn= 0.00D+00
 Coeff-Com: -0.354D-04 0.101D-02 0.330D-02-0.159D-01-0.473D-01 0.822D-01
 Coeff-Com:  0.977D+00
 Coeff:     -0.354D-04 0.101D-02 0.330D-02-0.159D-01-0.473D-01 0.822D-01
 Coeff:      0.977D+00
 Gap=     0.548 Goal=   None    Shift=    0.000
 RMSDP=7.72D-07 MaxDP=3.64D-05 DE=-1.25D-06 OVMax= 9.72D-05

 Cycle   8  Pass 1  IDiag  1:
 E= -228.937623485014     Delta-E=       -0.000000115818 Rises=F Damp=F
 DIIS: error= 5.10D-06 at cycle   8 NSaved=   8.
 NSaved= 8 IEnMin= 8 EnMin= -228.937623485014     IErMin= 8 ErrMin= 5.10D-06
 ErrMax= 5.10D-06  0.00D+00 EMaxC= 1.00D-01 BMatC= 1.18D-08 BMatP= 5.80D-08
 IDIUse=1 WtCom= 1.00D+00 WtEn= 0.00D+00
 Coeff-Com: -0.769D-04 0.606D-03 0.253D-02 0.750D-02-0.915D-02-0.160D+00
 Coeff-Com:  0.123D+00 0.104D+01
 Coeff:     -0.769D-04 0.606D-03 0.253D-02 0.750D-02-0.915D-02-0.160D+00
 Coeff:      0.123D+00 0.104D+01
 Gap=     0.548 Goal=   None    Shift=    0.000
 RMSDP=3.92D-07 MaxDP=1.84D-05 DE=-1.16D-07 OVMax= 6.85D-05

 Cycle   9  Pass 1  IDiag  1:
 E= -228.937623512236     Delta-E=       -0.000000027222 Rises=F Damp=F
 DIIS: error= 1.61D-06 at cycle   9 NSaved=   9.
 NSaved= 9 IEnMin= 9 EnMin= -228.937623512236     IErMin= 9 ErrMin= 1.61D-06
 ErrMax= 1.61D-06  0.00D+00 EMaxC= 1.00D-01 BMatC= 1.43D-09 BMatP= 1.18D-08
 IDIUse=1 WtCom= 1.00D+00 WtEn= 0.00D+00
 Coeff-Com:  0.251D-04-0.275D-03-0.113D-02-0.724D-03 0.877D-02 0.410D-01
 Coeff-Com: -0.151D+00-0.360D+00 0.146D+01
 Coeff:      0.251D-04-0.275D-03-0.113D-02-0.724D-03 0.877D-02 0.410D-01
 Coeff:     -0.151D+00-0.360D+00 0.146D+01
 Gap=     0.548 Goal=   None    Shift=    0.000
 RMSDP=2.01D-07 MaxDP=7.97D-06 DE=-2.72D-08 OVMax= 4.95D-05

 Cycle  10  Pass 1  IDiag  1:
 E= -228.937623518419     Delta-E=       -0.000000006183 Rises=F Damp=F
 DIIS: error= 6.56D-07 at cycle  10 NSaved=  10.
 NSaved=10 IEnMin=10 EnMin= -228.937623518419     IErMin=10 ErrMin= 6.56D-07
 ErrMax= 6.56D-07  0.00D+00 EMaxC= 1.00D-01 BMatC= 1.99D-10 BMatP= 1.43D-09
 IDIUse=1 WtCom= 1.00D+00 WtEn= 0.00D+00
 Coeff-Com:  0.226D-05 0.774D-07 0.150D-05-0.783D-03-0.136D-02 0.857D-02
 Coeff-Com:  0.261D-01-0.351D-01-0.364D+00 0.137D+01
 Coeff:      0.226D-05 0.774D-07 0.150D-05-0.783D-03-0.136D-02 0.857D-02
 Coeff:      0.261D-01-0.351D-01-0.364D+00 0.137D+01
 Gap=     0.548 Goal=   None    Shift=    0.000
 RMSDP=7.63D-08 MaxDP=3.03D-06 DE=-6.18D-09 OVMax= 2.26D-05

 Cycle  11  Pass 1  IDiag  1:
 E= -228.937623519342     Delta-E=       -0.000000000923 Rises=F Damp=F
 DIIS: error= 2.83D-07 at cycle  11 NSaved=  11.
 NSaved=11 IEnMin=11 EnMin= -228.937623519342     IErMin=11 ErrMin= 2.83D-07
 ErrMax= 2.83D-07  0.00D+00 EMaxC= 1.00D-01 BMatC= 3.76D-11 BMatP= 1.99D-10
 IDIUse=1 WtCom= 1.00D+00 WtEn= 0.00D+00
 Coeff-Com: -0.394D-05 0.436D-04 0.182D-03 0.271D-03-0.121D-02-0.884D-02
 Coeff-Com:  0.239D-01 0.710D-01-0.243D+00-0.807D-01 0.124D+01
 Coeff:     -0.394D-05 0.436D-04 0.182D-03 0.271D-03-0.121D-02-0.884D-02
 Coeff:      0.239D-01 0.710D-01-0.243D+00-0.807D-01 0.124D+01
 Gap=     0.548 Goal=   None    Shift=    0.000
 RMSDP=3.36D-08 MaxDP=1.45D-06 DE=-9.23D-10 OVMax= 1.04D-05

 Cycle  12  Pass 1  IDiag  1:
 E= -228.937623519505     Delta-E=       -0.000000000163 Rises=F Damp=F
 DIIS: error= 9.21D-08 at cycle  12 NSaved=  12.
 NSaved=12 IEnMin=12 EnMin= -228.937623519505     IErMin=12 ErrMin= 9.21D-08
 ErrMax= 9.21D-08  0.00D+00 EMaxC= 1.00D-01 BMatC= 5.36D-12 BMatP= 3.76D-11
 IDIUse=1 WtCom= 1.00D+00 WtEn= 0.00D+00
 Coeff-Com: -0.976D-07-0.463D-05-0.187D-04 0.158D-03 0.408D-03-0.133D-02
 Coeff-Com: -0.668D-02 0.556D-02 0.803D-01-0.244D+00-0.120D+00 0.129D+01
 Coeff:     -0.976D-07-0.463D-05-0.187D-04 0.158D-03 0.408D-03-0.133D-02
 Coeff:     -0.668D-02 0.556D-02 0.803D-01-0.244D+00-0.120D+00 0.129D+01
 Gap=     0.548 Goal=   None    Shift=    0.000
 RMSDP=1.39D-08 MaxDP=6.31D-07 DE=-1.63D-10 OVMax= 4.24D-06

 Cycle  13  Pass 1  IDiag  1:
 E= -228.937623519532     Delta-E=       -0.000000000027 Rises=F Damp=F
 DIIS: error= 2.71D-08 at cycle  13 NSaved=  13.
 NSaved=13 IEnMin=13 EnMin= -228.937623519532     IErMin=13 ErrMin= 2.71D-08
 ErrMax= 2.71D-08  0.00D+00 EMaxC= 1.00D-01 BMatC= 4.55D-13 BMatP= 5.36D-12
 IDIUse=1 WtCom= 1.00D+00 WtEn= 0.00D+00
 Coeff-Com:  0.458D-06-0.435D-05-0.172D-04-0.564D-04 0.620D-04 0.118D-02
 Coeff-Com: -0.163D-02-0.867D-02 0.143D-01 0.460D-01-0.115D+00-0.191D+00
 Coeff-Com:  0.126D+01
 Coeff:      0.458D-06-0.435D-05-0.172D-04-0.564D-04 0.620D-04 0.118D-02
 Coeff:     -0.163D-02-0.867D-02 0.143D-01 0.460D-01-0.115D+00-0.191D+00
 Coeff:      0.126D+01
 Gap=     0.548 Goal=   None    Shift=    0.000
 RMSDP=3.69D-09 MaxDP=1.44D-07 DE=-2.67D-11 OVMax= 9.89D-07

 SCF Done:  E(RHF) =  -228.937623520     A.U. after   13 cycles
            NFock= 13  Conv=0.37D-08     -V/T= 2.0017
 KE= 2.285579195464D+02 PE=-8.016773917688D+02 EE= 2.130515431634D+02
 Leave Link  502 at Thu Dec 21 00:55:02 2017, MaxMem=  3489660928 cpu:       726.4
 (Enter /home/michal/g09/l801.exe)
 ExpMin= 8.99D-02 ExpMax= 6.14D+04 ExpMxC= 5.91D+02 IAcc=3 IRadAn=         5 AccDes= 0.00D+00
 HarFok:  IExCor=  205 AccDes= 0.00D+00 IRadAn=         5 IDoV=-2 UseB2=F ITyADJ=14
 ICtDFT= 12500011 ScaDFX=  1.000000  1.000000  1.000000  1.000000
 Largest valence mixing into a core orbital is  1.81D-04
 Largest core mixing into a valence orbital is  3.01D-05
 Range of M.O.s used for correlation:     5   400
 NBasis=   400 NAE=    17 NBE=    17 NFC=     4 NFV=     0
 NROrb=    396 NOA=    13 NOB=    13 NVA=   383 NVB=   383

 **** Warning!!: The largest alpha MO coefficient is  0.21078361D+02

 Leave Link  801 at Thu Dec 21 00:55:03 2017, MaxMem=  3489660928 cpu:         1.3
 (Enter /home/michal/g09/l906.exe)
 FulOut=F Deriv=F AODrv=F NAtomX=    10
   MMem=        1311  MDisk=          13 MDiskD=          13
  W3Min=     2439710 MinDsk=     3998052 NBas6D=         490
 NBas2D=      121807    NTT=      120295    LW2=     4508827
    MDV=  3488920324 MDiskM=       15813 NBas2p=      115040
 Fully direct method using O(OVN) memory.
 IMap=   1   2   3   4   5   6   7   8   9  10  11  12  13
 JobTyp=1 Pass  1:  I=   1 to  13 NPSUse= 12 ParTrn=T ParDer=T DoDerP=F.
 Spin components of T(2) and E(2):
     alpha-alpha T2 =       0.2904800810D-01 E2=     -0.1041794668D+00
     alpha-beta  T2 =       0.1787732006D+00 E2=     -0.6944297708D+00
     beta-beta   T2 =       0.2904800810D-01 E2=     -0.1041794668D+00
 The integrals were generated   1 times.
 ANorm=    0.1112146221D+01
 E2 =    -0.9027887045D+00 EUMP2 =    -0.22984041222402D+03
 Leave Link  906 at Thu Dec 21 00:59:20 2017, MaxMem=  3489660928 cpu:      3061.5
 (Enter /home/michal/g09/l601.exe)
 Copying SCF densities to generalized density rwf, IOpCl= 0 IROHF=0.

 **********************************************************************

            Population analysis using the SCF density.

 **********************************************************************

 Alpha  occ. eigenvalues --  -20.62122 -20.62044 -11.29542 -11.23288  -1.47056
 Alpha  occ. eigenvalues --   -1.22808  -1.01223  -0.85484  -0.71475  -0.67731
 Alpha  occ. eigenvalues --   -0.63318  -0.60273  -0.55600  -0.53155  -0.50893
 Alpha  occ. eigenvalues --   -0.50581  -0.44227
 Alpha virt. eigenvalues --    0.10529   0.12471   0.16029   0.17030   0.18773
 Alpha virt. eigenvalues --    0.20537   0.22555   0.25871   0.26656   0.29829
 Alpha virt. eigenvalues --    0.34034   0.34311   0.36246   0.44358   0.45226
 Alpha virt. eigenvalues --    0.45925   0.47519   0.48593   0.50945   0.51919
 Alpha virt. eigenvalues --    0.53185   0.53642   0.54350   0.59067   0.61373
 Alpha virt. eigenvalues --    0.62915   0.64773   0.66759   0.70206   0.71179
 Alpha virt. eigenvalues --    0.73151   0.77439   0.80957   0.83891   0.84813
 Alpha virt. eigenvalues --    0.85784   0.88137   0.90493   0.91398   0.93523
 Alpha virt. eigenvalues --    0.95752   0.99546   1.00700   1.01904   1.03708
 Alpha virt. eigenvalues --    1.05478   1.07722   1.11516   1.12201   1.13366
 Alpha virt. eigenvalues --    1.14840   1.15361   1.17183   1.18759   1.20898
 Alpha virt. eigenvalues --    1.23310   1.24353   1.30428   1.34607   1.37387
 Alpha virt. eigenvalues --    1.45752   1.47052   1.52327   1.56937   1.59783
 Alpha virt. eigenvalues --    1.62341   1.64401   1.66858   1.74470   1.75306
 Alpha virt. eigenvalues --    1.76164   1.79642   1.80231   1.87480   1.92975
 Alpha virt. eigenvalues --    1.94632   1.96205   1.97518   2.01367   2.02674
 Alpha virt. eigenvalues --    2.04724   2.05817   2.08204   2.09084   2.09663
 Alpha virt. eigenvalues --    2.12988   2.16417   2.19928   2.22478   2.23174
 Alpha virt. eigenvalues --    2.27764   2.29668   2.30611   2.32327   2.34227
 Alpha virt. eigenvalues --    2.35042   2.37203   2.38951   2.42315   2.45507
 Alpha virt. eigenvalues --    2.46084   2.48142   2.54835   2.56131   2.59382
 Alpha virt. eigenvalues --    2.60619   2.62319   2.64181   2.65246   2.66485
 Alpha virt. eigenvalues --    2.69063   2.72762   2.75563   2.76331   2.77581
 Alpha virt. eigenvalues --    2.80107   2.81667   2.84752   2.86862   2.88969
 Alpha virt. eigenvalues --    2.91357   2.92943   2.99308   3.02343   3.05525
 Alpha virt. eigenvalues --    3.08394   3.09208   3.11968   3.17181   3.21969
 Alpha virt. eigenvalues --    3.23452   3.23964   3.25291   3.28715   3.32263
 Alpha virt. eigenvalues --    3.34686   3.36593   3.39444   3.39937   3.43082
 Alpha virt. eigenvalues --    3.44247   3.48156   3.51884   3.54261   3.56004
 Alpha virt. eigenvalues --    3.60486   3.63171   3.65448   3.69141   3.73704
 Alpha virt. eigenvalues --    3.73926   3.78202   3.83180   3.83777   3.86775
 Alpha virt. eigenvalues --    3.91307   3.96196   4.04464   4.05197   4.06579
 Alpha virt. eigenvalues --    4.09130   4.11551   4.13235   4.16317   4.17108
 Alpha virt. eigenvalues --    4.21820   4.27083   4.31447   4.35052   4.36507
 Alpha virt. eigenvalues --    4.45478   4.48717   4.51063   4.52811   4.60007
 Alpha virt. eigenvalues --    4.65681   4.67900   4.75601   4.83879   4.85833
 Alpha virt. eigenvalues --    4.88281   5.03794   5.06528   5.12964   5.26846
 Alpha virt. eigenvalues --    5.44966   5.51539   5.56894   5.59843   5.69155
 Alpha virt. eigenvalues --    5.70038   5.72128   5.74092   5.74972   5.84226
 Alpha virt. eigenvalues --    5.89886   5.98562   6.01516   6.07695   6.10136
 Alpha virt. eigenvalues --    6.11050   6.12513   6.17787   6.20263   6.21546
 Alpha virt. eigenvalues --    6.22103   6.25657   6.29378   6.33154   6.34340
 Alpha virt. eigenvalues --    6.36026   6.41530   6.41888   6.45155   6.45883
 Alpha virt. eigenvalues --    6.48410   6.50734   6.51622   6.52721   6.54209
 Alpha virt. eigenvalues --    6.55044   6.57653   6.60034   6.63703   6.68140
 Alpha virt. eigenvalues --    6.71150   6.75437   6.79313   6.83240   6.85244
 Alpha virt. eigenvalues --    6.88682   6.94970   6.95630   7.04730   7.06217
 Alpha virt. eigenvalues --    7.06593   7.10651   7.13141   7.19657   7.20449
 Alpha virt. eigenvalues --    7.25366   7.28897   7.33069   7.35143   7.38519
 Alpha virt. eigenvalues --    7.41056   7.48536   7.53523   7.57068   7.60165
 Alpha virt. eigenvalues --    7.60970   7.66578   7.76286   7.77704   7.80181
 Alpha virt. eigenvalues --    7.84858   7.86552   7.88953   7.90859   7.95447
 Alpha virt. eigenvalues --    7.97782   8.01417   8.04903   8.06180   8.07835
 Alpha virt. eigenvalues --    8.11159   8.15844   8.16371   8.18759   8.22159
 Alpha virt. eigenvalues --    8.23230   8.26870   8.27913   8.32864   8.35200
 Alpha virt. eigenvalues --    8.37991   8.38576   8.43155   8.45521   8.51900
 Alpha virt. eigenvalues --    8.62004   8.64749   8.69049   8.73052   8.74820
 Alpha virt. eigenvalues --    8.75360   8.76249   8.79187   8.81671   8.82434
 Alpha virt. eigenvalues --    8.84187   8.87767   8.89382   8.92097   8.94026
 Alpha virt. eigenvalues --    8.97203   9.00778   9.02563   9.07187   9.07466
 Alpha virt. eigenvalues --    9.11766   9.14908   9.18820   9.24801   9.27694
 Alpha virt. eigenvalues --    9.30771   9.32483   9.36415   9.37270   9.41163
 Alpha virt. eigenvalues --    9.44643   9.47990   9.49929   9.54270   9.62391
 Alpha virt. eigenvalues --    9.71576   9.82639   9.95663   9.98744  10.08850
 Alpha virt. eigenvalues --   10.12034  10.12325  10.18325  10.22346  10.25718
 Alpha virt. eigenvalues --   10.31126  10.36553  10.38921  10.42120  10.43665
 Alpha virt. eigenvalues --   10.50858  10.51634  10.55324  10.59446  10.62312
 Alpha virt. eigenvalues --   10.67338  10.68286  10.72451  10.76263  10.84392
 Alpha virt. eigenvalues --   10.93156  10.97446  11.00485  11.15661  11.34529
 Alpha virt. eigenvalues --   11.37117  11.48878  11.58974  11.64993  11.68100
 Alpha virt. eigenvalues --   11.74125  11.80332  11.82929  11.92918  11.96921
 Alpha virt. eigenvalues --   12.06962  12.11899  12.24962  12.36986  12.47074
 Alpha virt. eigenvalues --   12.48198  12.57430  12.63475  12.71898  12.75392
 Alpha virt. eigenvalues --   12.78129  12.81770  12.85798  13.10595  13.19455
 Alpha virt. eigenvalues --   13.21674  13.23630  13.51400  13.77419  14.01517
 Alpha virt. eigenvalues --   14.31916  14.35351  15.12096  16.55314  26.20756
 Alpha virt. eigenvalues --   27.00750  42.52460  44.38403
          Condensed to atoms (all electrons):
               1          2          3          4          5          6
     1  C    4.697648   0.362037  -0.037491   0.008426  -0.000642   0.411897
     2  C    0.362037   4.498567   0.325960  -0.059138  -0.004740  -0.032984
     3  O   -0.037491   0.325960   7.955660   0.114901  -0.043506   0.000318
     4  O    0.008426  -0.059138   0.114901   7.892890   0.337102  -0.000040
     5  H   -0.000642  -0.004740  -0.043506   0.337102   0.441027  -0.000004
     6  H    0.411897  -0.032984   0.000318  -0.000040  -0.000004   0.583523
     7  H   -0.026421   0.423531  -0.052529   0.005367  -0.002807   0.008468
     8  H   -0.036304   0.392600  -0.055331  -0.006933   0.013007  -0.009520
     9  H    0.409831  -0.030803   0.002834  -0.000428   0.000136  -0.024175
    10  H    0.420074  -0.038049   0.000803  -0.000246   0.000057  -0.023187
               7          8          9         10
     1  C   -0.026421  -0.036304   0.409831   0.420074
     2  C    0.423531   0.392600  -0.030803  -0.038049
     3  O   -0.052529  -0.055331   0.002834   0.000803
     4  O    0.005367  -0.006933  -0.000428  -0.000246
     5  H   -0.002807   0.013007   0.000136   0.000057
     6  H    0.008468  -0.009520  -0.024175  -0.023187
     7  H    0.691837  -0.088878  -0.001021  -0.008250
     8  H   -0.088878   0.787947  -0.001591   0.009015
     9  H   -0.001021  -0.001591   0.601746  -0.023396
    10  H   -0.008250   0.009015  -0.023396   0.573250
 Mulliken charges:
               1
     1  C   -0.209056
     2  C    0.163018
     3  O   -0.211619
     4  O   -0.291901
     5  H    0.260369
     6  H    0.085703
     7  H    0.050704
     8  H   -0.004013
     9  H    0.066867
    10  H    0.089927
 Sum of Mulliken charges =   0.00000
 Mulliken charges with hydrogens summed into heavy atoms:
               1
     1  C    0.033442
     2  C    0.209709
     3  O   -0.211619
     4  O   -0.031532
 Electronic spatial extent (au):  <R**2>=            769.7825
 Charge=              0.0000 electrons
 Dipole moment (field-independent basis, Debye):
    X=             -3.0575    Y=             -0.4512    Z=             -0.1762  Tot=              3.0957
 Quadrupole moment (field-independent basis, Debye-Ang):
   XX=            -32.4822   YY=            -25.0544   ZZ=            -23.5356
   XY=             -0.5844   XZ=             -7.4721   YZ=             -2.3563
 Traceless Quadrupole moment (field-independent basis, Debye-Ang):
   XX=             -5.4581   YY=              1.9696   ZZ=              3.4885
   XY=             -0.5844   XZ=             -7.4721   YZ=             -2.3563
 Octapole moment (field-independent basis, Debye-Ang**2):
  XXX=            -73.3600  YYY=             -4.8099  ZZZ=           -104.0831  XYY=            -19.8091
  XXY=             -2.0221  XXZ=            -58.8932  XZZ=            -37.8723  YZZ=            -11.1224
  YYZ=            -40.0471  XYZ=             -2.7074
 Hexadecapole moment (field-independent basis, Debye-Ang**3):
 XXXX=           -249.3627 YYYY=            -38.7709 ZZZZ=           -543.1332 XXXY=             -4.8238
 XXXZ=           -188.7013 YYYX=             -4.9273 YYYZ=            -12.2423 ZZZX=           -197.0192
 ZZZY=            -49.2187 XXYY=            -45.4058 XXZZ=           -195.2181 YYZZ=           -112.1039
 XXYZ=             -7.3933 YYXZ=            -52.7011 ZZXY=            -11.7778
 N-N= 1.311303055395D+02 E-N=-8.016773912003D+02  KE= 2.285579195464D+02
 Leave Link  601 at Thu Dec 21 00:59:20 2017, MaxMem=  3489660928 cpu:         0.5
 (Enter /home/michal/g09/l9999.exe)
 1\1\GINC-LINUX\SP\RMP2-FC\CC-pVQZ\C2H6O2\MICHAL\21-Dec-2017\0\\#P MP2/
 cc-pVQZ SP Nosymm\\PEscan\\0,1\C,0,0.01118,-0.0273,0.05941\C,0,0.19817
 ,0.16756,1.55489\O,0,1.57834,-0.02744,1.80989\O,0,1.8063,0.1704,3.2334
 3\H,0,1.02067,-0.26269,3.61565\H,0,0.33757,-1.03518,-0.23968\H,0,-0.11
 357,1.17984,1.8758\H,0,-0.40163,-0.57742,2.12296\H,0,-1.05076,0.09565,
 -0.20602\H,0,0.60362,0.71472,-0.49739\\Version=EM64L-G09RevD.01\HF=-22
 8.9376235\MP2=-229.8404122\RMSD=3.690e-09\PG=C01 [X(C2H6O2)]\\@


 THE RARE EARTHS PERPLEX US IN OUR RESEARCHES,
 BAFFLE US IN OUR SPECULATIONS, AND HAUNT US IN OUR
 VERY DREAMS.  THEY STRETCH LIKE AN UNKNOWN BEFORE US,
 MOCKING, MYSTIFYING, AND MURMURING STRANGE REVELATIONS
 AND POSSIBILITIES.  -- SIR WILLIAM CROOKE, 1832-1919
 Job cpu time:       0 days  1 hours  3 minutes 30.0 seconds.
 File lengths (MBytes):  RWF=    699 Int=      0 D2E=      0 Chk=      8 Scr=      1
 Normal termination of Gaussian 09 at Thu Dec 21 00:59:20 2017.
