 Entering Gaussian System, Link 0=g09
 Input=1HPP_mp2qz_027.com
 Output=1HPP_mp2qz_027.log
 Initial command:
 /home/michal/g09/l1.exe "/home/michal/gauss_scratch/Gau-31997.inp" -scrdir="/home/michal/gauss_scratch/"
 Entering Link 1 = /home/michal/g09/l1.exe PID=     31998.
  
 Copyright (c) 1988,1990,1992,1993,1995,1998,2003,2009,2013,
            Gaussian, Inc.  All Rights Reserved.
  
 This is part of the Gaussian(R) 09 program.  It is based on
 the Gaussian(R) 03 system (copyright 2003, Gaussian, Inc.),
 the Gaussian(R) 98 system (copyright 1998, Gaussian, Inc.),
 the Gaussian(R) 94 system (copyright 1995, Gaussian, Inc.),
 the Gaussian 92(TM) system (copyright 1992, Gaussian, Inc.),
 the Gaussian 90(TM) system (copyright 1990, Gaussian, Inc.),
 the Gaussian 88(TM) system (copyright 1988, Gaussian, Inc.),
 the Gaussian 86(TM) system (copyright 1986, Carnegie Mellon
 University), and the Gaussian 82(TM) system (copyright 1983,
 Carnegie Mellon University). Gaussian is a federally registered
 trademark of Gaussian, Inc.
  
 This software contains proprietary and confidential information,
 including trade secrets, belonging to Gaussian, Inc.
  
 This software is provided under written license and may be
 used, copied, transmitted, or stored only in accord with that
 written license.
  
 The following legend is applicable only to US Government
 contracts under FAR:
  
                    RESTRICTED RIGHTS LEGEND
  
 Use, reproduction and disclosure by the US Government is
 subject to restrictions as set forth in subparagraphs (a)
 and (c) of the Commercial Computer Software - Restricted
 Rights clause in FAR 52.227-19.
  
 Gaussian, Inc.
 340 Quinnipiac St., Bldg. 40, Wallingford CT 06492
  
  
 ---------------------------------------------------------------
 Warning -- This program may not be used in any manner that
 competes with the business of Gaussian, Inc. or will provide
 assistance to any competitor of Gaussian, Inc.  The licensee
 of this program is prohibited from giving any competitor of
 Gaussian, Inc. access to this program.  By using this program,
 the user acknowledges that Gaussian, Inc. is engaged in the
 business of creating and licensing software in the field of
 computational chemistry and represents and warrants to the
 licensee that it is not a competitor of Gaussian, Inc. and that
 it will not use this program in any manner prohibited above.
 ---------------------------------------------------------------
  

 Cite this work as:
 Gaussian 09, Revision D.01,
 M. J. Frisch, G. W. Trucks, H. B. Schlegel, G. E. Scuseria, 
 M. A. Robb, J. R. Cheeseman, G. Scalmani, V. Barone, B. Mennucci, 
 G. A. Petersson, H. Nakatsuji, M. Caricato, X. Li, H. P. Hratchian, 
 A. F. Izmaylov, J. Bloino, G. Zheng, J. L. Sonnenberg, M. Hada, 
 M. Ehara, K. Toyota, R. Fukuda, J. Hasegawa, M. Ishida, T. Nakajima, 
 Y. Honda, O. Kitao, H. Nakai, T. Vreven, J. A. Montgomery, Jr., 
 J. E. Peralta, F. Ogliaro, M. Bearpark, J. J. Heyd, E. Brothers, 
 K. N. Kudin, V. N. Staroverov, T. Keith, R. Kobayashi, J. Normand, 
 K. Raghavachari, A. Rendell, J. C. Burant, S. S. Iyengar, J. Tomasi, 
 M. Cossi, N. Rega, J. M. Millam, M. Klene, J. E. Knox, J. B. Cross, 
 V. Bakken, C. Adamo, J. Jaramillo, R. Gomperts, R. E. Stratmann, 
 O. Yazyev, A. J. Austin, R. Cammi, C. Pomelli, J. W. Ochterski, 
 R. L. Martin, K. Morokuma, V. G. Zakrzewski, G. A. Voth, 
 P. Salvador, J. J. Dannenberg, S. Dapprich, A. D. Daniels, 
 O. Farkas, J. B. Foresman, J. V. Ortiz, J. Cioslowski, 
 and D. J. Fox, Gaussian, Inc., Wallingford CT, 2013.
 
 ******************************************
 Gaussian 09:  EM64L-G09RevD.01 24-Apr-2013
                21-Dec-2017 
 ******************************************
 %Mem=26GB
 %NProc=12
 Will use up to   12 processors via shared memory.
 %RWF=/home/michal/Cholesterol_grant/peroxy_params,20GB
 ------------------------
 #P MP2/cc-pVQZ SP Nosymm
 ------------------------
 1/38=1/1;
 2/12=2,15=1,17=6,18=5,40=1/2;
 3/5=16,6=2,11=9,16=1,25=1,30=1/1,2,3;
 4//1;
 5/5=2,38=5/2;
 8/10=1/1;
 9/16=-3/6;
 6/7=2,8=2,9=2,10=2/1;
 99/5=1,9=1/99;
 Leave Link    1 at Thu Dec 21 01:17:37 2017, MaxMem=  3489660928 cpu:         0.3
 (Enter /home/michal/g09/l101.exe)
 ------
 PEscan
 ------
 Symbolic Z-matrix:
 Charge =  0 Multiplicity = 1
 C                     0.01491  -0.03518   0.04871 
 C                     0.14345   0.2094    1.54343 
 O                     1.51352  -0.00465   1.85829 
 O                     1.67677   0.29859   3.26772 
 H                     1.34369  -0.52887   3.65947 
 H                     0.32384  -1.06156  -0.2038 
 H                    -0.14975   1.23937   1.81504 
 H                    -0.49562  -0.49411   2.11619 
 H                    -1.03124   0.10561  -0.26654 
 H                     0.65032   0.66954  -0.50958 
 
 NAtoms=     10 NQM=       10 NQMF=       0 NMMI=      0 NMMIF=      0
                NMic=       0 NMicF=      0.
                    Isotopes and Nuclear Properties:
 (Nuclear quadrupole moments (NQMom) in fm**2, nuclear magnetic moments (NMagM)
  in nuclear magnetons)

  Atom         1           2           3           4           5           6           7           8           9          10
 IAtWgt=          12          12          16          16           1           1           1           1           1           1
 AtmWgt=  12.0000000  12.0000000  15.9949146  15.9949146   1.0078250   1.0078250   1.0078250   1.0078250   1.0078250   1.0078250
 NucSpn=           0           0           0           0           1           1           1           1           1           1
 AtZEff=   0.0000000   0.0000000   0.0000000   0.0000000   0.0000000   0.0000000   0.0000000   0.0000000   0.0000000   0.0000000
 NQMom=    0.0000000   0.0000000   0.0000000   0.0000000   0.0000000   0.0000000   0.0000000   0.0000000   0.0000000   0.0000000
 NMagM=    0.0000000   0.0000000   0.0000000   0.0000000   2.7928460   2.7928460   2.7928460   2.7928460   2.7928460   2.7928460
 AtZNuc=   6.0000000   6.0000000   8.0000000   8.0000000   1.0000000   1.0000000   1.0000000   1.0000000   1.0000000   1.0000000
 Leave Link  101 at Thu Dec 21 01:17:37 2017, MaxMem=  3489660928 cpu:         0.5
 (Enter /home/michal/g09/l202.exe)
                          Input orientation:                          
 ---------------------------------------------------------------------
 Center     Atomic      Atomic             Coordinates (Angstroms)
 Number     Number       Type             X           Y           Z
 ---------------------------------------------------------------------
      1          6           0        0.014910   -0.035180    0.048710
      2          6           0        0.143450    0.209400    1.543430
      3          8           0        1.513520   -0.004650    1.858290
      4          8           0        1.676770    0.298590    3.267720
      5          1           0        1.343690   -0.528870    3.659470
      6          1           0        0.323840   -1.061560   -0.203800
      7          1           0       -0.149750    1.239370    1.815040
      8          1           0       -0.495620   -0.494110    2.116190
      9          1           0       -1.031240    0.105610   -0.266540
     10          1           0        0.650320    0.669540   -0.509580
 ---------------------------------------------------------------------
                    Distance matrix (angstroms):
                    1          2          3          4          5
     1  C    0.000000
     2  C    1.520043   0.000000
     3  O    2.349754   1.421987   0.000000
     4  O    3.638022   2.309156   1.450896   0.000000
     5  H    3.879043   2.542291   1.883587   0.974218   0.000000
     6  H    1.101206   2.168108   2.604729   3.966343   4.030969
     7  H    2.184379   1.104797   2.077480   2.516251   2.959554
     8  H    2.178470   1.109680   2.083921   2.583345   2.401246
     9  H    1.101651   2.160245   3.317056   4.456630   4.632107
    10  H    1.100938   2.164139   2.608918   3.931819   4.392941
                    6          7          8          9         10
     6  H    0.000000
     7  H    3.097464   0.000000
     8  H    2.525048   1.793117   0.000000
     9  H    1.789543   2.528915   2.514748   0.000000
    10  H    1.787959   2.523624   3.092237   1.790176   0.000000
 Symmetry turned off by external request.
 Stoichiometry    C2H6O2
 Framework group  C1[X(C2H6O2)]
 Deg. of freedom    24
 Full point group                 C1      NOp   1
 Rotational constants (GHZ):     30.3590513      4.1843946      3.9080118
 Leave Link  202 at Thu Dec 21 01:17:37 2017, MaxMem=  3489660928 cpu:         0.0
 (Enter /home/michal/g09/l301.exe)
 Standard basis: CC-pVQZ (5D, 7F)
 Ernie: Thresh=  0.10000D-02 Tol=  0.10000D-05 Strict=F.
 Ernie:  12 primitive shells out of 204 were deleted.
   400 basis functions,   578 primitive gaussians,   490 cartesian basis functions
    17 alpha electrons       17 beta electrons
       nuclear repulsion energy       131.0237869868 Hartrees.
 IExCor=    0 DFT=F Ex=HF Corr=None ExCW=0 ScaHFX=  1.000000
 ScaDFX=  1.000000  1.000000  1.000000  1.000000 ScalE2=  1.000000  1.000000
 IRadAn=      0 IRanWt=     -1 IRanGd=            0 ICorTp=0 IEmpDi=  4
 NAtoms=   10 NActive=   10 NUniq=   10 SFac= 1.00D+00 NAtFMM=   60 NAOKFM=F Big=F
 Integral buffers will be    131072 words long.
 Raffenetti 1 integral format.
 Two-electron integral symmetry is turned off.
 Leave Link  301 at Thu Dec 21 01:17:37 2017, MaxMem=  3489660928 cpu:         0.3
 (Enter /home/michal/g09/l302.exe)
 NPDir=0 NMtPBC=     1 NCelOv=     1 NCel=       1 NClECP=     1 NCelD=      1
         NCelK=      1 NCelE2=     1 NClLst=     1 CellRange=     0.0.
 One-electron integrals computed using PRISM.
 NBasis=   400 RedAO= T EigKep=  1.37D-04  NBF=   400
 NBsUse=   400 1.00D-06 EigRej= -1.00D+00 NBFU=   400
 Leave Link  302 at Thu Dec 21 01:17:38 2017, MaxMem=  3489660928 cpu:         6.1
 (Enter /home/michal/g09/l303.exe)
 DipDrv:  MaxL=1.
 Leave Link  303 at Thu Dec 21 01:17:38 2017, MaxMem=  3489660928 cpu:         0.5
 (Enter /home/michal/g09/l401.exe)
 ExpMin= 8.99D-02 ExpMax= 6.14D+04 ExpMxC= 5.91D+02 IAcc=2 IRadAn=         4 AccDes= 0.00D+00
 Harris functional with IExCor=  205 and IRadAn=       4 diagonalized for initial guess.
 HarFok:  IExCor=  205 AccDes= 0.00D+00 IRadAn=         4 IDoV= 1 UseB2=F ITyADJ=14
 ICtDFT=  3500011 ScaDFX=  1.000000  1.000000  1.000000  1.000000
 FoFCou: FMM=F IPFlag=           0 FMFlag=      100000 FMFlg1=           0
         NFxFlg=           0 DoJE=T BraDBF=F KetDBF=T FulRan=T
         wScrn=  0.000000 ICntrl=     500 IOpCl=  0 I1Cent=   200000004 NGrid=           0
         NMat0=    1 NMatS0=      1 NMatT0=    0 NMatD0=    1 NMtDS0=    0 NMtDT0=    0
 Symmetry not used in FoFCou.
 Harris En= -229.245879176944    
 JPrj=0 DoOrth=F DoCkMO=F.
 Leave Link  401 at Thu Dec 21 01:17:39 2017, MaxMem=  3489660928 cpu:        11.9
 (Enter /home/michal/g09/l502.exe)
 Closed shell SCF:
 Using DIIS extrapolation, IDIIS=  1040.
 Two-electron integral symmetry not used.
 Keep R1 ints in memory in canonical form, NReq=3275992930.
 IVT=      747690 IEndB=      747690 NGot=  3489660928 MDV=   272853139
 LenX=   272853139 LenY=   272612549
 Requested convergence on RMS density matrix=1.00D-08 within 128 cycles.
 Requested convergence on MAX density matrix=1.00D-06.
 Requested convergence on             energy=1.00D-06.
 No special actions if energy rises.
 FoFCou: FMM=F IPFlag=           0 FMFlag=           0 FMFlg1=           0
         NFxFlg=           0 DoJE=F BraDBF=F KetDBF=F FulRan=T
         wScrn=  0.000000 ICntrl=     600 IOpCl=  0 I1Cent=           0 NGrid=           0
         NMat0=    1 NMatS0=  80200 NMatT0=    0 NMatD0=    1 NMtDS0=    0 NMtDT0=    0
 Symmetry not used in FoFCou.

 Cycle   1  Pass 1  IDiag  1:
 E= -228.744295824117    
 DIIS: error= 3.43D-02 at cycle   1 NSaved=   1.
 NSaved= 1 IEnMin= 1 EnMin= -228.744295824117     IErMin= 1 ErrMin= 3.43D-02
 ErrMax= 3.43D-02  0.00D+00 EMaxC= 1.00D-01 BMatC= 4.77D-01 BMatP= 4.77D-01
 IDIUse=3 WtCom= 6.57D-01 WtEn= 3.43D-01
 Coeff-Com:  0.100D+01
 Coeff-En:   0.100D+01
 Coeff:      0.100D+01
 Gap=     0.721 Goal=   None    Shift=    0.000
 GapD=    0.721 DampG=2.000 DampE=0.500 DampFc=1.0000 IDamp=-1.
 RMSDP=7.70D-04 MaxDP=4.47D-02              OVMax= 1.15D-01

 Cycle   2  Pass 1  IDiag  1:
 E= -228.914126225502     Delta-E=       -0.169830401386 Rises=F Damp=F
 DIIS: error= 1.22D-02 at cycle   2 NSaved=   2.
 NSaved= 2 IEnMin= 2 EnMin= -228.914126225502     IErMin= 2 ErrMin= 1.22D-02
 ErrMax= 1.22D-02  0.00D+00 EMaxC= 1.00D-01 BMatC= 3.49D-02 BMatP= 4.77D-01
 IDIUse=3 WtCom= 8.78D-01 WtEn= 1.22D-01
 Coeff-Com:  0.120D+00 0.880D+00
 Coeff-En:   0.000D+00 0.100D+01
 Coeff:      0.106D+00 0.894D+00
 Gap=     0.657 Goal=   None    Shift=    0.000
 RMSDP=3.42D-04 MaxDP=1.83D-02 DE=-1.70D-01 OVMax= 4.48D-02

 Cycle   3  Pass 1  IDiag  1:
 E= -228.939721489013     Delta-E=       -0.025595263511 Rises=F Damp=F
 DIIS: error= 3.73D-03 at cycle   3 NSaved=   3.
 NSaved= 3 IEnMin= 3 EnMin= -228.939721489013     IErMin= 3 ErrMin= 3.73D-03
 ErrMax= 3.73D-03  0.00D+00 EMaxC= 1.00D-01 BMatC= 3.53D-03 BMatP= 3.49D-02
 IDIUse=3 WtCom= 9.63D-01 WtEn= 3.73D-02
 Coeff-Com: -0.213D-01 0.207D+00 0.814D+00
 Coeff-En:   0.000D+00 0.000D+00 0.100D+01
 Coeff:     -0.205D-01 0.199D+00 0.821D+00
 Gap=     0.564 Goal=   None    Shift=    0.000
 RMSDP=7.08D-05 MaxDP=4.52D-03 DE=-2.56D-02 OVMax= 1.21D-02

 Cycle   4  Pass 1  IDiag  1:
 E= -228.942621881123     Delta-E=       -0.002900392109 Rises=F Damp=F
 DIIS: error= 5.21D-04 at cycle   4 NSaved=   4.
 NSaved= 4 IEnMin= 4 EnMin= -228.942621881123     IErMin= 4 ErrMin= 5.21D-04
 ErrMax= 5.21D-04  0.00D+00 EMaxC= 1.00D-01 BMatC= 1.44D-04 BMatP= 3.53D-03
 IDIUse=3 WtCom= 9.95D-01 WtEn= 5.21D-03
 Coeff-Com: -0.730D-02 0.352D-01 0.213D+00 0.759D+00
 Coeff-En:   0.000D+00 0.000D+00 0.000D+00 0.100D+01
 Coeff:     -0.727D-02 0.350D-01 0.212D+00 0.760D+00
 Gap=     0.560 Goal=   None    Shift=    0.000
 RMSDP=2.04D-05 MaxDP=1.29D-03 DE=-2.90D-03 OVMax= 2.56D-03

 Cycle   5  Pass 1  IDiag  1:
 E= -228.942729181079     Delta-E=       -0.000107299956 Rises=F Damp=F
 DIIS: error= 2.92D-04 at cycle   5 NSaved=   5.
 NSaved= 5 IEnMin= 5 EnMin= -228.942729181079     IErMin= 5 ErrMin= 2.92D-04
 ErrMax= 2.92D-04  0.00D+00 EMaxC= 1.00D-01 BMatC= 1.79D-05 BMatP= 1.44D-04
 IDIUse=3 WtCom= 9.97D-01 WtEn= 2.92D-03
 Coeff-Com:  0.193D-02-0.271D-01-0.899D-01 0.160D+00 0.955D+00
 Coeff-En:   0.000D+00 0.000D+00 0.000D+00 0.000D+00 0.100D+01
 Coeff:      0.193D-02-0.270D-01-0.897D-01 0.160D+00 0.955D+00
 Gap=     0.561 Goal=   None    Shift=    0.000
 RMSDP=1.14D-05 MaxDP=5.33D-04 DE=-1.07D-04 OVMax= 1.76D-03

 Cycle   6  Pass 1  IDiag  1:
 E= -228.942752381441     Delta-E=       -0.000023200362 Rises=F Damp=F
 DIIS: error= 5.89D-05 at cycle   6 NSaved=   6.
 NSaved= 6 IEnMin= 6 EnMin= -228.942752381441     IErMin= 6 ErrMin= 5.89D-05
 ErrMax= 5.89D-05  0.00D+00 EMaxC= 1.00D-01 BMatC= 7.51D-07 BMatP= 1.79D-05
 IDIUse=1 WtCom= 1.00D+00 WtEn= 0.00D+00
 Coeff-Com:  0.571D-03-0.425D-02-0.172D-01-0.470D-01 0.552D-01 0.101D+01
 Coeff:      0.571D-03-0.425D-02-0.172D-01-0.470D-01 0.552D-01 0.101D+01
 Gap=     0.561 Goal=   None    Shift=    0.000
 RMSDP=3.32D-06 MaxDP=2.09D-04 DE=-2.32D-05 OVMax= 3.72D-04

 Cycle   7  Pass 1  IDiag  1:
 E= -228.942753719375     Delta-E=       -0.000001337934 Rises=F Damp=F
 DIIS: error= 1.35D-05 at cycle   7 NSaved=   7.
 NSaved= 7 IEnMin= 7 EnMin= -228.942753719375     IErMin= 7 ErrMin= 1.35D-05
 ErrMax= 1.35D-05  0.00D+00 EMaxC= 1.00D-01 BMatC= 6.90D-08 BMatP= 7.51D-07
 IDIUse=1 WtCom= 1.00D+00 WtEn= 0.00D+00
 Coeff-Com: -0.207D-04 0.966D-03 0.296D-02-0.163D-01-0.520D-01 0.111D+00
 Coeff-Com:  0.953D+00
 Coeff:     -0.207D-04 0.966D-03 0.296D-02-0.163D-01-0.520D-01 0.111D+00
 Coeff:      0.953D+00
 Gap=     0.561 Goal=   None    Shift=    0.000
 RMSDP=8.24D-07 MaxDP=3.74D-05 DE=-1.34D-06 OVMax= 1.28D-04

 Cycle   8  Pass 1  IDiag  1:
 E= -228.942753851950     Delta-E=       -0.000000132575 Rises=F Damp=F
 DIIS: error= 4.42D-06 at cycle   8 NSaved=   8.
 NSaved= 8 IEnMin= 8 EnMin= -228.942753851950     IErMin= 8 ErrMin= 4.42D-06
 ErrMax= 4.42D-06  0.00D+00 EMaxC= 1.00D-01 BMatC= 1.21D-08 BMatP= 6.90D-08
 IDIUse=1 WtCom= 1.00D+00 WtEn= 0.00D+00
 Coeff-Com: -0.781D-04 0.618D-03 0.254D-02 0.761D-02-0.790D-02-0.158D+00
 Coeff-Com:  0.687D-01 0.109D+01
 Coeff:     -0.781D-04 0.618D-03 0.254D-02 0.761D-02-0.790D-02-0.158D+00
 Coeff:      0.687D-01 0.109D+01
 Gap=     0.561 Goal=   None    Shift=    0.000
 RMSDP=4.28D-07 MaxDP=1.62D-05 DE=-1.33D-07 OVMax= 9.52D-05

 Cycle   9  Pass 1  IDiag  1:
 E= -228.942753881951     Delta-E=       -0.000000030001 Rises=F Damp=F
 DIIS: error= 1.49D-06 at cycle   9 NSaved=   9.
 NSaved= 9 IEnMin= 9 EnMin= -228.942753881951     IErMin= 9 ErrMin= 1.49D-06
 ErrMax= 1.49D-06  0.00D+00 EMaxC= 1.00D-01 BMatC= 1.42D-09 BMatP= 1.21D-08
 IDIUse=1 WtCom= 1.00D+00 WtEn= 0.00D+00
 Coeff-Com:  0.225D-04-0.254D-03-0.103D-02-0.638D-03 0.832D-02 0.340D-01
 Coeff-Com: -0.120D+00-0.348D+00 0.143D+01
 Coeff:      0.225D-04-0.254D-03-0.103D-02-0.638D-03 0.832D-02 0.340D-01
 Coeff:     -0.120D+00-0.348D+00 0.143D+01
 Gap=     0.561 Goal=   None    Shift=    0.000
 RMSDP=1.90D-07 MaxDP=8.54D-06 DE=-3.00D-08 OVMax= 5.42D-05

 Cycle  10  Pass 1  IDiag  1:
 E= -228.942753887819     Delta-E=       -0.000000005869 Rises=F Damp=F
 DIIS: error= 5.89D-07 at cycle  10 NSaved=  10.
 NSaved=10 IEnMin=10 EnMin= -228.942753887819     IErMin=10 ErrMin= 5.89D-07
 ErrMax= 5.89D-07  0.00D+00 EMaxC= 1.00D-01 BMatC= 1.90D-10 BMatP= 1.42D-09
 IDIUse=1 WtCom= 1.00D+00 WtEn= 0.00D+00
 Coeff-Com:  0.563D-05-0.369D-04-0.149D-03-0.851D-03-0.335D-03 0.136D-01
 Coeff-Com:  0.113D-01-0.827D-01-0.196D+00 0.126D+01
 Coeff:      0.563D-05-0.369D-04-0.149D-03-0.851D-03-0.335D-03 0.136D-01
 Coeff:      0.113D-01-0.827D-01-0.196D+00 0.126D+01
 Gap=     0.561 Goal=   None    Shift=    0.000
 RMSDP=6.67D-08 MaxDP=3.07D-06 DE=-5.87D-09 OVMax= 2.06D-05

 Cycle  11  Pass 1  IDiag  1:
 E= -228.942753888594     Delta-E=       -0.000000000775 Rises=F Damp=F
 DIIS: error= 2.87D-07 at cycle  11 NSaved=  11.
 NSaved=11 IEnMin=11 EnMin= -228.942753888594     IErMin=11 ErrMin= 2.87D-07
 ErrMax= 2.87D-07  0.00D+00 EMaxC= 1.00D-01 BMatC= 3.45D-11 BMatP= 1.90D-10
 IDIUse=1 WtCom= 1.00D+00 WtEn= 0.00D+00
 Coeff-Com: -0.358D-05 0.424D-04 0.177D-03 0.196D-03-0.129D-02-0.761D-02
 Coeff-Com:  0.215D-01 0.698D-01-0.272D+00 0.124D-01 0.118D+01
 Coeff:     -0.358D-05 0.424D-04 0.177D-03 0.196D-03-0.129D-02-0.761D-02
 Coeff:      0.215D-01 0.698D-01-0.272D+00 0.124D-01 0.118D+01
 Gap=     0.561 Goal=   None    Shift=    0.000
 RMSDP=2.86D-08 MaxDP=1.32D-06 DE=-7.75D-10 OVMax= 8.32D-06

 Cycle  12  Pass 1  IDiag  1:
 E= -228.942753888713     Delta-E=       -0.000000000119 Rises=F Damp=F
 DIIS: error= 7.92D-08 at cycle  12 NSaved=  12.
 NSaved=12 IEnMin=12 EnMin= -228.942753888713     IErMin=12 ErrMin= 7.92D-08
 ErrMax= 7.92D-08  0.00D+00 EMaxC= 1.00D-01 BMatC= 3.30D-12 BMatP= 3.45D-11
 IDIUse=1 WtCom= 1.00D+00 WtEn= 0.00D+00
 Coeff-Com: -0.247D-06-0.204D-05-0.753D-05 0.128D-03 0.330D-03-0.148D-02
 Coeff-Com: -0.447D-02 0.703D-02 0.561D-01-0.168D+00-0.197D+00 0.131D+01
 Coeff:     -0.247D-06-0.204D-05-0.753D-05 0.128D-03 0.330D-03-0.148D-02
 Coeff:     -0.447D-02 0.703D-02 0.561D-01-0.168D+00-0.197D+00 0.131D+01
 Gap=     0.561 Goal=   None    Shift=    0.000
 RMSDP=9.65D-09 MaxDP=3.90D-07 DE=-1.19D-10 OVMax= 2.38D-06

 SCF Done:  E(RHF) =  -228.942753889     A.U. after   12 cycles
            NFock= 12  Conv=0.96D-08     -V/T= 2.0017
 KE= 2.285607400811D+02 PE=-8.015715631476D+02 EE= 2.130442821910D+02
 Leave Link  502 at Thu Dec 21 01:19:25 2017, MaxMem=  3489660928 cpu:       712.6
 (Enter /home/michal/g09/l801.exe)
 ExpMin= 8.99D-02 ExpMax= 6.14D+04 ExpMxC= 5.91D+02 IAcc=3 IRadAn=         5 AccDes= 0.00D+00
 HarFok:  IExCor=  205 AccDes= 0.00D+00 IRadAn=         5 IDoV=-2 UseB2=F ITyADJ=14
 ICtDFT= 12500011 ScaDFX=  1.000000  1.000000  1.000000  1.000000
 Largest valence mixing into a core orbital is  1.82D-04
 Largest core mixing into a valence orbital is  3.03D-05
 Range of M.O.s used for correlation:     5   400
 NBasis=   400 NAE=    17 NBE=    17 NFC=     4 NFV=     0
 NROrb=    396 NOA=    13 NOB=    13 NVA=   383 NVB=   383

 **** Warning!!: The largest alpha MO coefficient is  0.24365017D+02

 Leave Link  801 at Thu Dec 21 01:19:26 2017, MaxMem=  3489660928 cpu:         1.2
 (Enter /home/michal/g09/l906.exe)
 FulOut=F Deriv=F AODrv=F NAtomX=    10
   MMem=        1311  MDisk=          13 MDiskD=          13
  W3Min=     2439710 MinDsk=     3998052 NBas6D=         490
 NBas2D=      121807    NTT=      120295    LW2=     4508827
    MDV=  3488921710 MDiskM=       15813 NBas2p=      114696
 Fully direct method using O(OVN) memory.
 IMap=   1   2   3   4   5   6   7   8   9  10  11  12  13
 JobTyp=1 Pass  1:  I=   1 to  13 NPSUse= 12 ParTrn=T ParDer=T DoDerP=F.
 Spin components of T(2) and E(2):
     alpha-alpha T2 =       0.2893035358D-01 E2=     -0.1039941920D+00
     alpha-beta  T2 =       0.1784468566D+00 E2=     -0.6940734510D+00
     beta-beta   T2 =       0.2893035358D-01 E2=     -0.1039941920D+00
 The integrals were generated   1 times.
 ANorm=    0.1111893684D+01
 E2 =    -0.9020618350D+00 EUMP2 =    -0.22984481572371D+03
 Leave Link  906 at Thu Dec 21 01:23:41 2017, MaxMem=  3489660928 cpu:      3039.5
 (Enter /home/michal/g09/l601.exe)
 Copying SCF densities to generalized density rwf, IOpCl= 0 IROHF=0.

 **********************************************************************

            Population analysis using the SCF density.

 **********************************************************************

 Alpha  occ. eigenvalues --  -20.62044 -20.62014 -11.28808 -11.22879  -1.47089
 Alpha  occ. eigenvalues --   -1.22595  -1.00691  -0.84529  -0.72170  -0.66699
 Alpha  occ. eigenvalues --   -0.62861  -0.61792  -0.54573  -0.52610  -0.50663
 Alpha  occ. eigenvalues --   -0.48753  -0.45342
 Alpha virt. eigenvalues --    0.10788   0.12719   0.16091   0.17088   0.18859
 Alpha virt. eigenvalues --    0.20766   0.22887   0.26574   0.27206   0.30203
 Alpha virt. eigenvalues --    0.31992   0.35350   0.36702   0.44360   0.45955
 Alpha virt. eigenvalues --    0.46487   0.46887   0.48881   0.50306   0.52482
 Alpha virt. eigenvalues --    0.53794   0.54108   0.55326   0.57800   0.61480
 Alpha virt. eigenvalues --    0.62442   0.64450   0.65786   0.68534   0.71648
 Alpha virt. eigenvalues --    0.72621   0.79091   0.80462   0.82753   0.85399
 Alpha virt. eigenvalues --    0.85731   0.88517   0.89154   0.92224   0.93631
 Alpha virt. eigenvalues --    0.96614   0.99077   0.99978   1.01125   1.03257
 Alpha virt. eigenvalues --    1.06336   1.08915   1.09669   1.10805   1.13861
 Alpha virt. eigenvalues --    1.14712   1.15697   1.18594   1.19017   1.20159
 Alpha virt. eigenvalues --    1.22014   1.24530   1.30712   1.36387   1.37917
 Alpha virt. eigenvalues --    1.44786   1.49393   1.53412   1.54387   1.59958
 Alpha virt. eigenvalues --    1.61446   1.64137   1.69733   1.72509   1.73962
 Alpha virt. eigenvalues --    1.74596   1.77565   1.82883   1.84421   1.91161
 Alpha virt. eigenvalues --    1.92273   1.94767   2.00438   2.00944   2.03824
 Alpha virt. eigenvalues --    2.04424   2.06592   2.08282   2.09522   2.10101
 Alpha virt. eigenvalues --    2.13330   2.18784   2.21930   2.23084   2.25114
 Alpha virt. eigenvalues --    2.26411   2.27493   2.30365   2.32053   2.34028
 Alpha virt. eigenvalues --    2.34493   2.38082   2.39013   2.42183   2.44360
 Alpha virt. eigenvalues --    2.46596   2.46905   2.48589   2.54685   2.58061
 Alpha virt. eigenvalues --    2.60256   2.63272   2.64179   2.65399   2.67034
 Alpha virt. eigenvalues --    2.69331   2.72743   2.74035   2.74745   2.79139
 Alpha virt. eigenvalues --    2.81901   2.82892   2.83740   2.85050   2.87892
 Alpha virt. eigenvalues --    2.88253   2.95641   2.96254   2.98558   3.04286
 Alpha virt. eigenvalues --    3.05206   3.08622   3.13030   3.16263   3.20386
 Alpha virt. eigenvalues --    3.22832   3.24885   3.25615   3.28546   3.30173
 Alpha virt. eigenvalues --    3.35019   3.36890   3.38001   3.40452   3.43332
 Alpha virt. eigenvalues --    3.44653   3.48071   3.51711   3.54707   3.55372
 Alpha virt. eigenvalues --    3.63110   3.64401   3.68413   3.69266   3.71922
 Alpha virt. eigenvalues --    3.77048   3.78052   3.81157   3.85003   3.87708
 Alpha virt. eigenvalues --    3.91014   3.99565   4.00483   4.02371   4.08341
 Alpha virt. eigenvalues --    4.09220   4.10784   4.13640   4.16520   4.16829
 Alpha virt. eigenvalues --    4.22373   4.27814   4.33054   4.35809   4.37759
 Alpha virt. eigenvalues --    4.43084   4.49037   4.51046   4.52150   4.57848
 Alpha virt. eigenvalues --    4.66442   4.66930   4.76400   4.80738   4.82570
 Alpha virt. eigenvalues --    4.92671   4.99381   5.05412   5.15399   5.32257
 Alpha virt. eigenvalues --    5.43181   5.51113   5.57194   5.59974   5.69712
 Alpha virt. eigenvalues --    5.70994   5.72696   5.73865   5.76626   5.86565
 Alpha virt. eigenvalues --    5.90786   5.99619   6.04386   6.08901   6.11319
 Alpha virt. eigenvalues --    6.12621   6.14468   6.14961   6.20522   6.22450
 Alpha virt. eigenvalues --    6.22547   6.23525   6.29354   6.32398   6.34872
 Alpha virt. eigenvalues --    6.36672   6.42659   6.42696   6.44233   6.46087
 Alpha virt. eigenvalues --    6.48317   6.50776   6.51738   6.53066   6.53676
 Alpha virt. eigenvalues --    6.54284   6.57637   6.60218   6.62022   6.68738
 Alpha virt. eigenvalues --    6.71314   6.75557   6.76801   6.81455   6.84908
 Alpha virt. eigenvalues --    6.87740   6.95407   6.96791   7.04598   7.05135
 Alpha virt. eigenvalues --    7.06867   7.10173   7.11480   7.20330   7.20899
 Alpha virt. eigenvalues --    7.26003   7.28765   7.33740   7.36251   7.38172
 Alpha virt. eigenvalues --    7.41184   7.47386   7.54286   7.55905   7.59441
 Alpha virt. eigenvalues --    7.61185   7.66699   7.77374   7.78599   7.79639
 Alpha virt. eigenvalues --    7.82966   7.85310   7.87377   7.89847   7.94490
 Alpha virt. eigenvalues --    7.97208   8.01388   8.03620   8.05637   8.08480
 Alpha virt. eigenvalues --    8.11134   8.13652   8.15609   8.17785   8.19162
 Alpha virt. eigenvalues --    8.22818   8.24040   8.30209   8.30988   8.32916
 Alpha virt. eigenvalues --    8.35834   8.37020   8.43074   8.45960   8.49824
 Alpha virt. eigenvalues --    8.53523   8.64135   8.66079   8.69299   8.73832
 Alpha virt. eigenvalues --    8.73950   8.75966   8.81011   8.81917   8.82812
 Alpha virt. eigenvalues --    8.84961   8.85841   8.89006   8.91556   8.94271
 Alpha virt. eigenvalues --    8.95917   9.00517   9.02700   9.06506   9.09736
 Alpha virt. eigenvalues --    9.13966   9.16502   9.18402   9.20542   9.26091
 Alpha virt. eigenvalues --    9.28083   9.33257   9.36698   9.36860   9.39111
 Alpha virt. eigenvalues --    9.43877   9.46864   9.50106   9.51074   9.58487
 Alpha virt. eigenvalues --    9.70526   9.80238   9.93440  10.01198  10.07933
 Alpha virt. eigenvalues --   10.11352  10.12098  10.13597  10.20758  10.26700
 Alpha virt. eigenvalues --   10.30662  10.36681  10.40396  10.42987  10.46148
 Alpha virt. eigenvalues --   10.49587  10.55158  10.57252  10.58521  10.66541
 Alpha virt. eigenvalues --   10.68404  10.68949  10.72467  10.75934  10.90747
 Alpha virt. eigenvalues --   10.95707  10.95975  10.99544  11.24427  11.33448
 Alpha virt. eigenvalues --   11.37490  11.49775  11.57527  11.65226  11.68314
 Alpha virt. eigenvalues --   11.69169  11.77371  11.88586  11.95974  11.97279
 Alpha virt. eigenvalues --   12.06112  12.14521  12.25109  12.33146  12.41983
 Alpha virt. eigenvalues --   12.48242  12.59792  12.62315  12.74411  12.75441
 Alpha virt. eigenvalues --   12.79699  12.80374  12.82741  13.13638  13.17422
 Alpha virt. eigenvalues --   13.20122  13.28223  13.58233  13.74672  14.04526
 Alpha virt. eigenvalues --   14.32715  14.34462  15.14024  16.53797  26.22490
 Alpha virt. eigenvalues --   26.99996  42.62008  44.40268
          Condensed to atoms (all electrons):
               1          2          3          4          5          6
     1  C    4.716737   0.361506  -0.039763   0.009674  -0.001212   0.408568
     2  C    0.361506   4.483997   0.313163  -0.051493  -0.004083  -0.030881
     3  O   -0.039763   0.313163   7.991650   0.106814  -0.042622   0.000035
     4  O    0.009674  -0.051493   0.106814   7.906946   0.331700  -0.000084
     5  H   -0.001212  -0.004083  -0.042622   0.331700   0.435912  -0.000015
     6  H    0.408568  -0.030881   0.000035  -0.000084  -0.000015   0.591538
     7  H   -0.032130   0.434863  -0.050922   0.000610  -0.001588   0.008396
     8  H   -0.035850   0.391521  -0.056819  -0.003828   0.009263  -0.009483
     9  H    0.410209  -0.032344   0.002966  -0.000381   0.000093  -0.024261
    10  H    0.414829  -0.035753   0.001101  -0.000249   0.000061  -0.023465
               7          8          9         10
     1  C   -0.032130  -0.035850   0.410209   0.414829
     2  C    0.434863   0.391521  -0.032344  -0.035753
     3  O   -0.050922  -0.056819   0.002966   0.001101
     4  O    0.000610  -0.003828  -0.000381  -0.000249
     5  H   -0.001588   0.009263   0.000093   0.000061
     6  H    0.008396  -0.009483  -0.024261  -0.023465
     7  H    0.673572  -0.080547  -0.001083  -0.007903
     8  H   -0.080547   0.772580  -0.001339   0.009100
     9  H   -0.001083  -0.001339   0.602844  -0.023009
    10  H   -0.007903   0.009100  -0.023009   0.577492
 Mulliken charges:
               1
     1  C   -0.212570
     2  C    0.169505
     3  O   -0.225603
     4  O   -0.299709
     5  H    0.272490
     6  H    0.079653
     7  H    0.056732
     8  H    0.005401
     9  H    0.066305
    10  H    0.087796
 Sum of Mulliken charges =   0.00000
 Mulliken charges with hydrogens summed into heavy atoms:
               1
     1  C    0.021183
     2  C    0.231638
     3  O   -0.225603
     4  O   -0.027219
 Electronic spatial extent (au):  <R**2>=            765.6776
 Charge=              0.0000 electrons
 Dipole moment (field-independent basis, Debye):
    X=             -2.2895    Y=             -1.1030    Z=             -0.0777  Tot=              2.5426
 Quadrupole moment (field-independent basis, Debye-Ang):
   XX=            -30.5589   YY=            -24.4298   ZZ=            -23.2055
   XY=             -1.8044   XZ=             -4.6084   YZ=             -4.9995
 Traceless Quadrupole moment (field-independent basis, Debye-Ang):
   XX=             -4.4942   YY=              1.6350   ZZ=              2.8592
   XY=             -1.8044   XZ=             -4.6084   YZ=             -4.9995
 Octapole moment (field-independent basis, Debye-Ang**2):
  XXX=            -66.4248  YYY=             -7.7482  ZZZ=           -103.0775  XYY=            -17.6142
  XXY=             -4.9539  XXZ=            -52.2273  XZZ=            -25.9726  YZZ=            -22.1697
  YYZ=            -37.9740  XYZ=             -7.2403
 Hexadecapole moment (field-independent basis, Debye-Ang**3):
 XXXX=           -226.4375 YYYY=            -41.1544 ZZZZ=           -546.2436 XXXY=            -11.3769
 XXXZ=           -170.1135 YYYX=             -8.3154 YYYZ=            -20.8795 ZZZX=           -150.0115
 ZZZY=            -95.0746 XXYY=            -41.1663 XXZZ=           -168.3353 YYZZ=           -106.6051
 XXYZ=            -17.4933 YYXZ=            -46.8788 ZZXY=            -29.5885
 N-N= 1.310237869868D+02 E-N=-8.015715627004D+02  KE= 2.285607400811D+02
 Leave Link  601 at Thu Dec 21 01:23:41 2017, MaxMem=  3489660928 cpu:         0.5
 (Enter /home/michal/g09/l9999.exe)
 1\1\GINC-LINUX\SP\RMP2-FC\CC-pVQZ\C2H6O2\MICHAL\21-Dec-2017\0\\#P MP2/
 cc-pVQZ SP Nosymm\\PEscan\\0,1\C,0,0.01491,-0.03518,0.04871\C,0,0.1434
 5,0.2094,1.54343\O,0,1.51352,-0.00465,1.85829\O,0,1.67677,0.29859,3.26
 772\H,0,1.34369,-0.52887,3.65947\H,0,0.32384,-1.06156,-0.2038\H,0,-0.1
 4975,1.23937,1.81504\H,0,-0.49562,-0.49411,2.11619\H,0,-1.03124,0.1056
 1,-0.26654\H,0,0.65032,0.66954,-0.50958\\Version=EM64L-G09RevD.01\HF=-
 228.9427539\MP2=-229.8448157\RMSD=9.647e-09\PG=C01 [X(C2H6O2)]\\@


 I do not feel obliged to believe that the same God who
 has endowed us with sense, reason, and intellect has
 intended us to forgo their use.
                   --Galileo Galilei
 Job cpu time:       0 days  1 hours  2 minutes 54.6 seconds.
 File lengths (MBytes):  RWF=    699 Int=      0 D2E=      0 Chk=      8 Scr=      1
 Normal termination of Gaussian 09 at Thu Dec 21 01:23:41 2017.
