 Entering Gaussian System, Link 0=g09
 Input=1HPP_ccsdtdz_037.com
 Output=1HPP_ccsdtdz_037.log
 Initial command:
 /home/michal/g09/l1.exe "/home/michal/gauss_scratch/Gau-6970.inp" -scrdir="/home/michal/gauss_scratch/"
 Entering Link 1 = /home/michal/g09/l1.exe PID=      6971.
  
 Copyright (c) 1988,1990,1992,1993,1995,1998,2003,2009,2013,
            Gaussian, Inc.  All Rights Reserved.
  
 This is part of the Gaussian(R) 09 program.  It is based on
 the Gaussian(R) 03 system (copyright 2003, Gaussian, Inc.),
 the Gaussian(R) 98 system (copyright 1998, Gaussian, Inc.),
 the Gaussian(R) 94 system (copyright 1995, Gaussian, Inc.),
 the Gaussian 92(TM) system (copyright 1992, Gaussian, Inc.),
 the Gaussian 90(TM) system (copyright 1990, Gaussian, Inc.),
 the Gaussian 88(TM) system (copyright 1988, Gaussian, Inc.),
 the Gaussian 86(TM) system (copyright 1986, Carnegie Mellon
 University), and the Gaussian 82(TM) system (copyright 1983,
 Carnegie Mellon University). Gaussian is a federally registered
 trademark of Gaussian, Inc.
  
 This software contains proprietary and confidential information,
 including trade secrets, belonging to Gaussian, Inc.
  
 This software is provided under written license and may be
 used, copied, transmitted, or stored only in accord with that
 written license.
  
 The following legend is applicable only to US Government
 contracts under FAR:
  
                    RESTRICTED RIGHTS LEGEND
  
 Use, reproduction and disclosure by the US Government is
 subject to restrictions as set forth in subparagraphs (a)
 and (c) of the Commercial Computer Software - Restricted
 Rights clause in FAR 52.227-19.
  
 Gaussian, Inc.
 340 Quinnipiac St., Bldg. 40, Wallingford CT 06492
  
  
 ---------------------------------------------------------------
 Warning -- This program may not be used in any manner that
 competes with the business of Gaussian, Inc. or will provide
 assistance to any competitor of Gaussian, Inc.  The licensee
 of this program is prohibited from giving any competitor of
 Gaussian, Inc. access to this program.  By using this program,
 the user acknowledges that Gaussian, Inc. is engaged in the
 business of creating and licensing software in the field of
 computational chemistry and represents and warrants to the
 licensee that it is not a competitor of Gaussian, Inc. and that
 it will not use this program in any manner prohibited above.
 ---------------------------------------------------------------
  

 Cite this work as:
 Gaussian 09, Revision D.01,
 M. J. Frisch, G. W. Trucks, H. B. Schlegel, G. E. Scuseria, 
 M. A. Robb, J. R. Cheeseman, G. Scalmani, V. Barone, B. Mennucci, 
 G. A. Petersson, H. Nakatsuji, M. Caricato, X. Li, H. P. Hratchian, 
 A. F. Izmaylov, J. Bloino, G. Zheng, J. L. Sonnenberg, M. Hada, 
 M. Ehara, K. Toyota, R. Fukuda, J. Hasegawa, M. Ishida, T. Nakajima, 
 Y. Honda, O. Kitao, H. Nakai, T. Vreven, J. A. Montgomery, Jr., 
 J. E. Peralta, F. Ogliaro, M. Bearpark, J. J. Heyd, E. Brothers, 
 K. N. Kudin, V. N. Staroverov, T. Keith, R. Kobayashi, J. Normand, 
 K. Raghavachari, A. Rendell, J. C. Burant, S. S. Iyengar, J. Tomasi, 
 M. Cossi, N. Rega, J. M. Millam, M. Klene, J. E. Knox, J. B. Cross, 
 V. Bakken, C. Adamo, J. Jaramillo, R. Gomperts, R. E. Stratmann, 
 O. Yazyev, A. J. Austin, R. Cammi, C. Pomelli, J. W. Ochterski, 
 R. L. Martin, K. Morokuma, V. G. Zakrzewski, G. A. Voth, 
 P. Salvador, J. J. Dannenberg, S. Dapprich, A. D. Daniels, 
 O. Farkas, J. B. Foresman, J. V. Ortiz, J. Cioslowski, 
 and D. J. Fox, Gaussian, Inc., Wallingford CT, 2013.
 
 ******************************************
 Gaussian 09:  EM64L-G09RevD.01 24-Apr-2013
                21-Dec-2017 
 ******************************************
 %Mem=26GB
 %NProc=12
 Will use up to   12 processors via shared memory.
 %RWF=/home/michal/Cholesterol_grant/peroxy_params,20GB
 ----------------------------
 #P CCSD(T)/cc-pVDZ SP Nosymm
 ----------------------------
 1/38=1/1;
 2/12=2,15=1,17=6,18=5,40=1/2;
 3/5=16,11=9,16=1,25=1,30=1/1,2,3;
 4//1;
 5/5=2,38=5/2;
 8/6=4,9=120000,10=1/1,4;
 9/5=7,14=2/13;
 6/7=2,8=2,9=2,10=2/1;
 99/5=1,9=1/99;
 Leave Link    1 at Thu Dec 21 02:59:24 2017, MaxMem=  3489660928 cpu:         0.3
 (Enter /home/michal/g09/l101.exe)
 ------
 PEscan
 ------
 Symbolic Z-matrix:
 Charge =  0 Multiplicity = 1
 C                     0.02562  -0.02668   0.02501 
 C                     0.03054   0.19919   1.52805 
 O                     1.31791  -0.18646   1.97683 
 O                     1.26972   0.04989   3.42551 
 H                     2.175    -0.23889   3.62499 
 H                     0.21476  -1.08635  -0.20747 
 H                    -0.15143   1.26118   1.77749 
 H                    -0.74127  -0.4128    2.03098 
 H                    -0.95417   0.2554   -0.39211 
 H                     0.80321   0.58366  -0.46035 
 
 NAtoms=     10 NQM=       10 NQMF=       0 NMMI=      0 NMMIF=      0
                NMic=       0 NMicF=      0.
                    Isotopes and Nuclear Properties:
 (Nuclear quadrupole moments (NQMom) in fm**2, nuclear magnetic moments (NMagM)
  in nuclear magnetons)

  Atom         1           2           3           4           5           6           7           8           9          10
 IAtWgt=          12          12          16          16           1           1           1           1           1           1
 AtmWgt=  12.0000000  12.0000000  15.9949146  15.9949146   1.0078250   1.0078250   1.0078250   1.0078250   1.0078250   1.0078250
 NucSpn=           0           0           0           0           1           1           1           1           1           1
 AtZEff=   0.0000000   0.0000000   0.0000000   0.0000000   0.0000000   0.0000000   0.0000000   0.0000000   0.0000000   0.0000000
 NQMom=    0.0000000   0.0000000   0.0000000   0.0000000   0.0000000   0.0000000   0.0000000   0.0000000   0.0000000   0.0000000
 NMagM=    0.0000000   0.0000000   0.0000000   0.0000000   2.7928460   2.7928460   2.7928460   2.7928460   2.7928460   2.7928460
 AtZNuc=   6.0000000   6.0000000   8.0000000   8.0000000   1.0000000   1.0000000   1.0000000   1.0000000   1.0000000   1.0000000
 Leave Link  101 at Thu Dec 21 02:59:25 2017, MaxMem=  3489660928 cpu:         0.5
 (Enter /home/michal/g09/l202.exe)
                          Input orientation:                          
 ---------------------------------------------------------------------
 Center     Atomic      Atomic             Coordinates (Angstroms)
 Number     Number       Type             X           Y           Z
 ---------------------------------------------------------------------
      1          6           0        0.025620   -0.026680    0.025010
      2          6           0        0.030540    0.199190    1.528050
      3          8           0        1.317910   -0.186460    1.976830
      4          8           0        1.269720    0.049890    3.425510
      5          1           0        2.175000   -0.238890    3.624990
      6          1           0        0.214760   -1.086350   -0.207470
      7          1           0       -0.151430    1.261180    1.777490
      8          1           0       -0.741270   -0.412800    2.030980
      9          1           0       -0.954170    0.255400   -0.392110
     10          1           0        0.803210    0.583660   -0.460350
 ---------------------------------------------------------------------
                    Distance matrix (angstroms):
                    1          2          3          4          5
     1  C    0.000000
     2  C    1.519925   0.000000
     3  O    2.346304   1.416845   0.000000
     4  O    3.621747   2.271170   1.468624   0.000000
     5  H    4.198181   3.031135   1.858436   0.970937   0.000000
     6  H    1.101236   2.167621   2.607280   3.950003   4.387309
     7  H    2.181998   1.105964   2.072283   2.490554   3.328024
     8  H    2.182000   1.105966   2.072290   2.490558   3.328024
     9  H    1.101611   2.158663   3.312018   4.422911   5.115967
    10  H    1.101243   2.167619   2.607268   3.949994   4.387300
                    6          7          8          9         10
     6  H    0.000000
     7  H    3.095975   0.000000
     8  H    2.525534   1.792868   0.000000
     9  H    1.789073   2.522528   2.522535   0.000000
    10  H    1.788618   2.525529   3.095977   1.789077   0.000000
 Symmetry turned off by external request.
 Stoichiometry    C2H6O2
 Framework group  C1[X(C2H6O2)]
 Deg. of freedom    24
 Full point group                 C1      NOp   1
 Rotational constants (GHZ):     30.8833595      4.1955317      3.8768876
 Leave Link  202 at Thu Dec 21 02:59:25 2017, MaxMem=  3489660928 cpu:         0.0
 (Enter /home/michal/g09/l301.exe)
 Standard basis: CC-pVDZ (5D, 7F)
 Ernie: Thresh=  0.10000D-02 Tol=  0.10000D-05 Strict=F.
 Ernie:  8 primitive shells out of 118 were deleted.
    86 basis functions,   174 primitive gaussians,    90 cartesian basis functions
    17 alpha electrons       17 beta electrons
       nuclear repulsion energy       130.8248655313 Hartrees.
 IExCor=    0 DFT=F Ex=HF Corr=None ExCW=0 ScaHFX=  1.000000
 ScaDFX=  1.000000  1.000000  1.000000  1.000000 ScalE2=  1.000000  1.000000
 IRadAn=      0 IRanWt=     -1 IRanGd=            0 ICorTp=0 IEmpDi=  4
 NAtoms=   10 NActive=   10 NUniq=   10 SFac= 1.00D+00 NAtFMM=   60 NAOKFM=F Big=F
 Integral buffers will be    131072 words long.
 Raffenetti 1 integral format.
 Two-electron integral symmetry is turned off.
 Leave Link  301 at Thu Dec 21 02:59:25 2017, MaxMem=  3489660928 cpu:         0.3
 (Enter /home/michal/g09/l302.exe)
 NPDir=0 NMtPBC=     1 NCelOv=     1 NCel=       1 NClECP=     1 NCelD=      1
         NCelK=      1 NCelE2=     1 NClLst=     1 CellRange=     0.0.
 One-electron integrals computed using PRISM.
 NBasis=    86 RedAO= T EigKep=  5.96D-03  NBF=    86
 NBsUse=    86 1.00D-06 EigRej= -1.00D+00 NBFU=    86
 Leave Link  302 at Thu Dec 21 02:59:25 2017, MaxMem=  3489660928 cpu:         4.1
 (Enter /home/michal/g09/l303.exe)
 DipDrv:  MaxL=1.
 Leave Link  303 at Thu Dec 21 02:59:25 2017, MaxMem=  3489660928 cpu:         0.2
 (Enter /home/michal/g09/l401.exe)
 ExpMin= 1.22D-01 ExpMax= 1.17D+04 ExpMxC= 4.01D+02 IAcc=1 IRadAn=         1 AccDes= 0.00D+00
 Harris functional with IExCor=  205 and IRadAn=       1 diagonalized for initial guess.
 HarFok:  IExCor=  205 AccDes= 0.00D+00 IRadAn=         1 IDoV= 1 UseB2=F ITyADJ=14
 ICtDFT=  3500011 ScaDFX=  1.000000  1.000000  1.000000  1.000000
 FoFCou: FMM=F IPFlag=           0 FMFlag=      100000 FMFlg1=           0
         NFxFlg=           0 DoJE=T BraDBF=F KetDBF=T FulRan=T
         wScrn=  0.000000 ICntrl=     500 IOpCl=  0 I1Cent=   200000004 NGrid=           0
         NMat0=    1 NMatS0=      1 NMatT0=    0 NMatD0=    1 NMtDS0=    0 NMtDT0=    0
 Symmetry not used in FoFCou.
 Harris En= -229.127265936487    
 JPrj=0 DoOrth=F DoCkMO=F.
 Leave Link  401 at Thu Dec 21 02:59:25 2017, MaxMem=  3489660928 cpu:         2.5
 (Enter /home/michal/g09/l502.exe)
 Closed shell SCF:
 Using DIIS extrapolation, IDIIS=  1040.
 Two-electron integral symmetry not used.
 Keep R1 ints in memory in canonical form, NReq=7943031.
 IVT=       44490 IEndB=       44490 NGot=  3489660928 MDV=  3482617028
 LenX=  3482617028 LenY=  3482608487
 Requested convergence on RMS density matrix=1.00D-08 within 128 cycles.
 Requested convergence on MAX density matrix=1.00D-06.
 Requested convergence on             energy=1.00D-06.
 No special actions if energy rises.
 FoFCou: FMM=F IPFlag=           0 FMFlag=           0 FMFlg1=           0
         NFxFlg=           0 DoJE=F BraDBF=F KetDBF=F FulRan=T
         wScrn=  0.000000 ICntrl=     600 IOpCl=  0 I1Cent=           0 NGrid=           0
         NMat0=    1 NMatS0=   3741 NMatT0=    0 NMatD0=    1 NMtDS0=    0 NMtDT0=    0
 Symmetry not used in FoFCou.

 Cycle   1  Pass 1  IDiag  1:
 E= -228.696026843013    
 DIIS: error= 3.69D-02 at cycle   1 NSaved=   1.
 NSaved= 1 IEnMin= 1 EnMin= -228.696026843013     IErMin= 1 ErrMin= 3.69D-02
 ErrMax= 3.69D-02  0.00D+00 EMaxC= 1.00D-01 BMatC= 2.03D-01 BMatP= 2.03D-01
 IDIUse=3 WtCom= 6.31D-01 WtEn= 3.69D-01
 Coeff-Com:  0.100D+01
 Coeff-En:   0.100D+01
 Coeff:      0.100D+01
 Gap=     0.693 Goal=   None    Shift=    0.000
 GapD=    0.693 DampG=2.000 DampE=0.500 DampFc=1.0000 IDamp=-1.
 RMSDP=4.88D-03 MaxDP=1.13D-01              OVMax= 1.23D-01

 Cycle   2  Pass 1  IDiag  1:
 E= -228.830456687416     Delta-E=       -0.134429844403 Rises=F Damp=F
 DIIS: error= 1.52D-02 at cycle   2 NSaved=   2.
 NSaved= 2 IEnMin= 2 EnMin= -228.830456687416     IErMin= 2 ErrMin= 1.52D-02
 ErrMax= 1.52D-02  0.00D+00 EMaxC= 1.00D-01 BMatC= 2.64D-02 BMatP= 2.03D-01
 IDIUse=3 WtCom= 8.48D-01 WtEn= 1.52D-01
 Coeff-Com:  0.213D+00 0.787D+00
 Coeff-En:   0.000D+00 0.100D+01
 Coeff:      0.181D+00 0.819D+00
 Gap=     0.721 Goal=   None    Shift=    0.000
 RMSDP=1.56D-03 MaxDP=3.04D-02 DE=-1.34D-01 OVMax= 3.60D-02

 Cycle   3  Pass 1  IDiag  1:
 E= -228.853194205962     Delta-E=       -0.022737518546 Rises=F Damp=F
 DIIS: error= 3.09D-03 at cycle   3 NSaved=   3.
 NSaved= 3 IEnMin= 3 EnMin= -228.853194205962     IErMin= 3 ErrMin= 3.09D-03
 ErrMax= 3.09D-03  0.00D+00 EMaxC= 1.00D-01 BMatC= 1.31D-03 BMatP= 2.64D-02
 IDIUse=3 WtCom= 9.69D-01 WtEn= 3.09D-02
 Coeff-Com: -0.213D-01 0.130D+00 0.892D+00
 Coeff-En:   0.000D+00 0.000D+00 0.100D+01
 Coeff:     -0.206D-01 0.126D+00 0.895D+00
 Gap=     0.614 Goal=   None    Shift=    0.000
 RMSDP=3.46D-04 MaxDP=6.11D-03 DE=-2.27D-02 OVMax= 7.74D-03

 Cycle   4  Pass 1  IDiag  1:
 E= -228.854399620729     Delta-E=       -0.001205414767 Rises=F Damp=F
 DIIS: error= 1.13D-03 at cycle   4 NSaved=   4.
 NSaved= 4 IEnMin= 4 EnMin= -228.854399620729     IErMin= 4 ErrMin= 1.13D-03
 ErrMax= 1.13D-03  0.00D+00 EMaxC= 1.00D-01 BMatC= 1.35D-04 BMatP= 1.31D-03
 IDIUse=3 WtCom= 9.89D-01 WtEn= 1.13D-02
 Coeff-Com: -0.125D-01 0.175D-01 0.298D+00 0.697D+00
 Coeff-En:   0.000D+00 0.000D+00 0.000D+00 0.100D+01
 Coeff:     -0.123D-01 0.173D-01 0.294D+00 0.701D+00
 Gap=     0.611 Goal=   None    Shift=    0.000
 RMSDP=9.56D-05 MaxDP=2.48D-03 DE=-1.21D-03 OVMax= 2.80D-03

 Cycle   5  Pass 1  IDiag  1:
 E= -228.854505636684     Delta-E=       -0.000106015955 Rises=F Damp=F
 DIIS: error= 2.92D-04 at cycle   5 NSaved=   5.
 NSaved= 5 IEnMin= 5 EnMin= -228.854505636684     IErMin= 5 ErrMin= 2.92D-04
 ErrMax= 2.92D-04  0.00D+00 EMaxC= 1.00D-01 BMatC= 7.48D-06 BMatP= 1.35D-04
 IDIUse=3 WtCom= 9.97D-01 WtEn= 2.92D-03
 Coeff-Com:  0.176D-02-0.170D-01-0.960D-01 0.477D-01 0.106D+01
 Coeff-En:   0.000D+00 0.000D+00 0.000D+00 0.000D+00 0.100D+01
 Coeff:      0.175D-02-0.169D-01-0.957D-01 0.476D-01 0.106D+01
 Gap=     0.611 Goal=   None    Shift=    0.000
 RMSDP=4.37D-05 MaxDP=5.73D-04 DE=-1.06D-04 OVMax= 1.44D-03

 Cycle   6  Pass 1  IDiag  1:
 E= -228.854517676903     Delta-E=       -0.000012040219 Rises=F Damp=F
 DIIS: error= 5.90D-05 at cycle   6 NSaved=   6.
 NSaved= 6 IEnMin= 6 EnMin= -228.854517676903     IErMin= 6 ErrMin= 5.90D-05
 ErrMax= 5.90D-05  0.00D+00 EMaxC= 1.00D-01 BMatC= 3.94D-07 BMatP= 7.48D-06
 IDIUse=1 WtCom= 1.00D+00 WtEn= 0.00D+00
 Coeff-Com:  0.777D-03-0.338D-02-0.252D-01-0.288D-01 0.146D+00 0.911D+00
 Coeff:      0.777D-03-0.338D-02-0.252D-01-0.288D-01 0.146D+00 0.911D+00
 Gap=     0.611 Goal=   None    Shift=    0.000
 RMSDP=9.60D-06 MaxDP=1.78D-04 DE=-1.20D-05 OVMax= 2.66D-04

 Cycle   7  Pass 1  IDiag  1:
 E= -228.854518282892     Delta-E=       -0.000000605989 Rises=F Damp=F
 DIIS: error= 1.67D-05 at cycle   7 NSaved=   7.
 NSaved= 7 IEnMin= 7 EnMin= -228.854518282892     IErMin= 7 ErrMin= 1.67D-05
 ErrMax= 1.67D-05  0.00D+00 EMaxC= 1.00D-01 BMatC= 4.29D-08 BMatP= 3.94D-07
 IDIUse=1 WtCom= 1.00D+00 WtEn= 0.00D+00
 Coeff-Com: -0.488D-04 0.121D-02 0.616D-02-0.993D-02-0.861D-01 0.911D-01
 Coeff-Com:  0.998D+00
 Coeff:     -0.488D-04 0.121D-02 0.616D-02-0.993D-02-0.861D-01 0.911D-01
 Coeff:      0.998D+00
 Gap=     0.611 Goal=   None    Shift=    0.000
 RMSDP=3.89D-06 MaxDP=4.87D-05 DE=-6.06D-07 OVMax= 1.06D-04

 Cycle   8  Pass 1  IDiag  1:
 E= -228.854518370390     Delta-E=       -0.000000087498 Rises=F Damp=F
 DIIS: error= 7.85D-06 at cycle   8 NSaved=   8.
 NSaved= 8 IEnMin= 8 EnMin= -228.854518370390     IErMin= 8 ErrMin= 7.85D-06
 ErrMax= 7.85D-06  0.00D+00 EMaxC= 1.00D-01 BMatC= 4.00D-09 BMatP= 4.29D-08
 IDIUse=1 WtCom= 1.00D+00 WtEn= 0.00D+00
 Coeff-Com: -0.602D-04 0.103D-03 0.127D-02 0.451D-02 0.402D-02-0.112D+00
 Coeff-Com: -0.168D+00 0.127D+01
 Coeff:     -0.602D-04 0.103D-03 0.127D-02 0.451D-02 0.402D-02-0.112D+00
 Coeff:     -0.168D+00 0.127D+01
 Gap=     0.611 Goal=   None    Shift=    0.000
 RMSDP=1.53D-06 MaxDP=2.78D-05 DE=-8.75D-08 OVMax= 5.06D-05

 Cycle   9  Pass 1  IDiag  1:
 E= -228.854518382819     Delta-E=       -0.000000012428 Rises=F Damp=F
 DIIS: error= 2.03D-06 at cycle   9 NSaved=   9.
 NSaved= 9 IEnMin= 9 EnMin= -228.854518382819     IErMin= 9 ErrMin= 2.03D-06
 ErrMax= 2.03D-06  0.00D+00 EMaxC= 1.00D-01 BMatC= 3.18D-10 BMatP= 4.00D-09
 IDIUse=1 WtCom= 1.00D+00 WtEn= 0.00D+00
 Coeff-Com:  0.187D-04-0.104D-03-0.792D-03-0.658D-03 0.604D-02 0.232D-01
 Coeff-Com: -0.311D-01-0.349D+00 0.135D+01
 Coeff:      0.187D-04-0.104D-03-0.792D-03-0.658D-03 0.604D-02 0.232D-01
 Coeff:     -0.311D-01-0.349D+00 0.135D+01
 Gap=     0.611 Goal=   None    Shift=    0.000
 RMSDP=4.92D-07 MaxDP=9.83D-06 DE=-1.24D-08 OVMax= 1.64D-05

 Cycle  10  Pass 1  IDiag  1:
 E= -228.854518383911     Delta-E=       -0.000000001093 Rises=F Damp=F
 DIIS: error= 7.35D-07 at cycle  10 NSaved=  10.
 NSaved=10 IEnMin=10 EnMin= -228.854518383911     IErMin=10 ErrMin= 7.35D-07
 ErrMax= 7.35D-07  0.00D+00 EMaxC= 1.00D-01 BMatC= 2.51D-11 BMatP= 3.18D-10
 IDIUse=1 WtCom= 1.00D+00 WtEn= 0.00D+00
 Coeff-Com:  0.572D-05-0.183D-04-0.174D-03-0.420D-03 0.408D-03 0.104D-01
 Coeff-Com:  0.938D-02-0.126D+00 0.129D+00 0.978D+00
 Coeff:      0.572D-05-0.183D-04-0.174D-03-0.420D-03 0.408D-03 0.104D-01
 Coeff:      0.938D-02-0.126D+00 0.129D+00 0.978D+00
 Gap=     0.611 Goal=   None    Shift=    0.000
 RMSDP=1.01D-07 MaxDP=1.98D-06 DE=-1.09D-09 OVMax= 3.42D-06

 Cycle  11  Pass 1  IDiag  1:
 E= -228.854518383976     Delta-E=       -0.000000000064 Rises=F Damp=F
 DIIS: error= 2.32D-07 at cycle  11 NSaved=  11.
 NSaved=11 IEnMin=11 EnMin= -228.854518383976     IErMin=11 ErrMin= 2.32D-07
 ErrMax= 2.32D-07  0.00D+00 EMaxC= 1.00D-01 BMatC= 3.54D-12 BMatP= 2.51D-11
 IDIUse=1 WtCom= 1.00D+00 WtEn= 0.00D+00
 Coeff-Com: -0.267D-05 0.139D-04 0.112D-03 0.139D-03-0.643D-03-0.499D-02
 Coeff-Com:  0.163D-02 0.668D-01-0.196D+00-0.138D+00 0.127D+01
 Coeff:     -0.267D-05 0.139D-04 0.112D-03 0.139D-03-0.643D-03-0.499D-02
 Coeff:      0.163D-02 0.668D-01-0.196D+00-0.138D+00 0.127D+01
 Gap=     0.611 Goal=   None    Shift=    0.000
 RMSDP=4.60D-08 MaxDP=7.46D-07 DE=-6.42D-11 OVMax= 1.50D-06

 Cycle  12  Pass 1  IDiag  1:
 E= -228.854518383986     Delta-E=       -0.000000000010 Rises=F Damp=F
 DIIS: error= 6.09D-08 at cycle  12 NSaved=  12.
 NSaved=12 IEnMin=12 EnMin= -228.854518383986     IErMin=12 ErrMin= 6.09D-08
 ErrMax= 6.09D-08  0.00D+00 EMaxC= 1.00D-01 BMatC= 2.52D-13 BMatP= 3.54D-12
 IDIUse=1 WtCom= 1.00D+00 WtEn= 0.00D+00
 Coeff-Com:  0.213D-08-0.133D-05-0.521D-05 0.138D-04 0.134D-03-0.314D-03
 Coeff-Com: -0.127D-02 0.255D-02 0.165D-01-0.634D-01-0.232D+00 0.128D+01
 Coeff:      0.213D-08-0.133D-05-0.521D-05 0.138D-04 0.134D-03-0.314D-03
 Coeff:     -0.127D-02 0.255D-02 0.165D-01-0.634D-01-0.232D+00 0.128D+01
 Gap=     0.611 Goal=   None    Shift=    0.000
 RMSDP=1.40D-08 MaxDP=2.38D-07 DE=-9.83D-12 OVMax= 4.39D-07

 Cycle  13  Pass 1  IDiag  1:
 E= -228.854518383987     Delta-E=       -0.000000000001 Rises=F Damp=F
 DIIS: error= 9.83D-09 at cycle  13 NSaved=  13.
 NSaved=13 IEnMin=13 EnMin= -228.854518383987     IErMin=13 ErrMin= 9.83D-09
 ErrMax= 9.83D-09  0.00D+00 EMaxC= 1.00D-01 BMatC= 1.37D-14 BMatP= 2.52D-13
 IDIUse=1 WtCom= 1.00D+00 WtEn= 0.00D+00
 Coeff-Com:  0.170D-06-0.598D-06-0.545D-05-0.146D-04 0.103D-04 0.360D-03
 Coeff-Com:  0.321D-03-0.472D-02 0.637D-02 0.284D-01-0.116D-01-0.355D+00
 Coeff-Com:  0.134D+01
 Coeff:      0.170D-06-0.598D-06-0.545D-05-0.146D-04 0.103D-04 0.360D-03
 Coeff:      0.321D-03-0.472D-02 0.637D-02 0.284D-01-0.116D-01-0.355D+00
 Coeff:      0.134D+01
 Gap=     0.611 Goal=   None    Shift=    0.000
 RMSDP=3.00D-09 MaxDP=4.16D-08 DE=-1.14D-12 OVMax= 9.03D-08

 SCF Done:  E(RHF) =  -228.854518384     A.U. after   13 cycles
            NFock= 13  Conv=0.30D-08     -V/T= 2.0014
 KE= 2.285434894132D+02 PE=-8.011759441540D+02 EE= 2.129530708254D+02
 Leave Link  502 at Thu Dec 21 02:59:26 2017, MaxMem=  3489660928 cpu:         3.5
 (Enter /home/michal/g09/l801.exe)
 Windowed orbitals will be sorted by symmetry type.
 ExpMin= 1.22D-01 ExpMax= 1.17D+04 ExpMxC= 4.01D+02 IAcc=3 IRadAn=         5 AccDes= 0.00D+00
 HarFok:  IExCor=  205 AccDes= 0.00D+00 IRadAn=         5 IDoV=-2 UseB2=F ITyADJ=14
 ICtDFT= 12500011 ScaDFX=  1.000000  1.000000  1.000000  1.000000
 Largest valence mixing into a core orbital is  1.06D-04
 Largest core mixing into a valence orbital is  4.32D-05
 Range of M.O.s used for correlation:     5    86
 NBasis=    86 NAE=    17 NBE=    17 NFC=     4 NFV=     0
 NROrb=     82 NOA=    13 NOB=    13 NVA=    69 NVB=    69
 Leave Link  801 at Thu Dec 21 02:59:26 2017, MaxMem=  3489660928 cpu:         1.3
 (Enter /home/michal/g09/l804.exe)
 Closed-shell transformation, MDV=  3489660928 ITran=4 ISComp=1.
 Semi-Direct transformation.
 ModeAB=           2 MOrb=            13 LenV=    3489332243
 LASXX=      3165006 LTotXX=     3165006 LenRXX=     3165006
 LTotAB=     3280537 MaxLAS=     4365270 LenRXY=     4365270
 NonZer=     6330012 LenScr=    10221568 LnRSAI=           0
 LnScr1=           0 LExtra=      494080 Total=     18245924
 MaxDsk=  2684354560 SrtSym=           F ITran=            4
 DoSDTr:  NPSUse= 12
 JobTyp=0 Pass  1:  I=   1 to  13.
 (rs|ai) integrals will be sorted in core.
 Complete sort for first half transformation.
 First half transformation complete.
 Begin second half transformation for I=  10.
 Begin second half transformation for I=  10.
 Complete sort for second half transformation.
 Second half transformation complete.
 Spin components of T(2) and E(2):
     alpha-alpha T2 =       0.2430857241D-01 E2=     -0.8147942167D-01
     alpha-beta  T2 =       0.1530131907D+00 E2=     -0.5073833138D+00
     beta-beta   T2 =       0.2430857241D-01 E2=     -0.8147942167D-01
 ANorm=    0.1096189005D+01
 E2 =    -0.6703421572D+00 EUMP2 =    -0.22952486054114D+03
 Leave Link  804 at Thu Dec 21 02:59:27 2017, MaxMem=  3489660928 cpu:        12.1
 (Enter /home/michal/g09/l913.exe)
 CIDS:  MDV=  3489660928.
 Frozen-core window:  NFC=   4 NFV=   0.
 IFCWin=0 IBDFC=1 NFBD=     0     0 NFCmp=     0     0 NFFFC=     0     0
 Using DD3R+UMP44R for 1st iteration, S=T.
 Using DD4RQ for 2nd and later iterations.
 Keep R2 and R3 ints in memory in canonical form, NReq=14820214.
 FoFCou: FMM=F IPFlag=           0 FMFlag=           0 FMFlg1=           0
         NFxFlg=           0 DoJE=F BraDBF=F KetDBF=F FulRan=T
         wScrn=  0.000000 ICntrl=     600 IOpCl=  0 I1Cent=           0 NGrid=           0
         NMat0=    1 NMatS0=   3741 NMatT0=    0 NMatD0=    1 NMtDS0=    0 NMtDT0=    0
 Symmetry not used in FoFCou.
 CCSD(T)
 =======
 Iterations=  50 Convergence= 0.100D-06
 Iteration Nr.   1
 **********************
 DD1Dir will call FoFMem   1 times, MxPair=       182
 NAB=    91 NAA=     0 NBB=     0.
 MP4(R+Q)=  0.12038475D-01
 Maximum subspace dimension=  5
 Norm of the A-vectors is  1.1222037D+00 conv= 1.00D-05.
 RLE energy=       -0.6889713432
 E3=       -0.30203404D-01        EUMP3=      -0.22955506395D+03
 E4(DQ)=   -0.49483832D-02        UMP4(DQ)=   -0.22956001233D+03
 E4(SDQ)=  -0.10284050D-01        UMP4(SDQ)=  -0.22956534800D+03
 VARIATIONAL ENERGIES WITH THE FIRST-ORDER WAVEFUNCTION:
 DE(Corr)= -0.68846763     E(Corr)=     -229.54298601    
 NORM(A)=   0.11042859D+01
 Iteration Nr.   2
 **********************
 DD1Dir will call FoFMem   1 times, MxPair=       182
 NAB=    91 NAA=     0 NBB=     0.
 Norm of the A-vectors is  3.6490904D-01 conv= 1.00D-05.
 RLE energy=       -0.7099115281
 DE(Corr)= -0.70688571     E(CORR)=     -229.56140409     Delta=-1.84D-02
 NORM(A)=   0.11130360D+01
 Iteration Nr.   3
 **********************
 DD1Dir will call FoFMem   1 times, MxPair=       182
 NAB=    91 NAA=     0 NBB=     0.
 Norm of the A-vectors is  1.0825561D-01 conv= 1.00D-05.
 RLE energy=       -0.7109662541
 DE(Corr)= -0.70954944     E(CORR)=     -229.56406782     Delta=-2.66D-03
 NORM(A)=   0.11147342D+01
 Iteration Nr.   4
 **********************
 DD1Dir will call FoFMem   1 times, MxPair=       182
 NAB=    91 NAA=     0 NBB=     0.
 Norm of the A-vectors is  3.7652782D-02 conv= 1.00D-05.
 RLE energy=       -0.7112033522
 DE(Corr)= -0.71108002     E(CORR)=     -229.56559841     Delta=-1.53D-03
 NORM(A)=   0.11151453D+01
 Iteration Nr.   5
 **********************
 DD1Dir will call FoFMem   1 times, MxPair=       182
 NAB=    91 NAA=     0 NBB=     0.
 Norm of the A-vectors is  1.0165470D-02 conv= 1.00D-05.
 RLE energy=       -0.7112587136
 DE(Corr)= -0.71122308     E(CORR)=     -229.56574147     Delta=-1.43D-04
 NORM(A)=   0.11152498D+01
 Iteration Nr.   6
 **********************
 DD1Dir will call FoFMem   1 times, MxPair=       182
 NAB=    91 NAA=     0 NBB=     0.
 Norm of the A-vectors is  4.1810507D-03 conv= 1.00D-05.
 RLE energy=       -0.7112267063
 DE(Corr)= -0.71124217     E(CORR)=     -229.56576056     Delta=-1.91D-05
 NORM(A)=   0.11152540D+01
 Iteration Nr.   7
 **********************
 DD1Dir will call FoFMem   1 times, MxPair=       182
 NAB=    91 NAA=     0 NBB=     0.
 Norm of the A-vectors is  1.6772706D-03 conv= 1.00D-05.
 RLE energy=       -0.7112370526
 DE(Corr)= -0.71124231     E(CORR)=     -229.56576069     Delta=-1.33D-07
 NORM(A)=   0.11152606D+01
 Iteration Nr.   8
 **********************
 DD1Dir will call FoFMem   1 times, MxPair=       182
 NAB=    91 NAA=     0 NBB=     0.
 Norm of the A-vectors is  6.3830493D-04 conv= 1.00D-05.
 RLE energy=       -0.7112385178
 DE(Corr)= -0.71123943     E(CORR)=     -229.56575782     Delta= 2.87D-06
 NORM(A)=   0.11152626D+01
 Iteration Nr.   9
 **********************
 DD1Dir will call FoFMem   1 times, MxPair=       182
 NAB=    91 NAA=     0 NBB=     0.
 Norm of the A-vectors is  2.5515067D-04 conv= 1.00D-05.
 RLE energy=       -0.7112404972
 DE(Corr)= -0.71124070     E(CORR)=     -229.56575909     Delta=-1.27D-06
 NORM(A)=   0.11152636D+01
 Iteration Nr.  10
 **********************
 DD1Dir will call FoFMem   1 times, MxPair=       182
 NAB=    91 NAA=     0 NBB=     0.
 Norm of the A-vectors is  1.0186249D-04 conv= 1.00D-05.
 RLE energy=       -0.7112413833
 DE(Corr)= -0.71124113     E(CORR)=     -229.56575952     Delta=-4.29D-07
 NORM(A)=   0.11152643D+01
 Iteration Nr.  11
 **********************
 DD1Dir will call FoFMem   1 times, MxPair=       182
 NAB=    91 NAA=     0 NBB=     0.
 Norm of the A-vectors is  3.8046387D-05 conv= 1.00D-05.
 RLE energy=       -0.7112416007
 DE(Corr)= -0.71124150     E(CORR)=     -229.56575988     Delta=-3.65D-07
 NORM(A)=   0.11152646D+01
 Iteration Nr.  12
 **********************
 DD1Dir will call FoFMem   1 times, MxPair=       182
 NAB=    91 NAA=     0 NBB=     0.
 Norm of the A-vectors is  1.6752397D-05 conv= 1.00D-05.
 RLE energy=       -0.7112417275
 DE(Corr)= -0.71124167     E(CORR)=     -229.56576005     Delta=-1.70D-07
 NORM(A)=   0.11152647D+01
 Iteration Nr.  13
 **********************
 DD1Dir will call FoFMem   1 times, MxPair=       182
 NAB=    91 NAA=     0 NBB=     0.
 Norm of the A-vectors is  7.2422447D-06 conv= 1.00D-05.
 RLE energy=       -0.7112417461
 DE(Corr)= -0.71124172     E(CORR)=     -229.56576011     Delta=-5.74D-08
 NORM(A)=   0.11152648D+01
 CI/CC converged in   13 iterations to DelEn=-5.74D-08 Conv= 1.00D-07 ErrA1= 7.24D-06 Conv= 1.00D-05
 Largest amplitude= 2.52D-02
 T4(AAA)= -0.44055989D-03
 T4(AAB)= -0.97083359D-02
 T5(AAA)=  0.23455715D-04
 T5(AAB)=  0.33599514D-03
 Time for triples=      120.30 seconds.
 T4(CCSD)= -0.20297792D-01
 T5(CCSD)=  0.71890170D-03
 CCSD(T)= -0.22958533900D+03
 Discarding MO integrals.
 Leave Link  913 at Thu Dec 21 03:00:18 2017, MaxMem=  3489660928 cpu:       612.3
 (Enter /home/michal/g09/l601.exe)
 Copying SCF densities to generalized density rwf, IOpCl= 0 IROHF=0.

 **********************************************************************

            Population analysis using the SCF density.

 **********************************************************************

 Alpha  occ. eigenvalues --  -20.61667 -20.61631 -11.28462 -11.23186  -1.46196
 Alpha  occ. eigenvalues --   -1.22669  -1.00094  -0.83744  -0.69359  -0.67173
 Alpha  occ. eigenvalues --   -0.65033  -0.57428  -0.54256  -0.53226  -0.49980
 Alpha  occ. eigenvalues --   -0.49515  -0.42696
 Alpha virt. eigenvalues --    0.18445   0.19802   0.23714   0.24594   0.25627
 Alpha virt. eigenvalues --    0.28080   0.29148   0.36484   0.40010   0.59621
 Alpha virt. eigenvalues --    0.61880   0.67688   0.75608   0.76149   0.82121
 Alpha virt. eigenvalues --    0.84081   0.86286   0.87744   0.88338   0.88630
 Alpha virt. eigenvalues --    0.92356   1.09205   1.12095   1.12742   1.18281
 Alpha virt. eigenvalues --    1.23793   1.28547   1.37028   1.42168   1.45211
 Alpha virt. eigenvalues --    1.45373   1.53206   1.55042   1.61315   1.67458
 Alpha virt. eigenvalues --    1.78129   1.84623   1.85660   1.88138   1.90570
 Alpha virt. eigenvalues --    1.91460   1.95347   1.96621   1.98209   2.05726
 Alpha virt. eigenvalues --    2.12177   2.19763   2.23615   2.29897   2.36601
 Alpha virt. eigenvalues --    2.42577   2.49236   2.50577   2.53511   2.62478
 Alpha virt. eigenvalues --    2.71853   2.73466   2.76232   2.82196   2.90614
 Alpha virt. eigenvalues --    2.91015   3.07455   3.26556   3.35937   3.37799
 Alpha virt. eigenvalues --    3.51552   3.58482   3.96020   4.23123
          Condensed to atoms (all electrons):
               1          2          3          4          5          6
     1  C    4.540413   0.426788  -0.037323   0.004243  -0.000583   0.403252
     2  C    0.426788   4.420826   0.262618  -0.053968   0.002612  -0.027921
     3  O   -0.037323   0.262618   8.063562   0.114983  -0.022024   0.002766
     4  O    0.004243  -0.053968   0.114983   7.772861   0.346995  -0.000190
     5  H   -0.000583   0.002612  -0.022024   0.346995   0.476701   0.000027
     6  H    0.403252  -0.027921   0.002766  -0.000190   0.000027   0.622984
     7  H   -0.027252   0.408351  -0.032217   0.003242   0.000295   0.007588
     8  H   -0.027252   0.408351  -0.032216   0.003242   0.000295  -0.008674
     9  H    0.401101  -0.025120   0.002560  -0.000117   0.000015  -0.020858
    10  H    0.403251  -0.027922   0.002766  -0.000190   0.000027  -0.027288
               7          8          9         10
     1  C   -0.027252  -0.027252   0.401101   0.403251
     2  C    0.408351   0.408351  -0.025120  -0.027922
     3  O   -0.032217  -0.032216   0.002560   0.002766
     4  O    0.003242   0.003242  -0.000117  -0.000190
     5  H    0.000295   0.000295   0.000015   0.000027
     6  H    0.007588  -0.008674  -0.020858  -0.027288
     7  H    0.661613  -0.044584  -0.001849  -0.008674
     8  H   -0.044584   0.661613  -0.001848   0.007588
     9  H   -0.001849  -0.001848   0.628393  -0.020858
    10  H   -0.008674   0.007588  -0.020858   0.622984
 Mulliken charges:
               1
     1  C   -0.086638
     2  C    0.205386
     3  O   -0.325474
     4  O   -0.191100
     5  H    0.195643
     6  H    0.048315
     7  H    0.033486
     8  H    0.033486
     9  H    0.038583
    10  H    0.048315
 Sum of Mulliken charges =   0.00000
 Mulliken charges with hydrogens summed into heavy atoms:
               1
     1  C    0.048575
     2  C    0.272357
     3  O   -0.325474
     4  O    0.004542
 Electronic spatial extent (au):  <R**2>=            759.4365
 Charge=              0.0000 electrons
 Dipole moment (field-independent basis, Debye):
    X=             -0.0377    Y=             -0.0468    Z=             -0.3963  Tot=              0.4008
 Quadrupole moment (field-independent basis, Debye-Ang):
   XX=            -21.6537   YY=            -25.1042   ZZ=            -25.4329
   XY=             -0.7598   XZ=              3.2216   YZ=             -1.1624
 Traceless Quadrupole moment (field-independent basis, Debye-Ang):
   XX=              2.4099   YY=             -1.0406   ZZ=             -1.3693
   XY=             -0.7598   XZ=              3.2216   YZ=             -1.1624
 Octapole moment (field-independent basis, Debye-Ang**2):
  XXX=            -31.7173  YYY=             -1.3527  ZZZ=           -116.7872  XYY=            -14.8929
  XXY=             -2.4358  XXZ=            -22.8815  XZZ=              4.9028  YZZ=             -6.2713
  YYZ=            -41.1648  XYZ=             -3.6390
 Hexadecapole moment (field-independent basis, Debye-Ang**3):
 XXXX=           -116.7525 YYYY=            -38.3683 ZZZZ=           -634.8426 XXXY=             -2.1441
 XXXZ=            -65.3537 YYYX=              3.0479 YYYZ=             -2.0385 ZZZX=            -31.3908
 ZZZY=            -27.3488 XXYY=            -32.3906 XXZZ=            -59.7323 YYZZ=           -120.5884
 XXYZ=            -10.9319 YYXZ=            -41.4554 ZZXY=            -13.6275
 N-N= 1.308248655313D+02 E-N=-8.011759440891D+02  KE= 2.285434894132D+02
 Leave Link  601 at Thu Dec 21 03:00:18 2017, MaxMem=  3489660928 cpu:         0.6
 (Enter /home/michal/g09/l9999.exe)
 1\1\GINC-LINUX\SP\RCCSD(T)-FC\CC-pVDZ\C2H6O2\MICHAL\21-Dec-2017\0\\#P 
 CCSD(T)/cc-pVDZ SP Nosymm\\PEscan\\0,1\C,0,0.02562,-0.02668,0.02501\C,
 0,0.03054,0.19919,1.52805\O,0,1.31791,-0.18646,1.97683\O,0,1.26972,0.0
 4989,3.42551\H,0,2.175,-0.23889,3.62499\H,0,0.21476,-1.08635,-0.20747\
 H,0,-0.15143,1.26118,1.77749\H,0,-0.74127,-0.4128,2.03098\H,0,-0.95417
 ,0.2554,-0.39211\H,0,0.80321,0.58366,-0.46035\\Version=EM64L-G09RevD.0
 1\HF=-228.8545184\MP2=-229.5248605\MP3=-229.5550639\MP4D=-229.5720508\
 MP4DQ=-229.5600123\MP4SDQ=-229.565348\CCSD=-229.5657601\CCSD(T)=-229.5
 85339\RMSD=2.997e-09\PG=C01 [X(C2H6O2)]\\@


 ACCORDING TO HEN3RY, LIFE IS MUCH LIKE A SEWER........
 YOU GET OUT OF IT JUST WHAT YOU PUT INTO IT...........
                         TOM LEHRER - (THE 3 IS SILENT)
 Job cpu time:       0 days  0 hours 10 minutes 38.6 seconds.
 File lengths (MBytes):  RWF=    699 Int=      0 D2E=      0 Chk=      1 Scr=      1
 Normal termination of Gaussian 09 at Thu Dec 21 03:00:18 2017.
