 Entering Gaussian System, Link 0=g09
 Input=1HPP_mp2qz_034.com
 Output=1HPP_mp2qz_034.log
 Initial command:
 /home/michal/g09/l1.exe "/home/michal/gauss_scratch/Gau-587.inp" -scrdir="/home/michal/gauss_scratch/"
 Entering Link 1 = /home/michal/g09/l1.exe PID=       588.
  
 Copyright (c) 1988,1990,1992,1993,1995,1998,2003,2009,2013,
            Gaussian, Inc.  All Rights Reserved.
  
 This is part of the Gaussian(R) 09 program.  It is based on
 the Gaussian(R) 03 system (copyright 2003, Gaussian, Inc.),
 the Gaussian(R) 98 system (copyright 1998, Gaussian, Inc.),
 the Gaussian(R) 94 system (copyright 1995, Gaussian, Inc.),
 the Gaussian 92(TM) system (copyright 1992, Gaussian, Inc.),
 the Gaussian 90(TM) system (copyright 1990, Gaussian, Inc.),
 the Gaussian 88(TM) system (copyright 1988, Gaussian, Inc.),
 the Gaussian 86(TM) system (copyright 1986, Carnegie Mellon
 University), and the Gaussian 82(TM) system (copyright 1983,
 Carnegie Mellon University). Gaussian is a federally registered
 trademark of Gaussian, Inc.
  
 This software contains proprietary and confidential information,
 including trade secrets, belonging to Gaussian, Inc.
  
 This software is provided under written license and may be
 used, copied, transmitted, or stored only in accord with that
 written license.
  
 The following legend is applicable only to US Government
 contracts under FAR:
  
                    RESTRICTED RIGHTS LEGEND
  
 Use, reproduction and disclosure by the US Government is
 subject to restrictions as set forth in subparagraphs (a)
 and (c) of the Commercial Computer Software - Restricted
 Rights clause in FAR 52.227-19.
  
 Gaussian, Inc.
 340 Quinnipiac St., Bldg. 40, Wallingford CT 06492
  
  
 ---------------------------------------------------------------
 Warning -- This program may not be used in any manner that
 competes with the business of Gaussian, Inc. or will provide
 assistance to any competitor of Gaussian, Inc.  The licensee
 of this program is prohibited from giving any competitor of
 Gaussian, Inc. access to this program.  By using this program,
 the user acknowledges that Gaussian, Inc. is engaged in the
 business of creating and licensing software in the field of
 computational chemistry and represents and warrants to the
 licensee that it is not a competitor of Gaussian, Inc. and that
 it will not use this program in any manner prohibited above.
 ---------------------------------------------------------------
  

 Cite this work as:
 Gaussian 09, Revision D.01,
 M. J. Frisch, G. W. Trucks, H. B. Schlegel, G. E. Scuseria, 
 M. A. Robb, J. R. Cheeseman, G. Scalmani, V. Barone, B. Mennucci, 
 G. A. Petersson, H. Nakatsuji, M. Caricato, X. Li, H. P. Hratchian, 
 A. F. Izmaylov, J. Bloino, G. Zheng, J. L. Sonnenberg, M. Hada, 
 M. Ehara, K. Toyota, R. Fukuda, J. Hasegawa, M. Ishida, T. Nakajima, 
 Y. Honda, O. Kitao, H. Nakai, T. Vreven, J. A. Montgomery, Jr., 
 J. E. Peralta, F. Ogliaro, M. Bearpark, J. J. Heyd, E. Brothers, 
 K. N. Kudin, V. N. Staroverov, T. Keith, R. Kobayashi, J. Normand, 
 K. Raghavachari, A. Rendell, J. C. Burant, S. S. Iyengar, J. Tomasi, 
 M. Cossi, N. Rega, J. M. Millam, M. Klene, J. E. Knox, J. B. Cross, 
 V. Bakken, C. Adamo, J. Jaramillo, R. Gomperts, R. E. Stratmann, 
 O. Yazyev, A. J. Austin, R. Cammi, C. Pomelli, J. W. Ochterski, 
 R. L. Martin, K. Morokuma, V. G. Zakrzewski, G. A. Voth, 
 P. Salvador, J. J. Dannenberg, S. Dapprich, A. D. Daniels, 
 O. Farkas, J. B. Foresman, J. V. Ortiz, J. Cioslowski, 
 and D. J. Fox, Gaussian, Inc., Wallingford CT, 2013.
 
 ******************************************
 Gaussian 09:  EM64L-G09RevD.01 24-Apr-2013
                21-Dec-2017 
 ******************************************
 %Mem=26GB
 %NProc=12
 Will use up to   12 processors via shared memory.
 %RWF=/home/michal/Cholesterol_grant/peroxy_params,20GB
 ------------------------
 #P MP2/cc-pVQZ SP Nosymm
 ------------------------
 1/38=1/1;
 2/12=2,15=1,17=6,18=5,40=1/2;
 3/5=16,6=2,11=9,16=1,25=1,30=1/1,2,3;
 4//1;
 5/5=2,38=5/2;
 8/10=1/1;
 9/16=-3/6;
 6/7=2,8=2,9=2,10=2/1;
 99/5=1,9=1/99;
 Leave Link    1 at Thu Dec 21 02:00:09 2017, MaxMem=  3489660928 cpu:         0.3
 (Enter /home/michal/g09/l101.exe)
 ------
 PEscan
 ------
 Symbolic Z-matrix:
 Charge =  0 Multiplicity = 1
 C                     0.02285  -0.03189   0.0281 
 C                     0.04648   0.21402   1.52796 
 O                     1.36061  -0.10615   1.95447 
 O                     1.36374   0.20717   3.38694 
 H                     2.01961  -0.45533   3.65916 
 H                     0.2586   -1.08422  -0.19568 
 H                    -0.17625   1.27104   1.76426 
 H                    -0.68882  -0.42149   2.056 
 H                    -0.9776    0.19637  -0.37265 
 H                     0.76068   0.60862  -0.47963 
 
 NAtoms=     10 NQM=       10 NQMF=       0 NMMI=      0 NMMIF=      0
                NMic=       0 NMicF=      0.
                    Isotopes and Nuclear Properties:
 (Nuclear quadrupole moments (NQMom) in fm**2, nuclear magnetic moments (NMagM)
  in nuclear magnetons)

  Atom         1           2           3           4           5           6           7           8           9          10
 IAtWgt=          12          12          16          16           1           1           1           1           1           1
 AtmWgt=  12.0000000  12.0000000  15.9949146  15.9949146   1.0078250   1.0078250   1.0078250   1.0078250   1.0078250   1.0078250
 NucSpn=           0           0           0           0           1           1           1           1           1           1
 AtZEff=   0.0000000   0.0000000   0.0000000   0.0000000   0.0000000   0.0000000   0.0000000   0.0000000   0.0000000   0.0000000
 NQMom=    0.0000000   0.0000000   0.0000000   0.0000000   0.0000000   0.0000000   0.0000000   0.0000000   0.0000000   0.0000000
 NMagM=    0.0000000   0.0000000   0.0000000   0.0000000   2.7928460   2.7928460   2.7928460   2.7928460   2.7928460   2.7928460
 AtZNuc=   6.0000000   6.0000000   8.0000000   8.0000000   1.0000000   1.0000000   1.0000000   1.0000000   1.0000000   1.0000000
 Leave Link  101 at Thu Dec 21 02:00:09 2017, MaxMem=  3489660928 cpu:         0.5
 (Enter /home/michal/g09/l202.exe)
                          Input orientation:                          
 ---------------------------------------------------------------------
 Center     Atomic      Atomic             Coordinates (Angstroms)
 Number     Number       Type             X           Y           Z
 ---------------------------------------------------------------------
      1          6           0        0.022850   -0.031890    0.028100
      2          6           0        0.046480    0.214020    1.527960
      3          8           0        1.360610   -0.106150    1.954470
      4          8           0        1.363740    0.207170    3.386940
      5          1           0        2.019610   -0.455330    3.659160
      6          1           0        0.258600   -1.084220   -0.195680
      7          1           0       -0.176250    1.271040    1.764260
      8          1           0       -0.688820   -0.421490    2.056000
      9          1           0       -0.977600    0.196370   -0.372650
     10          1           0        0.760680    0.608620   -0.479630
 ---------------------------------------------------------------------
                    Distance matrix (angstroms):
                    1          2          3          4          5
     1  C    0.000000
     2  C    1.520069   0.000000
     3  O    2.346491   1.418223   0.000000
     4  O    3.624492   2.278383   1.466339   0.000000
     5  H    4.165447   2.980484   1.860692   0.971172   0.000000
     6  H    1.101387   2.168261   2.606567   3.965374   4.284443
     7  H    2.179798   1.105775   2.072383   2.477192   3.375322
     8  H    2.184180   1.106058   2.076033   2.525790   3.147517
     9  H    1.101637   2.159021   3.312738   4.429053   5.065913
    10  H    1.101107   2.167074   2.606848   3.933854   4.454938
                    6          7          8          9         10
     6  H    0.000000
     7  H    3.094787   0.000000
     8  H    2.531181   1.792344   0.000000
     9  H    1.788692   2.522590   2.522595   0.000000
    10  H    1.788412   2.520254   3.097030   1.789696   0.000000
 Symmetry turned off by external request.
 Stoichiometry    C2H6O2
 Framework group  C1[X(C2H6O2)]
 Deg. of freedom    24
 Full point group                 C1      NOp   1
 Rotational constants (GHZ):     30.7822147      4.1877797      3.8816011
 Leave Link  202 at Thu Dec 21 02:00:09 2017, MaxMem=  3489660928 cpu:         0.0
 (Enter /home/michal/g09/l301.exe)
 Standard basis: CC-pVQZ (5D, 7F)
 Ernie: Thresh=  0.10000D-02 Tol=  0.10000D-05 Strict=F.
 Ernie:  12 primitive shells out of 204 were deleted.
   400 basis functions,   578 primitive gaussians,   490 cartesian basis functions
    17 alpha electrons       17 beta electrons
       nuclear repulsion energy       130.8104491832 Hartrees.
 IExCor=    0 DFT=F Ex=HF Corr=None ExCW=0 ScaHFX=  1.000000
 ScaDFX=  1.000000  1.000000  1.000000  1.000000 ScalE2=  1.000000  1.000000
 IRadAn=      0 IRanWt=     -1 IRanGd=            0 ICorTp=0 IEmpDi=  4
 NAtoms=   10 NActive=   10 NUniq=   10 SFac= 1.00D+00 NAtFMM=   60 NAOKFM=F Big=F
 Integral buffers will be    131072 words long.
 Raffenetti 1 integral format.
 Two-electron integral symmetry is turned off.
 Leave Link  301 at Thu Dec 21 02:00:09 2017, MaxMem=  3489660928 cpu:         0.3
 (Enter /home/michal/g09/l302.exe)
 NPDir=0 NMtPBC=     1 NCelOv=     1 NCel=       1 NClECP=     1 NCelD=      1
         NCelK=      1 NCelE2=     1 NClLst=     1 CellRange=     0.0.
 One-electron integrals computed using PRISM.
 NBasis=   400 RedAO= T EigKep=  1.37D-04  NBF=   400
 NBsUse=   400 1.00D-06 EigRej= -1.00D+00 NBFU=   400
 Leave Link  302 at Thu Dec 21 02:00:10 2017, MaxMem=  3489660928 cpu:         6.1
 (Enter /home/michal/g09/l303.exe)
 DipDrv:  MaxL=1.
 Leave Link  303 at Thu Dec 21 02:00:10 2017, MaxMem=  3489660928 cpu:         0.5
 (Enter /home/michal/g09/l401.exe)
 ExpMin= 8.99D-02 ExpMax= 6.14D+04 ExpMxC= 5.91D+02 IAcc=2 IRadAn=         4 AccDes= 0.00D+00
 Harris functional with IExCor=  205 and IRadAn=       4 diagonalized for initial guess.
 HarFok:  IExCor=  205 AccDes= 0.00D+00 IRadAn=         4 IDoV= 1 UseB2=F ITyADJ=14
 ICtDFT=  3500011 ScaDFX=  1.000000  1.000000  1.000000  1.000000
 FoFCou: FMM=F IPFlag=           0 FMFlag=      100000 FMFlg1=           0
         NFxFlg=           0 DoJE=T BraDBF=F KetDBF=T FulRan=T
         wScrn=  0.000000 ICntrl=     500 IOpCl=  0 I1Cent=   200000004 NGrid=           0
         NMat0=    1 NMatS0=      1 NMatT0=    0 NMatD0=    1 NMtDS0=    0 NMtDT0=    0
 Symmetry not used in FoFCou.
 Harris En= -229.244857732533    
 JPrj=0 DoOrth=F DoCkMO=F.
 Leave Link  401 at Thu Dec 21 02:00:11 2017, MaxMem=  3489660928 cpu:        10.5
 (Enter /home/michal/g09/l502.exe)
 Closed shell SCF:
 Using DIIS extrapolation, IDIIS=  1040.
 Two-electron integral symmetry not used.
 Keep R1 ints in memory in canonical form, NReq=3275992930.
 IVT=      747690 IEndB=      747690 NGot=  3489660928 MDV=   272853139
 LenX=   272853139 LenY=   272612549
 Requested convergence on RMS density matrix=1.00D-08 within 128 cycles.
 Requested convergence on MAX density matrix=1.00D-06.
 Requested convergence on             energy=1.00D-06.
 No special actions if energy rises.
 FoFCou: FMM=F IPFlag=           0 FMFlag=           0 FMFlg1=           0
         NFxFlg=           0 DoJE=F BraDBF=F KetDBF=F FulRan=T
         wScrn=  0.000000 ICntrl=     600 IOpCl=  0 I1Cent=           0 NGrid=           0
         NMat0=    1 NMatS0=  80200 NMatT0=    0 NMatD0=    1 NMtDS0=    0 NMtDT0=    0
 Symmetry not used in FoFCou.

 Cycle   1  Pass 1  IDiag  1:
 E= -228.744998096347    
 DIIS: error= 3.78D-02 at cycle   1 NSaved=   1.
 NSaved= 1 IEnMin= 1 EnMin= -228.744998096347     IErMin= 1 ErrMin= 3.78D-02
 ErrMax= 3.78D-02  0.00D+00 EMaxC= 1.00D-01 BMatC= 4.76D-01 BMatP= 4.76D-01
 IDIUse=3 WtCom= 6.22D-01 WtEn= 3.78D-01
 Coeff-Com:  0.100D+01
 Coeff-En:   0.100D+01
 Coeff:      0.100D+01
 Gap=     0.690 Goal=   None    Shift=    0.000
 GapD=    0.690 DampG=2.000 DampE=0.500 DampFc=1.0000 IDamp=-1.
 RMSDP=7.63D-04 MaxDP=3.71D-02              OVMax= 1.28D-01

 Cycle   2  Pass 1  IDiag  1:
 E= -228.913767890365     Delta-E=       -0.168769794018 Rises=F Damp=F
 DIIS: error= 1.19D-02 at cycle   2 NSaved=   2.
 NSaved= 2 IEnMin= 2 EnMin= -228.913767890365     IErMin= 2 ErrMin= 1.19D-02
 ErrMax= 1.19D-02  0.00D+00 EMaxC= 1.00D-01 BMatC= 3.57D-02 BMatP= 4.76D-01
 IDIUse=3 WtCom= 8.81D-01 WtEn= 1.19D-01
 Coeff-Com:  0.123D+00 0.877D+00
 Coeff-En:   0.000D+00 0.100D+01
 Coeff:      0.108D+00 0.892D+00
 Gap=     0.662 Goal=   None    Shift=    0.000
 RMSDP=3.34D-04 MaxDP=1.81D-02 DE=-1.69D-01 OVMax= 4.37D-02

 Cycle   3  Pass 1  IDiag  1:
 E= -228.939711002637     Delta-E=       -0.025943112272 Rises=F Damp=F
 DIIS: error= 4.24D-03 at cycle   3 NSaved=   3.
 NSaved= 3 IEnMin= 3 EnMin= -228.939711002637     IErMin= 3 ErrMin= 4.24D-03
 ErrMax= 4.24D-03  0.00D+00 EMaxC= 1.00D-01 BMatC= 3.90D-03 BMatP= 3.57D-02
 IDIUse=3 WtCom= 9.58D-01 WtEn= 4.24D-02
 Coeff-Com: -0.207D-01 0.215D+00 0.806D+00
 Coeff-En:   0.000D+00 0.000D+00 0.100D+01
 Coeff:     -0.198D-01 0.206D+00 0.814D+00
 Gap=     0.554 Goal=   None    Shift=    0.000
 RMSDP=7.45D-05 MaxDP=4.36D-03 DE=-2.59D-02 OVMax= 1.15D-02

 Cycle   4  Pass 1  IDiag  1:
 E= -228.942787431071     Delta-E=       -0.003076428435 Rises=F Damp=F
 DIIS: error= 7.07D-04 at cycle   4 NSaved=   4.
 NSaved= 4 IEnMin= 4 EnMin= -228.942787431071     IErMin= 4 ErrMin= 7.07D-04
 ErrMax= 7.07D-04  0.00D+00 EMaxC= 1.00D-01 BMatC= 2.01D-04 BMatP= 3.90D-03
 IDIUse=3 WtCom= 9.93D-01 WtEn= 7.07D-03
 Coeff-Com: -0.854D-02 0.462D-01 0.253D+00 0.709D+00
 Coeff-En:   0.000D+00 0.000D+00 0.000D+00 0.100D+01
 Coeff:     -0.848D-02 0.458D-01 0.251D+00 0.711D+00
 Gap=     0.551 Goal=   None    Shift=    0.000
 RMSDP=1.97D-05 MaxDP=8.83D-04 DE=-3.08D-03 OVMax= 3.05D-03

 Cycle   5  Pass 1  IDiag  1:
 E= -228.942928774373     Delta-E=       -0.000141343301 Rises=F Damp=F
 DIIS: error= 3.13D-04 at cycle   5 NSaved=   5.
 NSaved= 5 IEnMin= 5 EnMin= -228.942928774373     IErMin= 5 ErrMin= 3.13D-04
 ErrMax= 3.13D-04  0.00D+00 EMaxC= 1.00D-01 BMatC= 1.73D-05 BMatP= 2.01D-04
 IDIUse=3 WtCom= 9.97D-01 WtEn= 3.13D-03
 Coeff-Com:  0.186D-02-0.266D-01-0.872D-01 0.111D+00 0.100D+01
 Coeff-En:   0.000D+00 0.000D+00 0.000D+00 0.000D+00 0.100D+01
 Coeff:      0.185D-02-0.265D-01-0.870D-01 0.111D+00 0.100D+01
 Gap=     0.552 Goal=   None    Shift=    0.000
 RMSDP=1.15D-05 MaxDP=5.38D-04 DE=-1.41D-04 OVMax= 1.47D-03

 Cycle   6  Pass 1  IDiag  1:
 E= -228.942952326550     Delta-E=       -0.000023552177 Rises=F Damp=F
 DIIS: error= 7.20D-05 at cycle   6 NSaved=   6.
 NSaved= 6 IEnMin= 6 EnMin= -228.942952326550     IErMin= 6 ErrMin= 7.20D-05
 ErrMax= 7.20D-05  0.00D+00 EMaxC= 1.00D-01 BMatC= 7.23D-07 BMatP= 1.73D-05
 IDIUse=1 WtCom= 1.00D+00 WtEn= 0.00D+00
 Coeff-Com:  0.629D-03-0.499D-02-0.195D-01-0.402D-01 0.638D-01 0.100D+01
 Coeff:      0.629D-03-0.499D-02-0.195D-01-0.402D-01 0.638D-01 0.100D+01
 Gap=     0.552 Goal=   None    Shift=    0.000
 RMSDP=2.76D-06 MaxDP=1.25D-04 DE=-2.36D-05 OVMax= 3.61D-04

 Cycle   7  Pass 1  IDiag  1:
 E= -228.942953594851     Delta-E=       -0.000001268301 Rises=F Damp=F
 DIIS: error= 1.30D-05 at cycle   7 NSaved=   7.
 NSaved= 7 IEnMin= 7 EnMin= -228.942953594851     IErMin= 7 ErrMin= 1.30D-05
 ErrMax= 1.30D-05  0.00D+00 EMaxC= 1.00D-01 BMatC= 6.63D-08 BMatP= 7.23D-07
 IDIUse=1 WtCom= 1.00D+00 WtEn= 0.00D+00
 Coeff-Com: -0.847D-05 0.854D-03 0.251D-02-0.129D-01-0.568D-01 0.126D+00
 Coeff-Com:  0.941D+00
 Coeff:     -0.847D-05 0.854D-03 0.251D-02-0.129D-01-0.568D-01 0.126D+00
 Coeff:      0.941D+00
 Gap=     0.552 Goal=   None    Shift=    0.000
 RMSDP=7.21D-07 MaxDP=3.87D-05 DE=-1.27D-06 OVMax= 9.87D-05

 Cycle   8  Pass 1  IDiag  1:
 E= -228.942953709393     Delta-E=       -0.000000114542 Rises=F Damp=F
 DIIS: error= 3.58D-06 at cycle   8 NSaved=   8.
 NSaved= 8 IEnMin= 8 EnMin= -228.942953709393     IErMin= 8 ErrMin= 3.58D-06
 ErrMax= 3.58D-06  0.00D+00 EMaxC= 1.00D-01 BMatC= 8.57D-09 BMatP= 6.63D-08
 IDIUse=1 WtCom= 1.00D+00 WtEn= 0.00D+00
 Coeff-Com: -0.699D-04 0.577D-03 0.228D-02 0.593D-02-0.674D-02-0.129D+00
 Coeff-Com:  0.249D-01 0.110D+01
 Coeff:     -0.699D-04 0.577D-03 0.228D-02 0.593D-02-0.674D-02-0.129D+00
 Coeff:      0.249D-01 0.110D+01
 Gap=     0.552 Goal=   None    Shift=    0.000
 RMSDP=3.18D-07 MaxDP=9.75D-06 DE=-1.15D-07 OVMax= 4.66D-05

 Cycle   9  Pass 1  IDiag  1:
 E= -228.942953729386     Delta-E=       -0.000000019993 Rises=F Damp=F
 DIIS: error= 1.23D-06 at cycle   9 NSaved=   9.
 NSaved= 9 IEnMin= 9 EnMin= -228.942953729386     IErMin= 9 ErrMin= 1.23D-06
 ErrMax= 1.23D-06  0.00D+00 EMaxC= 1.00D-01 BMatC= 9.11D-10 BMatP= 8.57D-09
 IDIUse=1 WtCom= 1.00D+00 WtEn= 0.00D+00
 Coeff-Com:  0.114D-04-0.149D-03-0.602D-03-0.898D-04 0.585D-02 0.147D-01
 Coeff-Com: -0.851D-01-0.228D+00 0.129D+01
 Coeff:      0.114D-04-0.149D-03-0.602D-03-0.898D-04 0.585D-02 0.147D-01
 Coeff:     -0.851D-01-0.228D+00 0.129D+01
 Gap=     0.552 Goal=   None    Shift=    0.000
 RMSDP=1.32D-07 MaxDP=4.50D-06 DE=-2.00D-08 OVMax= 2.78D-05

 Cycle  10  Pass 1  IDiag  1:
 E= -228.942953732702     Delta-E=       -0.000000003316 Rises=F Damp=F
 DIIS: error= 6.13D-07 at cycle  10 NSaved=  10.
 NSaved=10 IEnMin=10 EnMin= -228.942953732702     IErMin=10 ErrMin= 6.13D-07
 ErrMax= 6.13D-07  0.00D+00 EMaxC= 1.00D-01 BMatC= 1.63D-10 BMatP= 9.11D-10
 IDIUse=1 WtCom= 1.00D+00 WtEn= 0.00D+00
 Coeff-Com:  0.802D-05-0.687D-04-0.274D-03-0.780D-03 0.655D-03 0.169D-01
 Coeff-Com: -0.149D-02-0.148D+00 0.139D-01 0.112D+01
 Coeff:      0.802D-05-0.687D-04-0.274D-03-0.780D-03 0.655D-03 0.169D-01
 Coeff:     -0.149D-02-0.148D+00 0.139D-01 0.112D+01
 Gap=     0.552 Goal=   None    Shift=    0.000
 RMSDP=5.31D-08 MaxDP=1.88D-06 DE=-3.32D-09 OVMax= 1.42D-05

 Cycle  11  Pass 1  IDiag  1:
 E= -228.942953733315     Delta-E=       -0.000000000613 Rises=F Damp=F
 DIIS: error= 3.23D-07 at cycle  11 NSaved=  11.
 NSaved=11 IEnMin=11 EnMin= -228.942953733315     IErMin=11 ErrMin= 3.23D-07
 ErrMax= 3.23D-07  0.00D+00 EMaxC= 1.00D-01 BMatC= 3.72D-11 BMatP= 1.63D-10
 IDIUse=1 WtCom= 1.00D+00 WtEn= 0.00D+00
 Coeff-Com: -0.330D-05 0.401D-04 0.164D-03 0.175D-03-0.124D-02-0.661D-02
 Coeff-Com:  0.180D-01 0.745D-01-0.279D+00-0.172D+00 0.137D+01
 Coeff:     -0.330D-05 0.401D-04 0.164D-03 0.175D-03-0.124D-02-0.661D-02
 Coeff:      0.180D-01 0.745D-01-0.279D+00-0.172D+00 0.137D+01
 Gap=     0.552 Goal=   None    Shift=    0.000
 RMSDP=3.41D-08 MaxDP=1.32D-06 DE=-6.13D-10 OVMax= 1.02D-05

 Cycle  12  Pass 1  IDiag  1:
 E= -228.942953733496     Delta-E=       -0.000000000181 Rises=F Damp=F
 DIIS: error= 9.31D-08 at cycle  12 NSaved=  12.
 NSaved=12 IEnMin=12 EnMin= -228.942953733496     IErMin=12 ErrMin= 9.31D-08
 ErrMax= 9.31D-08  0.00D+00 EMaxC= 1.00D-01 BMatC= 5.70D-12 BMatP= 3.72D-11
 IDIUse=1 WtCom= 1.00D+00 WtEn= 0.00D+00
 Coeff-Com: -0.222D-06-0.322D-05-0.129D-04 0.106D-03 0.456D-03-0.127D-02
 Coeff-Com: -0.655D-02 0.529D-02 0.922D-01-0.140D+00-0.525D+00 0.158D+01
 Coeff:     -0.222D-06-0.322D-05-0.129D-04 0.106D-03 0.456D-03-0.127D-02
 Coeff:     -0.655D-02 0.529D-02 0.922D-01-0.140D+00-0.525D+00 0.158D+01
 Gap=     0.552 Goal=   None    Shift=    0.000
 RMSDP=1.67D-08 MaxDP=6.48D-07 DE=-1.81D-10 OVMax= 5.34D-06

 Cycle  13  Pass 1  IDiag  1:
 E= -228.942953733530     Delta-E=       -0.000000000034 Rises=F Damp=F
 DIIS: error= 2.37D-08 at cycle  13 NSaved=  13.
 NSaved=13 IEnMin=13 EnMin= -228.942953733530     IErMin=13 ErrMin= 2.37D-08
 ErrMax= 2.37D-08  0.00D+00 EMaxC= 1.00D-01 BMatC= 4.11D-13 BMatP= 5.70D-12
 IDIUse=1 WtCom= 1.00D+00 WtEn= 0.00D+00
 Coeff-Com:  0.438D-06-0.402D-05-0.155D-04-0.498D-04 0.159D-04 0.113D-02
 Coeff-Com: -0.467D-03-0.106D-01 0.112D-01 0.507D-01-0.299D-01-0.342D+00
 Coeff-Com:  0.132D+01
 Coeff:      0.438D-06-0.402D-05-0.155D-04-0.498D-04 0.159D-04 0.113D-02
 Coeff:     -0.467D-03-0.106D-01 0.112D-01 0.507D-01-0.299D-01-0.342D+00
 Coeff:      0.132D+01
 Gap=     0.552 Goal=   None    Shift=    0.000
 RMSDP=3.89D-09 MaxDP=1.78D-07 DE=-3.37D-11 OVMax= 1.19D-06

 SCF Done:  E(RHF) =  -228.942953734     A.U. after   13 cycles
            NFock= 13  Conv=0.39D-08     -V/T= 2.0017
 KE= 2.285656202145D+02 PE=-8.012656733665D+02 EE= 2.129466502353D+02
 Leave Link  502 at Thu Dec 21 02:01:58 2017, MaxMem=  3489660928 cpu:       692.3
 (Enter /home/michal/g09/l801.exe)
 ExpMin= 8.99D-02 ExpMax= 6.14D+04 ExpMxC= 5.91D+02 IAcc=3 IRadAn=         5 AccDes= 0.00D+00
 HarFok:  IExCor=  205 AccDes= 0.00D+00 IRadAn=         5 IDoV=-2 UseB2=F ITyADJ=14
 ICtDFT= 12500011 ScaDFX=  1.000000  1.000000  1.000000  1.000000
 Largest valence mixing into a core orbital is  1.81D-04
 Largest core mixing into a valence orbital is  3.05D-05
 Range of M.O.s used for correlation:     5   400
 NBasis=   400 NAE=    17 NBE=    17 NFC=     4 NFV=     0
 NROrb=    396 NOA=    13 NOB=    13 NVA=   383 NVB=   383

 **** Warning!!: The largest alpha MO coefficient is  0.19812610D+02

 Leave Link  801 at Thu Dec 21 02:01:59 2017, MaxMem=  3489660928 cpu:         1.3
 (Enter /home/michal/g09/l906.exe)
 FulOut=F Deriv=F AODrv=F NAtomX=    10
   MMem=        1311  MDisk=          13 MDiskD=          13
  W3Min=     2439710 MinDsk=     3998052 NBas6D=         490
 NBas2D=      121807    NTT=      120295    LW2=     4508827
    MDV=  3488923584 MDiskM=       15813 NBas2p=      114450
 Fully direct method using O(OVN) memory.
 IMap=   1   2   3   4   5   6   7   8   9  10  11  12  13
 JobTyp=1 Pass  1:  I=   1 to  13 NPSUse= 12 ParTrn=T ParDer=T DoDerP=F.
 Spin components of T(2) and E(2):
     alpha-alpha T2 =       0.2894678689D-01 E2=     -0.1039731330D+00
     alpha-beta  T2 =       0.1790467760D+00 E2=     -0.6945974722D+00
     beta-beta   T2 =       0.2894678689D-01 E2=     -0.1039731330D+00
 The integrals were generated   1 times.
 ANorm=    0.1112178201D+01
 E2 =    -0.9025437382D+00 EUMP2 =    -0.22984549747176D+03
 Leave Link  906 at Thu Dec 21 02:06:14 2017, MaxMem=  3489660928 cpu:      3042.9
 (Enter /home/michal/g09/l601.exe)
 Copying SCF densities to generalized density rwf, IOpCl= 0 IROHF=0.

 **********************************************************************

            Population analysis using the SCF density.

 **********************************************************************

 Alpha  occ. eigenvalues --  -20.61832 -20.61774 -11.28185 -11.22526  -1.46407
 Alpha  occ. eigenvalues --   -1.22789  -1.00168  -0.83897  -0.70641  -0.66674
 Alpha  occ. eigenvalues --   -0.65453  -0.58741  -0.54204  -0.53248  -0.50288
 Alpha  occ. eigenvalues --   -0.49902  -0.43608
 Alpha virt. eigenvalues --    0.11568   0.13140   0.15904   0.17229   0.18705
 Alpha virt. eigenvalues --    0.21084   0.22734   0.27031   0.27047   0.30787
 Alpha virt. eigenvalues --    0.31039   0.35907   0.37207   0.45869   0.46571
 Alpha virt. eigenvalues --    0.47001   0.47652   0.49834   0.52021   0.52720
 Alpha virt. eigenvalues --    0.53598   0.54428   0.55049   0.60156   0.61380
 Alpha virt. eigenvalues --    0.62711   0.62989   0.67321   0.70924   0.72687
 Alpha virt. eigenvalues --    0.74019   0.77490   0.78826   0.84144   0.84957
 Alpha virt. eigenvalues --    0.86551   0.89283   0.92005   0.93333   0.94410
 Alpha virt. eigenvalues --    0.97068   0.98015   1.00647   1.02343   1.04950
 Alpha virt. eigenvalues --    1.09022   1.09613   1.11187   1.12764   1.13159
 Alpha virt. eigenvalues --    1.13966   1.15660   1.16683   1.19276   1.19524
 Alpha virt. eigenvalues --    1.21668   1.24155   1.29953   1.35090   1.37553
 Alpha virt. eigenvalues --    1.43550   1.51848   1.53325   1.55692   1.59295
 Alpha virt. eigenvalues --    1.61185   1.65561   1.67796   1.73300   1.74144
 Alpha virt. eigenvalues --    1.77242   1.78937   1.79339   1.85717   1.91083
 Alpha virt. eigenvalues --    1.94219   1.95445   1.99446   2.01517   2.03248
 Alpha virt. eigenvalues --    2.05291   2.06369   2.08136   2.10513   2.11765
 Alpha virt. eigenvalues --    2.14947   2.17951   2.21348   2.23600   2.23714
 Alpha virt. eigenvalues --    2.24526   2.27495   2.30970   2.32120   2.34080
 Alpha virt. eigenvalues --    2.35114   2.37877   2.38251   2.40282   2.43399
 Alpha virt. eigenvalues --    2.46932   2.49090   2.51308   2.54478   2.59421
 Alpha virt. eigenvalues --    2.61080   2.64490   2.65294   2.67016   2.67584
 Alpha virt. eigenvalues --    2.68165   2.69664   2.74712   2.76265   2.77092
 Alpha virt. eigenvalues --    2.80794   2.81462   2.82274   2.87688   2.88405
 Alpha virt. eigenvalues --    2.93018   2.94164   2.99707   3.01657   3.04777
 Alpha virt. eigenvalues --    3.09174   3.09603   3.13212   3.17039   3.18078
 Alpha virt. eigenvalues --    3.22197   3.23642   3.25766   3.27157   3.30338
 Alpha virt. eigenvalues --    3.34571   3.35033   3.38485   3.40734   3.44239
 Alpha virt. eigenvalues --    3.44391   3.47440   3.52693   3.56301   3.58452
 Alpha virt. eigenvalues --    3.62936   3.64483   3.65599   3.68285   3.70723
 Alpha virt. eigenvalues --    3.73685   3.79620   3.81918   3.84512   3.86020
 Alpha virt. eigenvalues --    3.93035   3.98693   4.00569   4.04940   4.08302
 Alpha virt. eigenvalues --    4.08530   4.11370   4.15966   4.16957   4.17952
 Alpha virt. eigenvalues --    4.20976   4.26338   4.34021   4.34798   4.38456
 Alpha virt. eigenvalues --    4.40558   4.46487   4.50179   4.52787   4.53638
 Alpha virt. eigenvalues --    4.57913   4.68214   4.75655   4.76962   4.85164
 Alpha virt. eigenvalues --    4.96799   5.02053   5.03193   5.11968   5.35370
 Alpha virt. eigenvalues --    5.39713   5.51831   5.57211   5.60718   5.69810
 Alpha virt. eigenvalues --    5.70187   5.72826   5.74391   5.76761   5.85608
 Alpha virt. eigenvalues --    5.91512   5.99989   6.03924   6.08694   6.11673
 Alpha virt. eigenvalues --    6.12724   6.14351   6.20166   6.20942   6.22754
 Alpha virt. eigenvalues --    6.22997   6.23256   6.30068   6.32201   6.34655
 Alpha virt. eigenvalues --    6.37392   6.40248   6.43268   6.44468   6.45359
 Alpha virt. eigenvalues --    6.47917   6.50584   6.52034   6.53167   6.53620
 Alpha virt. eigenvalues --    6.54852   6.57787   6.60805   6.61483   6.69234
 Alpha virt. eigenvalues --    6.71710   6.75422   6.76469   6.83556   6.84565
 Alpha virt. eigenvalues --    6.85129   6.92524   6.99414   7.04311   7.05314
 Alpha virt. eigenvalues --    7.07656   7.11718   7.13476   7.19530   7.21978
 Alpha virt. eigenvalues --    7.26946   7.29556   7.34268   7.35435   7.38714
 Alpha virt. eigenvalues --    7.41125   7.50513   7.56136   7.56987   7.59997
 Alpha virt. eigenvalues --    7.61742   7.67352   7.78633   7.80152   7.81163
 Alpha virt. eigenvalues --    7.85485   7.85970   7.87984   7.91169   7.95175
 Alpha virt. eigenvalues --    7.98026   8.02670   8.05173   8.06536   8.09948
 Alpha virt. eigenvalues --    8.12201   8.13704   8.16990   8.17559   8.19147
 Alpha virt. eigenvalues --    8.22955   8.24699   8.28424   8.31773   8.32425
 Alpha virt. eigenvalues --    8.35263   8.38071   8.43265   8.46540   8.49092
 Alpha virt. eigenvalues --    8.53200   8.64158   8.65243   8.70336   8.74838
 Alpha virt. eigenvalues --    8.75297   8.76252   8.79628   8.81861   8.82949
 Alpha virt. eigenvalues --    8.86516   8.88657   8.88795   8.91888   8.93423
 Alpha virt. eigenvalues --    8.97120   8.99395   9.00938   9.04022   9.05884
 Alpha virt. eigenvalues --    9.09369   9.14398   9.18759   9.24332   9.24558
 Alpha virt. eigenvalues --    9.29215   9.32748   9.36517   9.37432   9.39077
 Alpha virt. eigenvalues --    9.43531   9.45688   9.50332   9.53855   9.63062
 Alpha virt. eigenvalues --    9.74902   9.91648   9.98343  10.00740  10.11221
 Alpha virt. eigenvalues --   10.12818  10.13393  10.19353  10.25957  10.27221
 Alpha virt. eigenvalues --   10.30539  10.34975  10.40805  10.42132  10.42779
 Alpha virt. eigenvalues --   10.47163  10.50423  10.57647  10.60137  10.61741
 Alpha virt. eigenvalues --   10.68789  10.71050  10.72829  10.76893  10.81581
 Alpha virt. eigenvalues --   10.92525  10.94893  11.01563  11.10121  11.33596
 Alpha virt. eigenvalues --   11.38102  11.47774  11.59077  11.66011  11.68577
 Alpha virt. eigenvalues --   11.72128  11.82896  11.84845  11.91978  12.01713
 Alpha virt. eigenvalues --   12.06522  12.09454  12.20944  12.33223  12.46317
 Alpha virt. eigenvalues --   12.53259  12.54503  12.63887  12.71810  12.76230
 Alpha virt. eigenvalues --   12.79094  12.82137  12.85987  13.07184  13.17366
 Alpha virt. eigenvalues --   13.21623  13.25048  13.58667  13.73999  14.06386
 Alpha virt. eigenvalues --   14.35177  14.41042  15.04655  16.58449  26.24542
 Alpha virt. eigenvalues --   27.00348  42.54373  44.22814
          Condensed to atoms (all electrons):
               1          2          3          4          5          6
     1  C    4.709184   0.373245  -0.039319   0.007899  -0.001354   0.408746
     2  C    0.373245   4.454425   0.306782  -0.042005  -0.000248  -0.032105
     3  O   -0.039319   0.306782   8.032575   0.082707  -0.028410   0.000239
     4  O    0.007899  -0.042005   0.082707   7.920917   0.330179  -0.000155
     5  H   -0.001354  -0.000248  -0.028410   0.330179   0.423479   0.000045
     6  H    0.408746  -0.032105   0.000239  -0.000155   0.000045   0.595253
     7  H   -0.037782   0.425945  -0.054063  -0.000640   0.000223   0.008952
     8  H   -0.028972   0.406788  -0.058639   0.004652   0.000531  -0.009449
     9  H    0.412866  -0.037373   0.003289  -0.000353   0.000031  -0.023931
    10  H    0.410154  -0.032287   0.000388  -0.000117   0.000028  -0.025624
               7          8          9         10
     1  C   -0.037782  -0.028972   0.412866   0.410154
     2  C    0.425945   0.406788  -0.037373  -0.032287
     3  O   -0.054063  -0.058639   0.003289   0.000388
     4  O   -0.000640   0.004652  -0.000353  -0.000117
     5  H    0.000223   0.000531   0.000031   0.000028
     6  H    0.008952  -0.009449  -0.023931  -0.025624
     7  H    0.698155  -0.075972  -0.000973  -0.008770
     8  H   -0.075972   0.714020  -0.000554   0.008797
     9  H   -0.000973  -0.000554   0.603819  -0.023373
    10  H   -0.008770   0.008797  -0.023373   0.588141
 Mulliken charges:
               1
     1  C   -0.214668
     2  C    0.176834
     3  O   -0.245549
     4  O   -0.303084
     5  H    0.275496
     6  H    0.078029
     7  H    0.044927
     8  H    0.038799
     9  H    0.066553
    10  H    0.082663
 Sum of Mulliken charges =   0.00000
 Mulliken charges with hydrogens summed into heavy atoms:
               1
     1  C    0.012577
     2  C    0.260559
     3  O   -0.245549
     4  O   -0.027588
 Electronic spatial extent (au):  <R**2>=            760.6178
 Charge=              0.0000 electrons
 Dipole moment (field-independent basis, Debye):
    X=             -0.5262    Y=             -0.7733    Z=             -0.3111  Tot=              0.9857
 Quadrupole moment (field-independent basis, Debye-Ang):
   XX=            -24.0106   YY=            -24.7291   ZZ=            -24.8719
   XY=             -2.1553   XZ=              1.6133   YZ=             -3.8624
 Traceless Quadrupole moment (field-independent basis, Debye-Ang):
   XX=              0.5267   YY=             -0.1919   ZZ=             -0.3347
   XY=             -2.1553   XZ=              1.6133   YZ=             -3.8624
 Octapole moment (field-independent basis, Debye-Ang**2):
  XXX=            -41.0544  YYY=             -5.1395  ZZZ=           -113.5844  XYY=            -15.0625
  XXY=             -6.2634  XXZ=            -30.2376  XZZ=             -1.1296  YZZ=            -17.3784
  YYZ=            -39.6505  XYZ=             -8.6670
 Hexadecapole moment (field-independent basis, Debye-Ang**3):
 XXXX=           -147.5594 YYYY=            -40.3882 ZZZZ=           -616.8959 XXXY=            -11.5784
 XXXZ=            -93.9207 YYYX=             -2.3004 YYYZ=            -13.5688 ZZZX=            -54.1249
 ZZZY=            -74.3474 XXYY=            -33.8875 XXZZ=            -85.7518 YYZZ=           -115.3028
 XXYZ=            -23.7461 YYXZ=            -41.4358 ZZXY=            -33.2877
 N-N= 1.308104491832D+02 E-N=-8.012656731975D+02  KE= 2.285656202145D+02
 Leave Link  601 at Thu Dec 21 02:06:14 2017, MaxMem=  3489660928 cpu:         0.5
 (Enter /home/michal/g09/l9999.exe)
 1\1\GINC-LINUX\SP\RMP2-FC\CC-pVQZ\C2H6O2\MICHAL\21-Dec-2017\0\\#P MP2/
 cc-pVQZ SP Nosymm\\PEscan\\0,1\C,0,0.02285,-0.03189,0.0281\C,0,0.04648
 ,0.21402,1.52796\O,0,1.36061,-0.10615,1.95447\O,0,1.36374,0.20717,3.38
 694\H,0,2.01961,-0.45533,3.65916\H,0,0.2586,-1.08422,-0.19568\H,0,-0.1
 7625,1.27104,1.76426\H,0,-0.68882,-0.42149,2.056\H,0,-0.9776,0.19637,-
 0.37265\H,0,0.76068,0.60862,-0.47963\\Version=EM64L-G09RevD.01\HF=-228
 .9429537\MP2=-229.8454975\RMSD=3.888e-09\PG=C01 [X(C2H6O2)]\\@


      TO SUSPECT YOUR OWN MORTALITY IS TO KNOW THE BEGINNING OF TERROR.
      TO LEARN IRREFUTABLY THAT YOU ARE MORTAL IS TO KNOW THE END
      OF TERROR.

                                                  -- JESSICA
                                                     CHILDREN OF DUNE
                                                     BY FRANK HERBERT
 Job cpu time:       0 days  1 hours  2 minutes 36.4 seconds.
 File lengths (MBytes):  RWF=    699 Int=      0 D2E=      0 Chk=      8 Scr=      1
 Normal termination of Gaussian 09 at Thu Dec 21 02:06:14 2017.
