 Entering Gaussian System, Link 0=g09
 Input=1HPP_mp2qz_016.com
 Output=1HPP_mp2qz_016.log
 Initial command:
 /home/michal/g09/l1.exe "/home/michal/gauss_scratch/Gau-30299.inp" -scrdir="/home/michal/gauss_scratch/"
 Entering Link 1 = /home/michal/g09/l1.exe PID=     30300.
  
 Copyright (c) 1988,1990,1992,1993,1995,1998,2003,2009,2013,
            Gaussian, Inc.  All Rights Reserved.
  
 This is part of the Gaussian(R) 09 program.  It is based on
 the Gaussian(R) 03 system (copyright 2003, Gaussian, Inc.),
 the Gaussian(R) 98 system (copyright 1998, Gaussian, Inc.),
 the Gaussian(R) 94 system (copyright 1995, Gaussian, Inc.),
 the Gaussian 92(TM) system (copyright 1992, Gaussian, Inc.),
 the Gaussian 90(TM) system (copyright 1990, Gaussian, Inc.),
 the Gaussian 88(TM) system (copyright 1988, Gaussian, Inc.),
 the Gaussian 86(TM) system (copyright 1986, Carnegie Mellon
 University), and the Gaussian 82(TM) system (copyright 1983,
 Carnegie Mellon University). Gaussian is a federally registered
 trademark of Gaussian, Inc.
  
 This software contains proprietary and confidential information,
 including trade secrets, belonging to Gaussian, Inc.
  
 This software is provided under written license and may be
 used, copied, transmitted, or stored only in accord with that
 written license.
  
 The following legend is applicable only to US Government
 contracts under FAR:
  
                    RESTRICTED RIGHTS LEGEND
  
 Use, reproduction and disclosure by the US Government is
 subject to restrictions as set forth in subparagraphs (a)
 and (c) of the Commercial Computer Software - Restricted
 Rights clause in FAR 52.227-19.
  
 Gaussian, Inc.
 340 Quinnipiac St., Bldg. 40, Wallingford CT 06492
  
  
 ---------------------------------------------------------------
 Warning -- This program may not be used in any manner that
 competes with the business of Gaussian, Inc. or will provide
 assistance to any competitor of Gaussian, Inc.  The licensee
 of this program is prohibited from giving any competitor of
 Gaussian, Inc. access to this program.  By using this program,
 the user acknowledges that Gaussian, Inc. is engaged in the
 business of creating and licensing software in the field of
 computational chemistry and represents and warrants to the
 licensee that it is not a competitor of Gaussian, Inc. and that
 it will not use this program in any manner prohibited above.
 ---------------------------------------------------------------
  

 Cite this work as:
 Gaussian 09, Revision D.01,
 M. J. Frisch, G. W. Trucks, H. B. Schlegel, G. E. Scuseria, 
 M. A. Robb, J. R. Cheeseman, G. Scalmani, V. Barone, B. Mennucci, 
 G. A. Petersson, H. Nakatsuji, M. Caricato, X. Li, H. P. Hratchian, 
 A. F. Izmaylov, J. Bloino, G. Zheng, J. L. Sonnenberg, M. Hada, 
 M. Ehara, K. Toyota, R. Fukuda, J. Hasegawa, M. Ishida, T. Nakajima, 
 Y. Honda, O. Kitao, H. Nakai, T. Vreven, J. A. Montgomery, Jr., 
 J. E. Peralta, F. Ogliaro, M. Bearpark, J. J. Heyd, E. Brothers, 
 K. N. Kudin, V. N. Staroverov, T. Keith, R. Kobayashi, J. Normand, 
 K. Raghavachari, A. Rendell, J. C. Burant, S. S. Iyengar, J. Tomasi, 
 M. Cossi, N. Rega, J. M. Millam, M. Klene, J. E. Knox, J. B. Cross, 
 V. Bakken, C. Adamo, J. Jaramillo, R. Gomperts, R. E. Stratmann, 
 O. Yazyev, A. J. Austin, R. Cammi, C. Pomelli, J. W. Ochterski, 
 R. L. Martin, K. Morokuma, V. G. Zakrzewski, G. A. Voth, 
 P. Salvador, J. J. Dannenberg, S. Dapprich, A. D. Daniels, 
 O. Farkas, J. B. Foresman, J. V. Ortiz, J. Cioslowski, 
 and D. J. Fox, Gaussian, Inc., Wallingford CT, 2013.
 
 ******************************************
 Gaussian 09:  EM64L-G09RevD.01 24-Apr-2013
                21-Dec-2017 
 ******************************************
 %Mem=26GB
 %NProc=12
 Will use up to   12 processors via shared memory.
 %RWF=/home/michal/Cholesterol_grant/peroxy_params,20GB
 ------------------------
 #P MP2/cc-pVQZ SP Nosymm
 ------------------------
 1/38=1/1;
 2/12=2,15=1,17=6,18=5,40=1/2;
 3/5=16,6=2,11=9,16=1,25=1,30=1/1,2,3;
 4//1;
 5/5=2,38=5/2;
 8/10=1/1;
 9/16=-3/6;
 6/7=2,8=2,9=2,10=2/1;
 99/5=1,9=1/99;
 Leave Link    1 at Thu Dec 21 00:10:14 2017, MaxMem=  3489660928 cpu:         0.3
 (Enter /home/michal/g09/l101.exe)
 ------
 PEscan
 ------
 Symbolic Z-matrix:
 Charge =  0 Multiplicity = 1
 C                     0.01417  -0.00008   0.05829 
 C                     0.18554   0.02673   1.56805 
 O                     1.56881  -0.15217   1.81219 
 O                     1.78821  -0.13477   3.25342 
 H                     1.0723    0.45353   3.55536 
 H                     0.34607  -0.96927  -0.34422 
 H                    -0.14955   1.00378   1.98072 
 H                    -0.40041  -0.77643   2.05614 
 H                    -1.04567   0.14805  -0.20254 
 H                     0.61043   0.79878  -0.40848 
 
 NAtoms=     10 NQM=       10 NQMF=       0 NMMI=      0 NMMIF=      0
                NMic=       0 NMicF=      0.
                    Isotopes and Nuclear Properties:
 (Nuclear quadrupole moments (NQMom) in fm**2, nuclear magnetic moments (NMagM)
  in nuclear magnetons)

  Atom         1           2           3           4           5           6           7           8           9          10
 IAtWgt=          12          12          16          16           1           1           1           1           1           1
 AtmWgt=  12.0000000  12.0000000  15.9949146  15.9949146   1.0078250   1.0078250   1.0078250   1.0078250   1.0078250   1.0078250
 NucSpn=           0           0           0           0           1           1           1           1           1           1
 AtZEff=   0.0000000   0.0000000   0.0000000   0.0000000   0.0000000   0.0000000   0.0000000   0.0000000   0.0000000   0.0000000
 NQMom=    0.0000000   0.0000000   0.0000000   0.0000000   0.0000000   0.0000000   0.0000000   0.0000000   0.0000000   0.0000000
 NMagM=    0.0000000   0.0000000   0.0000000   0.0000000   2.7928460   2.7928460   2.7928460   2.7928460   2.7928460   2.7928460
 AtZNuc=   6.0000000   6.0000000   8.0000000   8.0000000   1.0000000   1.0000000   1.0000000   1.0000000   1.0000000   1.0000000
 Leave Link  101 at Thu Dec 21 00:10:14 2017, MaxMem=  3489660928 cpu:         0.5
 (Enter /home/michal/g09/l202.exe)
                          Input orientation:                          
 ---------------------------------------------------------------------
 Center     Atomic      Atomic             Coordinates (Angstroms)
 Number     Number       Type             X           Y           Z
 ---------------------------------------------------------------------
      1          6           0        0.014170   -0.000080    0.058290
      2          6           0        0.185540    0.026730    1.568050
      3          8           0        1.568810   -0.152170    1.812190
      4          8           0        1.788210   -0.134770    3.253420
      5          1           0        1.072300    0.453530    3.555360
      6          1           0        0.346070   -0.969270   -0.344220
      7          1           0       -0.149550    1.003780    1.980720
      8          1           0       -0.400410   -0.776430    2.056140
      9          1           0       -1.045670    0.148050   -0.202540
     10          1           0        0.610430    0.798780   -0.408480
 ---------------------------------------------------------------------
                    Distance matrix (angstroms):
                    1          2          3          4          5
     1  C    0.000000
     2  C    1.519691   0.000000
     3  O    2.348660   1.415996   0.000000
     4  O    3.657077   2.331331   1.457938   0.000000
     5  H    3.681698   2.217634   1.911030   0.974573   0.000000
     6  H    1.100682   2.162074   2.610144   3.964741   4.214083
     7  H    2.174920   1.112299   2.077832   2.582823   2.067652
     8  H    2.183117   1.107536   2.080154   2.575901   2.435023
     9  H    1.101470   2.159997   3.314329   4.478228   4.324457
    10  H    1.100717   2.164085   2.598879   3.958307   4.005565
                    6          7          8          9         10
     6  H    0.000000
     7  H    3.089322   0.000000
     8  H    2.521140   1.799379   0.000000
     9  H    1.790368   2.510364   2.524413   0.000000
    10  H    1.788859   2.515526   3.094743   1.791236   0.000000
 Symmetry turned off by external request.
 Stoichiometry    C2H6O2
 Framework group  C1[X(C2H6O2)]
 Deg. of freedom    24
 Full point group                 C1      NOp   1
 Rotational constants (GHZ):     30.4562652      4.1964612      3.8834877
 Leave Link  202 at Thu Dec 21 00:10:14 2017, MaxMem=  3489660928 cpu:         0.0
 (Enter /home/michal/g09/l301.exe)
 Standard basis: CC-pVQZ (5D, 7F)
 Ernie: Thresh=  0.10000D-02 Tol=  0.10000D-05 Strict=F.
 Ernie:  12 primitive shells out of 204 were deleted.
   400 basis functions,   578 primitive gaussians,   490 cartesian basis functions
    17 alpha electrons       17 beta electrons
       nuclear repulsion energy       131.0884834561 Hartrees.
 IExCor=    0 DFT=F Ex=HF Corr=None ExCW=0 ScaHFX=  1.000000
 ScaDFX=  1.000000  1.000000  1.000000  1.000000 ScalE2=  1.000000  1.000000
 IRadAn=      0 IRanWt=     -1 IRanGd=            0 ICorTp=0 IEmpDi=  4
 NAtoms=   10 NActive=   10 NUniq=   10 SFac= 1.00D+00 NAtFMM=   60 NAOKFM=F Big=F
 Integral buffers will be    131072 words long.
 Raffenetti 1 integral format.
 Two-electron integral symmetry is turned off.
 Leave Link  301 at Thu Dec 21 00:10:14 2017, MaxMem=  3489660928 cpu:         0.3
 (Enter /home/michal/g09/l302.exe)
 NPDir=0 NMtPBC=     1 NCelOv=     1 NCel=       1 NClECP=     1 NCelD=      1
         NCelK=      1 NCelE2=     1 NClLst=     1 CellRange=     0.0.
 One-electron integrals computed using PRISM.
 NBasis=   400 RedAO= T EigKep=  1.28D-04  NBF=   400
 NBsUse=   400 1.00D-06 EigRej= -1.00D+00 NBFU=   400
 Leave Link  302 at Thu Dec 21 00:10:14 2017, MaxMem=  3489660928 cpu:         6.1
 (Enter /home/michal/g09/l303.exe)
 DipDrv:  MaxL=1.
 Leave Link  303 at Thu Dec 21 00:10:14 2017, MaxMem=  3489660928 cpu:         0.5
 (Enter /home/michal/g09/l401.exe)
 ExpMin= 8.99D-02 ExpMax= 6.14D+04 ExpMxC= 5.91D+02 IAcc=2 IRadAn=         4 AccDes= 0.00D+00
 Harris functional with IExCor=  205 and IRadAn=       4 diagonalized for initial guess.
 HarFok:  IExCor=  205 AccDes= 0.00D+00 IRadAn=         4 IDoV= 1 UseB2=F ITyADJ=14
 ICtDFT=  3500011 ScaDFX=  1.000000  1.000000  1.000000  1.000000
 FoFCou: FMM=F IPFlag=           0 FMFlag=      100000 FMFlg1=           0
         NFxFlg=           0 DoJE=T BraDBF=F KetDBF=T FulRan=T
         wScrn=  0.000000 ICntrl=     500 IOpCl=  0 I1Cent=   200000004 NGrid=           0
         NMat0=    1 NMatS0=      1 NMatT0=    0 NMatD0=    1 NMtDS0=    0 NMtDT0=    0
 Symmetry not used in FoFCou.
 Harris En= -229.240652964311    
 JPrj=0 DoOrth=F DoCkMO=F.
 Leave Link  401 at Thu Dec 21 00:10:16 2017, MaxMem=  3489660928 cpu:        12.4
 (Enter /home/michal/g09/l502.exe)
 Closed shell SCF:
 Using DIIS extrapolation, IDIIS=  1040.
 Two-electron integral symmetry not used.
 Keep R1 ints in memory in canonical form, NReq=3275992930.
 IVT=      747690 IEndB=      747690 NGot=  3489660928 MDV=   272853139
 LenX=   272853139 LenY=   272612549
 Requested convergence on RMS density matrix=1.00D-08 within 128 cycles.
 Requested convergence on MAX density matrix=1.00D-06.
 Requested convergence on             energy=1.00D-06.
 No special actions if energy rises.
 FoFCou: FMM=F IPFlag=           0 FMFlag=           0 FMFlg1=           0
         NFxFlg=           0 DoJE=F BraDBF=F KetDBF=F FulRan=T
         wScrn=  0.000000 ICntrl=     600 IOpCl=  0 I1Cent=           0 NGrid=           0
         NMat0=    1 NMatS0=  80200 NMatT0=    0 NMatD0=    1 NMtDS0=    0 NMtDT0=    0
 Symmetry not used in FoFCou.

 Cycle   1  Pass 1  IDiag  1:
 E= -228.739343447528    
 DIIS: error= 3.25D-02 at cycle   1 NSaved=   1.
 NSaved= 1 IEnMin= 1 EnMin= -228.739343447528     IErMin= 1 ErrMin= 3.25D-02
 ErrMax= 3.25D-02  0.00D+00 EMaxC= 1.00D-01 BMatC= 4.76D-01 BMatP= 4.76D-01
 IDIUse=3 WtCom= 6.75D-01 WtEn= 3.25D-01
 Coeff-Com:  0.100D+01
 Coeff-En:   0.100D+01
 Coeff:      0.100D+01
 Gap=     0.693 Goal=   None    Shift=    0.000
 GapD=    0.693 DampG=2.000 DampE=0.500 DampFc=1.0000 IDamp=-1.
 RMSDP=7.57D-04 MaxDP=4.43D-02              OVMax= 1.25D-01

 Cycle   2  Pass 1  IDiag  1:
 E= -228.907903914219     Delta-E=       -0.168560466690 Rises=F Damp=F
 DIIS: error= 1.12D-02 at cycle   2 NSaved=   2.
 NSaved= 2 IEnMin= 2 EnMin= -228.907903914219     IErMin= 2 ErrMin= 1.12D-02
 ErrMax= 1.12D-02  0.00D+00 EMaxC= 1.00D-01 BMatC= 3.44D-02 BMatP= 4.76D-01
 IDIUse=3 WtCom= 8.88D-01 WtEn= 1.12D-01
 Coeff-Com:  0.119D+00 0.881D+00
 Coeff-En:   0.000D+00 0.100D+01
 Coeff:      0.106D+00 0.894D+00
 Gap=     0.649 Goal=   None    Shift=    0.000
 RMSDP=3.27D-04 MaxDP=1.83D-02 DE=-1.69D-01 OVMax= 4.33D-02

 Cycle   3  Pass 1  IDiag  1:
 E= -228.933230358294     Delta-E=       -0.025326444075 Rises=F Damp=F
 DIIS: error= 3.13D-03 at cycle   3 NSaved=   3.
 NSaved= 3 IEnMin= 3 EnMin= -228.933230358294     IErMin= 3 ErrMin= 3.13D-03
 ErrMax= 3.13D-03  0.00D+00 EMaxC= 1.00D-01 BMatC= 3.34D-03 BMatP= 3.44D-02
 IDIUse=3 WtCom= 9.69D-01 WtEn= 3.13D-02
 Coeff-Com: -0.217D-01 0.203D+00 0.819D+00
 Coeff-En:   0.000D+00 0.000D+00 0.100D+01
 Coeff:     -0.210D-01 0.196D+00 0.825D+00
 Gap=     0.546 Goal=   None    Shift=    0.000
 RMSDP=6.86D-05 MaxDP=4.54D-03 DE=-2.53D-02 OVMax= 1.16D-02

 Cycle   4  Pass 1  IDiag  1:
 E= -228.936011713817     Delta-E=       -0.002781355524 Rises=F Damp=F
 DIIS: error= 4.73D-04 at cycle   4 NSaved=   4.
 NSaved= 4 IEnMin= 4 EnMin= -228.936011713817     IErMin= 4 ErrMin= 4.73D-04
 ErrMax= 4.73D-04  0.00D+00 EMaxC= 1.00D-01 BMatC= 1.19D-04 BMatP= 3.34D-03
 IDIUse=3 WtCom= 9.95D-01 WtEn= 4.73D-03
 Coeff-Com: -0.659D-02 0.291D-01 0.187D+00 0.791D+00
 Coeff-En:   0.000D+00 0.000D+00 0.000D+00 0.100D+01
 Coeff:     -0.656D-02 0.289D-01 0.186D+00 0.792D+00
 Gap=     0.544 Goal=   None    Shift=    0.000
 RMSDP=1.83D-05 MaxDP=7.91D-04 DE=-2.78D-03 OVMax= 2.60D-03

 Cycle   5  Pass 1  IDiag  1:
 E= -228.936104166630     Delta-E=       -0.000092452812 Rises=F Damp=F
 DIIS: error= 2.49D-04 at cycle   5 NSaved=   5.
 NSaved= 5 IEnMin= 5 EnMin= -228.936104166630     IErMin= 5 ErrMin= 2.49D-04
 ErrMax= 2.49D-04  0.00D+00 EMaxC= 1.00D-01 BMatC= 1.83D-05 BMatP= 1.19D-04
 IDIUse=3 WtCom= 9.98D-01 WtEn= 2.49D-03
 Coeff-Com:  0.201D-02-0.273D-01-0.930D-01 0.195D+00 0.923D+00
 Coeff-En:   0.000D+00 0.000D+00 0.000D+00 0.000D+00 0.100D+01
 Coeff:      0.201D-02-0.272D-01-0.928D-01 0.194D+00 0.924D+00
 Gap=     0.545 Goal=   None    Shift=    0.000
 RMSDP=1.11D-05 MaxDP=5.46D-04 DE=-9.25D-05 OVMax= 1.62D-03

 Cycle   6  Pass 1  IDiag  1:
 E= -228.936126654509     Delta-E=       -0.000022487880 Rises=F Damp=F
 DIIS: error= 5.03D-05 at cycle   6 NSaved=   6.
 NSaved= 6 IEnMin= 6 EnMin= -228.936126654509     IErMin= 6 ErrMin= 5.03D-05
 ErrMax= 5.03D-05  0.00D+00 EMaxC= 1.00D-01 BMatC= 6.86D-07 BMatP= 1.83D-05
 IDIUse=1 WtCom= 1.00D+00 WtEn= 0.00D+00
 Coeff-Com:  0.505D-03-0.349D-02-0.146D-01-0.516D-01 0.423D-01 0.103D+01
 Coeff:      0.505D-03-0.349D-02-0.146D-01-0.516D-01 0.423D-01 0.103D+01
 Gap=     0.545 Goal=   None    Shift=    0.000
 RMSDP=2.98D-06 MaxDP=1.25D-04 DE=-2.25D-05 OVMax= 3.35D-04

 Cycle   7  Pass 1  IDiag  1:
 E= -228.936127888554     Delta-E=       -0.000001234044 Rises=F Damp=F
 DIIS: error= 1.03D-05 at cycle   7 NSaved=   7.
 NSaved= 7 IEnMin= 7 EnMin= -228.936127888554     IErMin= 7 ErrMin= 1.03D-05
 ErrMax= 1.03D-05  0.00D+00 EMaxC= 1.00D-01 BMatC= 5.53D-08 BMatP= 6.86D-07
 IDIUse=1 WtCom= 1.00D+00 WtEn= 0.00D+00
 Coeff-Com: -0.400D-04 0.104D-02 0.343D-02-0.156D-01-0.468D-01 0.742D-01
 Coeff-Com:  0.984D+00
 Coeff:     -0.400D-04 0.104D-02 0.343D-02-0.156D-01-0.468D-01 0.742D-01
 Coeff:      0.984D+00
 Gap=     0.545 Goal=   None    Shift=    0.000
 RMSDP=7.43D-07 MaxDP=3.61D-05 DE=-1.23D-06 OVMax= 8.61D-05

 Cycle   8  Pass 1  IDiag  1:
 E= -228.936127998434     Delta-E=       -0.000000109881 Rises=F Damp=F
 DIIS: error= 5.43D-06 at cycle   8 NSaved=   8.
 NSaved= 8 IEnMin= 8 EnMin= -228.936127998434     IErMin= 8 ErrMin= 5.43D-06
 ErrMax= 5.43D-06  0.00D+00 EMaxC= 1.00D-01 BMatC= 1.12D-08 BMatP= 5.53D-08
 IDIUse=1 WtCom= 1.00D+00 WtEn= 0.00D+00
 Coeff-Com: -0.761D-04 0.604D-03 0.252D-02 0.731D-02-0.942D-02-0.158D+00
 Coeff-Com:  0.138D+00 0.102D+01
 Coeff:     -0.761D-04 0.604D-03 0.252D-02 0.731D-02-0.942D-02-0.158D+00
 Coeff:      0.138D+00 0.102D+01
 Gap=     0.545 Goal=   None    Shift=    0.000
 RMSDP=3.60D-07 MaxDP=1.45D-05 DE=-1.10D-07 OVMax= 5.94D-05

 Cycle   9  Pass 1  IDiag  1:
 E= -228.936128022988     Delta-E=       -0.000000024554 Rises=F Damp=F
 DIIS: error= 1.66D-06 at cycle   9 NSaved=   9.
 NSaved= 9 IEnMin= 9 EnMin= -228.936128022988     IErMin= 9 ErrMin= 1.66D-06
 ErrMax= 1.66D-06  0.00D+00 EMaxC= 1.00D-01 BMatC= 1.25D-09 BMatP= 1.12D-08
 IDIUse=1 WtCom= 1.00D+00 WtEn= 0.00D+00
 Coeff-Com:  0.239D-04-0.262D-03-0.108D-02-0.667D-03 0.834D-02 0.396D-01
 Coeff-Com: -0.151D+00-0.340D+00 0.145D+01
 Coeff:      0.239D-04-0.262D-03-0.108D-02-0.667D-03 0.834D-02 0.396D-01
 Coeff:     -0.151D+00-0.340D+00 0.145D+01
 Gap=     0.545 Goal=   None    Shift=    0.000
 RMSDP=1.85D-07 MaxDP=6.13D-06 DE=-2.46D-08 OVMax= 4.28D-05

 Cycle  10  Pass 1  IDiag  1:
 E= -228.936128028248     Delta-E=       -0.000000005260 Rises=F Damp=F
 DIIS: error= 6.02D-07 at cycle  10 NSaved=  10.
 NSaved=10 IEnMin=10 EnMin= -228.936128028248     IErMin=10 ErrMin= 6.02D-07
 ErrMax= 6.02D-07  0.00D+00 EMaxC= 1.00D-01 BMatC= 1.68D-10 BMatP= 1.25D-09
 IDIUse=1 WtCom= 1.00D+00 WtEn= 0.00D+00
 Coeff-Com:  0.155D-05 0.603D-05 0.262D-04-0.716D-03-0.144D-02 0.716D-02
 Coeff-Com:  0.268D-01-0.280D-01-0.369D+00 0.137D+01
 Coeff:      0.155D-05 0.603D-05 0.262D-04-0.716D-03-0.144D-02 0.716D-02
 Coeff:      0.268D-01-0.280D-01-0.369D+00 0.137D+01
 Gap=     0.545 Goal=   None    Shift=    0.000
 RMSDP=6.88D-08 MaxDP=2.28D-06 DE=-5.26D-09 OVMax= 2.01D-05

 Cycle  11  Pass 1  IDiag  1:
 E= -228.936128029018     Delta-E=       -0.000000000770 Rises=F Damp=F
 DIIS: error= 2.75D-07 at cycle  11 NSaved=  11.
 NSaved=11 IEnMin=11 EnMin= -228.936128029018     IErMin=11 ErrMin= 2.75D-07
 ErrMax= 2.75D-07  0.00D+00 EMaxC= 1.00D-01 BMatC= 3.28D-11 BMatP= 1.68D-10
 IDIUse=1 WtCom= 1.00D+00 WtEn= 0.00D+00
 Coeff-Com: -0.359D-05 0.392D-04 0.163D-03 0.272D-03-0.103D-02-0.827D-02
 Coeff-Com:  0.217D-01 0.644D-01-0.212D+00-0.136D+00 0.127D+01
 Coeff:     -0.359D-05 0.392D-04 0.163D-03 0.272D-03-0.103D-02-0.827D-02
 Coeff:      0.217D-01 0.644D-01-0.212D+00-0.136D+00 0.127D+01
 Gap=     0.545 Goal=   None    Shift=    0.000
 RMSDP=3.14D-08 MaxDP=1.19D-06 DE=-7.70D-10 OVMax= 9.84D-06

 Cycle  12  Pass 1  IDiag  1:
 E= -228.936128029172     Delta-E=       -0.000000000154 Rises=F Damp=F
 DIIS: error= 9.87D-08 at cycle  12 NSaved=  12.
 NSaved=12 IEnMin=12 EnMin= -228.936128029172     IErMin=12 ErrMin= 9.87D-08
 ErrMax= 9.87D-08  0.00D+00 EMaxC= 1.00D-01 BMatC= 5.40D-12 BMatP= 3.28D-11
 IDIUse=1 WtCom= 1.00D+00 WtEn= 0.00D+00
 Coeff-Com: -0.379D-07-0.519D-05-0.213D-04 0.152D-03 0.411D-03-0.117D-02
 Coeff-Com: -0.703D-02 0.478D-02 0.855D-01-0.264D+00-0.116D+00 0.130D+01
 Coeff:     -0.379D-07-0.519D-05-0.213D-04 0.152D-03 0.411D-03-0.117D-02
 Coeff:     -0.703D-02 0.478D-02 0.855D-01-0.264D+00-0.116D+00 0.130D+01
 Gap=     0.545 Goal=   None    Shift=    0.000
 RMSDP=1.43D-08 MaxDP=5.98D-07 DE=-1.54D-10 OVMax= 4.53D-06

 Cycle  13  Pass 1  IDiag  1:
 E= -228.936128029194     Delta-E=       -0.000000000023 Rises=F Damp=F
 DIIS: error= 2.91D-08 at cycle  13 NSaved=  13.
 NSaved=13 IEnMin=13 EnMin= -228.936128029194     IErMin=13 ErrMin= 2.91D-08
 ErrMax= 2.91D-08  0.00D+00 EMaxC= 1.00D-01 BMatC= 5.37D-13 BMatP= 5.40D-12
 IDIUse=1 WtCom= 1.00D+00 WtEn= 0.00D+00
 Coeff-Com:  0.482D-06-0.451D-05-0.178D-04-0.617D-04 0.612D-04 0.127D-02
 Coeff-Com: -0.178D-02-0.918D-02 0.143D-01 0.574D-01-0.141D+00-0.199D+00
 Coeff-Com:  0.128D+01
 Coeff:      0.482D-06-0.451D-05-0.178D-04-0.617D-04 0.612D-04 0.127D-02
 Coeff:     -0.178D-02-0.918D-02 0.143D-01 0.574D-01-0.141D+00-0.199D+00
 Coeff:      0.128D+01
 Gap=     0.545 Goal=   None    Shift=    0.000
 RMSDP=4.18D-09 MaxDP=1.83D-07 DE=-2.26D-11 OVMax= 1.22D-06

 SCF Done:  E(RHF) =  -228.936128029     A.U. after   13 cycles
            NFock= 13  Conv=0.42D-08     -V/T= 2.0017
 KE= 2.285566928718D+02 PE=-8.015776947961D+02 EE= 2.129963904390D+02
 Leave Link  502 at Thu Dec 21 00:12:05 2017, MaxMem=  3489660928 cpu:       721.9
 (Enter /home/michal/g09/l801.exe)
 ExpMin= 8.99D-02 ExpMax= 6.14D+04 ExpMxC= 5.91D+02 IAcc=3 IRadAn=         5 AccDes= 0.00D+00
 HarFok:  IExCor=  205 AccDes= 0.00D+00 IRadAn=         5 IDoV=-2 UseB2=F ITyADJ=14
 ICtDFT= 12500011 ScaDFX=  1.000000  1.000000  1.000000  1.000000
 Largest valence mixing into a core orbital is  1.81D-04
 Largest core mixing into a valence orbital is  3.00D-05
 Range of M.O.s used for correlation:     5   400
 NBasis=   400 NAE=    17 NBE=    17 NFC=     4 NFV=     0
 NROrb=    396 NOA=    13 NOB=    13 NVA=   383 NVB=   383

 **** Warning!!: The largest alpha MO coefficient is  0.20535526D+02

 Leave Link  801 at Thu Dec 21 00:12:06 2017, MaxMem=  3489660928 cpu:         1.2
 (Enter /home/michal/g09/l906.exe)
 FulOut=F Deriv=F AODrv=F NAtomX=    10
   MMem=        1311  MDisk=          13 MDiskD=          13
  W3Min=     2439710 MinDsk=     3998052 NBas6D=         490
 NBas2D=      121807    NTT=      120295    LW2=     4508827
    MDV=  3488920076 MDiskM=       15813 NBas2p=      115131
 Fully direct method using O(OVN) memory.
 IMap=   1   2   3   4   5   6   7   8   9  10  11  12  13
 JobTyp=1 Pass  1:  I=   1 to  13 NPSUse= 12 ParTrn=T ParDer=T DoDerP=F.
 Spin components of T(2) and E(2):
     alpha-alpha T2 =       0.2907629199D-01 E2=     -0.1042096842D+00
     alpha-beta  T2 =       0.1789055386D+00 E2=     -0.6945404762D+00
     beta-beta   T2 =       0.2907629199D-01 E2=     -0.1042096842D+00
 The integrals were generated   1 times.
 ANorm=    0.1112231146D+01
 E2 =    -0.9029598445D+00 EUMP2 =    -0.22983908787369D+03
 Leave Link  906 at Thu Dec 21 00:16:25 2017, MaxMem=  3489660928 cpu:      3088.5
 (Enter /home/michal/g09/l601.exe)
 Copying SCF densities to generalized density rwf, IOpCl= 0 IROHF=0.

 **********************************************************************

            Population analysis using the SCF density.

 **********************************************************************

 Alpha  occ. eigenvalues --  -20.62114 -20.62017 -11.29680 -11.23365  -1.46939
 Alpha  occ. eigenvalues --   -1.22890  -1.01318  -0.85664  -0.71176  -0.67998
 Alpha  occ. eigenvalues --   -0.63463  -0.59711  -0.55961  -0.53326  -0.50952
 Alpha  occ. eigenvalues --   -0.50866  -0.43970
 Alpha virt. eigenvalues --    0.10533   0.12447   0.15982   0.17000   0.18653
 Alpha virt. eigenvalues --    0.20487   0.22452   0.25685   0.26512   0.29770
 Alpha virt. eigenvalues --    0.33974   0.34495   0.36319   0.44554   0.45272
 Alpha virt. eigenvalues --    0.45762   0.48167   0.48477   0.50681   0.52293
 Alpha virt. eigenvalues --    0.53392   0.53600   0.54443   0.58233   0.61553
 Alpha virt. eigenvalues --    0.62857   0.65028   0.66543   0.70026   0.70951
 Alpha virt. eigenvalues --    0.73167   0.78105   0.81093   0.83969   0.85009
 Alpha virt. eigenvalues --    0.85898   0.88127   0.90881   0.91560   0.93322
 Alpha virt. eigenvalues --    0.95399   0.99182   1.00900   1.02503   1.03769
 Alpha virt. eigenvalues --    1.05704   1.06458   1.11403   1.12597   1.12975
 Alpha virt. eigenvalues --    1.14978   1.16212   1.17369   1.18915   1.21154
 Alpha virt. eigenvalues --    1.23021   1.24155   1.30166   1.34203   1.37401
 Alpha virt. eigenvalues --    1.44961   1.47434   1.51451   1.57733   1.60215
 Alpha virt. eigenvalues --    1.61604   1.64835   1.67439   1.74876   1.75895
 Alpha virt. eigenvalues --    1.76212   1.77905   1.80672   1.88150   1.91525
 Alpha virt. eigenvalues --    1.94561   1.95769   1.98522   2.01508   2.02161
 Alpha virt. eigenvalues --    2.04675   2.06033   2.08314   2.08967   2.09264
 Alpha virt. eigenvalues --    2.13237   2.16317   2.19550   2.22317   2.22981
 Alpha virt. eigenvalues --    2.27012   2.29882   2.30346   2.31713   2.33818
 Alpha virt. eigenvalues --    2.35151   2.38247   2.39330   2.42068   2.45368
 Alpha virt. eigenvalues --    2.46207   2.47717   2.55696   2.56386   2.59274
 Alpha virt. eigenvalues --    2.60232   2.62459   2.64455   2.65829   2.67159
 Alpha virt. eigenvalues --    2.68957   2.72932   2.75448   2.76087   2.77513
 Alpha virt. eigenvalues --    2.80252   2.81739   2.85637   2.86774   2.90644
 Alpha virt. eigenvalues --    2.91409   2.93708   2.98978   3.01600   3.07044
 Alpha virt. eigenvalues --    3.07813   3.08730   3.13663   3.17989   3.22022
 Alpha virt. eigenvalues --    3.22402   3.23848   3.25482   3.29104   3.32458
 Alpha virt. eigenvalues --    3.33414   3.35521   3.38529   3.41334   3.43334
 Alpha virt. eigenvalues --    3.44978   3.46761   3.51288   3.54388   3.57009
 Alpha virt. eigenvalues --    3.60018   3.63209   3.65028   3.69140   3.72880
 Alpha virt. eigenvalues --    3.73940   3.79796   3.82256   3.84116   3.86740
 Alpha virt. eigenvalues --    3.92192   3.95121   4.03101   4.05119   4.07509
 Alpha virt. eigenvalues --    4.08336   4.11534   4.13246   4.16267   4.16963
 Alpha virt. eigenvalues --    4.23468   4.26335   4.31203   4.35498   4.36189
 Alpha virt. eigenvalues --    4.45363   4.48651   4.50958   4.53913   4.59458
 Alpha virt. eigenvalues --    4.65244   4.66702   4.77276   4.81735   4.83720
 Alpha virt. eigenvalues --    4.92020   5.05476   5.06663   5.12700   5.25236
 Alpha virt. eigenvalues --    5.43793   5.51328   5.56938   5.59536   5.68907
 Alpha virt. eigenvalues --    5.70140   5.71992   5.74030   5.75290   5.84902
 Alpha virt. eigenvalues --    5.89718   5.98521   6.01396   6.07072   6.09237
 Alpha virt. eigenvalues --    6.10168   6.12361   6.17664   6.20102   6.21443
 Alpha virt. eigenvalues --    6.22007   6.25180   6.29711   6.32242   6.34668
 Alpha virt. eigenvalues --    6.35947   6.41294   6.41749   6.44886   6.46443
 Alpha virt. eigenvalues --    6.48283   6.50693   6.51670   6.52819   6.54409
 Alpha virt. eigenvalues --    6.54698   6.58780   6.60844   6.65440   6.68076
 Alpha virt. eigenvalues --    6.71668   6.76411   6.78926   6.83803   6.85285
 Alpha virt. eigenvalues --    6.88820   6.94272   6.95922   7.04822   7.05968
 Alpha virt. eigenvalues --    7.06749   7.10271   7.13529   7.19441   7.20668
 Alpha virt. eigenvalues --    7.25462   7.28966   7.32554   7.34255   7.38197
 Alpha virt. eigenvalues --    7.41499   7.48833   7.54809   7.57627   7.60407
 Alpha virt. eigenvalues --    7.60766   7.66651   7.76472   7.77577   7.80532
 Alpha virt. eigenvalues --    7.84855   7.86365   7.88882   7.90263   7.95037
 Alpha virt. eigenvalues --    7.98427   8.01322   8.04563   8.05706   8.08684
 Alpha virt. eigenvalues --    8.11607   8.14492   8.17358   8.18728   8.22145
 Alpha virt. eigenvalues --    8.24139   8.26835   8.28586   8.33471   8.35934
 Alpha virt. eigenvalues --    8.38229   8.40199   8.45714   8.46302   8.52880
 Alpha virt. eigenvalues --    8.63328   8.64788   8.69407   8.72759   8.74598
 Alpha virt. eigenvalues --    8.75385   8.76786   8.79371   8.81503   8.83080
 Alpha virt. eigenvalues --    8.83982   8.87647   8.88882   8.92218   8.93045
 Alpha virt. eigenvalues --    8.97650   9.00329   9.02966   9.06800   9.07329
 Alpha virt. eigenvalues --    9.13694   9.14280   9.19494   9.24351   9.25988
 Alpha virt. eigenvalues --    9.29705   9.32900   9.36379   9.37400   9.40725
 Alpha virt. eigenvalues --    9.45493   9.49237   9.50525   9.55030   9.65159
 Alpha virt. eigenvalues --    9.72483   9.83116   9.96254   9.98458  10.08970
 Alpha virt. eigenvalues --   10.12081  10.12502  10.18823  10.22617  10.25874
 Alpha virt. eigenvalues --   10.31519  10.35413  10.38858  10.41630  10.42878
 Alpha virt. eigenvalues --   10.49885  10.51662  10.55373  10.60017  10.61337
 Alpha virt. eigenvalues --   10.66580  10.67691  10.72427  10.75702  10.81667
 Alpha virt. eigenvalues --   10.93025  10.98345  11.00844  11.13431  11.34445
 Alpha virt. eigenvalues --   11.38944  11.49989  11.57775  11.64861  11.68727
 Alpha virt. eigenvalues --   11.74920  11.78609  11.83020  11.93306  11.93816
 Alpha virt. eigenvalues --   12.08827  12.12344  12.25549  12.36749  12.47232
 Alpha virt. eigenvalues --   12.49062  12.58345  12.62770  12.71585  12.75352
 Alpha virt. eigenvalues --   12.77932  12.81262  12.86882  13.09749  13.18289
 Alpha virt. eigenvalues --   13.21425  13.24036  13.50427  13.77581  14.01899
 Alpha virt. eigenvalues --   14.32521  14.35725  15.10566  16.56000  26.21282
 Alpha virt. eigenvalues --   27.01136  42.50653  44.36959
          Condensed to atoms (all electrons):
               1          2          3          4          5          6
     1  C    4.692650   0.363199  -0.037083   0.007916  -0.000256   0.420890
     2  C    0.363199   4.503865   0.327309  -0.061095  -0.003416  -0.038334
     3  O   -0.037083   0.327309   7.950121   0.114876  -0.041766   0.000656
     4  O    0.007916  -0.061095   0.114876   7.888187   0.341126  -0.000221
     5  H   -0.000256  -0.003416  -0.041766   0.341126   0.437627   0.000050
     6  H    0.420890  -0.038334   0.000656  -0.000221   0.000050   0.572842
     7  H   -0.035066   0.395885  -0.054972  -0.005690   0.011355   0.008937
     8  H   -0.026150   0.419624  -0.052478   0.005249  -0.002526  -0.008432
     9  H    0.409352  -0.030476   0.002824  -0.000438   0.000139  -0.023542
    10  H    0.412930  -0.033949   0.000532  -0.000048   0.000010  -0.023180
               7          8          9         10
     1  C   -0.035066  -0.026150   0.409352   0.412930
     2  C    0.395885   0.419624  -0.030476  -0.033949
     3  O   -0.054972  -0.052478   0.002824   0.000532
     4  O   -0.005690   0.005249  -0.000438  -0.000048
     5  H    0.011355  -0.002526   0.000139   0.000010
     6  H    0.008937  -0.008432  -0.023542  -0.023180
     7  H    0.779771  -0.090968  -0.001594  -0.009453
     8  H   -0.090968   0.701421  -0.001081   0.008549
     9  H   -0.001594  -0.001081   0.601776  -0.023984
    10  H   -0.009453   0.008549  -0.023984   0.581333
 Mulliken charges:
               1
     1  C   -0.208381
     2  C    0.157389
     3  O   -0.210016
     4  O   -0.289861
     5  H    0.257659
     6  H    0.090335
     7  H    0.001797
     8  H    0.046793
     9  H    0.067025
    10  H    0.087260
 Sum of Mulliken charges =   0.00000
 Mulliken charges with hydrogens summed into heavy atoms:
               1
     1  C    0.036239
     2  C    0.205979
     3  O   -0.210016
     4  O   -0.032202
 Electronic spatial extent (au):  <R**2>=            771.2260
 Charge=              0.0000 electrons
 Dipole moment (field-independent basis, Debye):
    X=             -2.9677    Y=              1.1116    Z=             -0.3151  Tot=              3.1847
 Quadrupole moment (field-independent basis, Debye-Ang):
   XX=            -32.2287   YY=            -24.7592   ZZ=            -24.5548
   XY=              1.3432   XZ=             -7.2069   YZ=              3.9189
 Traceless Quadrupole moment (field-independent basis, Debye-Ang):
   XX=             -5.0478   YY=              2.4217   ZZ=              2.6260
   XY=              1.3432   XZ=             -7.2069   YZ=              3.9189
 Octapole moment (field-independent basis, Debye-Ang**2):
  XXX=            -72.5118  YYY=              3.1588  ZZZ=           -110.2732  XYY=            -19.2395
  XXY=              2.3728  XXZ=            -58.2200  XZZ=            -37.1836  YZZ=             15.0049
  YYZ=            -39.0874  XYZ=              4.4084
 Hexadecapole moment (field-independent basis, Debye-Ang**3):
 XXXX=           -246.4441 YYYY=            -38.4828 ZZZZ=           -576.0705 XXXY=              6.9789
 XXXZ=           -186.6891 YYYX=              7.0613 YYYZ=              9.2055 ZZZX=           -196.1284
 ZZZY=             58.3291 XXYY=            -44.1100 XXZZ=           -193.0371 YYZZ=           -108.4180
 XXYZ=              6.1224 YYXZ=            -51.0417 ZZXY=             17.7333
 N-N= 1.310884834561D+02 E-N=-8.015776941158D+02  KE= 2.285566928718D+02
 Leave Link  601 at Thu Dec 21 00:16:25 2017, MaxMem=  3489660928 cpu:         0.5
 (Enter /home/michal/g09/l9999.exe)
 1\1\GINC-LINUX\SP\RMP2-FC\CC-pVQZ\C2H6O2\MICHAL\21-Dec-2017\0\\#P MP2/
 cc-pVQZ SP Nosymm\\PEscan\\0,1\C,0,0.01417,-0.00008,0.05829\C,0,0.1855
 4,0.02673,1.56805\O,0,1.56881,-0.15217,1.81219\O,0,1.78821,-0.13477,3.
 25342\H,0,1.0723,0.45353,3.55536\H,0,0.34607,-0.96927,-0.34422\H,0,-0.
 14955,1.00378,1.98072\H,0,-0.40041,-0.77643,2.05614\H,0,-1.04567,0.148
 05,-0.20254\H,0,0.61043,0.79878,-0.40848\\Version=EM64L-G09RevD.01\HF=
 -228.936128\MP2=-229.8390879\RMSD=4.176e-09\PG=C01 [X(C2H6O2)]\\@


 WHAT, THEN, IS TIME?  IF NO ONE ASKS ME, I KNOW WHAT IT IS.
 IF I WISH TO EXPLAIN WHAT IT IS TO HIM WHO ASKS ME, I DO NOT KNOW.
                                   -- ST. AUGUSTINE (FIFTH CENTURY)
 Job cpu time:       0 days  1 hours  3 minutes 53.4 seconds.
 File lengths (MBytes):  RWF=    699 Int=      0 D2E=      0 Chk=      8 Scr=      1
 Normal termination of Gaussian 09 at Thu Dec 21 00:16:25 2017.
