 Entering Gaussian System, Link 0=g09
 Input=1HPP_ccsdtdz_001.com
 Output=1HPP_ccsdtdz_001.log
 Initial command:
 /home/michal/g09/l1.exe "/home/michal/gauss_scratch/Gau-1204.inp" -scrdir="/home/michal/gauss_scratch/"
 Entering Link 1 = /home/michal/g09/l1.exe PID=      1205.
  
 Copyright (c) 1988,1990,1992,1993,1995,1998,2003,2009,2013,
            Gaussian, Inc.  All Rights Reserved.
  
 This is part of the Gaussian(R) 09 program.  It is based on
 the Gaussian(R) 03 system (copyright 2003, Gaussian, Inc.),
 the Gaussian(R) 98 system (copyright 1998, Gaussian, Inc.),
 the Gaussian(R) 94 system (copyright 1995, Gaussian, Inc.),
 the Gaussian 92(TM) system (copyright 1992, Gaussian, Inc.),
 the Gaussian 90(TM) system (copyright 1990, Gaussian, Inc.),
 the Gaussian 88(TM) system (copyright 1988, Gaussian, Inc.),
 the Gaussian 86(TM) system (copyright 1986, Carnegie Mellon
 University), and the Gaussian 82(TM) system (copyright 1983,
 Carnegie Mellon University). Gaussian is a federally registered
 trademark of Gaussian, Inc.
  
 This software contains proprietary and confidential information,
 including trade secrets, belonging to Gaussian, Inc.
  
 This software is provided under written license and may be
 used, copied, transmitted, or stored only in accord with that
 written license.
  
 The following legend is applicable only to US Government
 contracts under FAR:
  
                    RESTRICTED RIGHTS LEGEND
  
 Use, reproduction and disclosure by the US Government is
 subject to restrictions as set forth in subparagraphs (a)
 and (c) of the Commercial Computer Software - Restricted
 Rights clause in FAR 52.227-19.
  
 Gaussian, Inc.
 340 Quinnipiac St., Bldg. 40, Wallingford CT 06492
  
  
 ---------------------------------------------------------------
 Warning -- This program may not be used in any manner that
 competes with the business of Gaussian, Inc. or will provide
 assistance to any competitor of Gaussian, Inc.  The licensee
 of this program is prohibited from giving any competitor of
 Gaussian, Inc. access to this program.  By using this program,
 the user acknowledges that Gaussian, Inc. is engaged in the
 business of creating and licensing software in the field of
 computational chemistry and represents and warrants to the
 licensee that it is not a competitor of Gaussian, Inc. and that
 it will not use this program in any manner prohibited above.
 ---------------------------------------------------------------
  

 Cite this work as:
 Gaussian 09, Revision D.01,
 M. J. Frisch, G. W. Trucks, H. B. Schlegel, G. E. Scuseria, 
 M. A. Robb, J. R. Cheeseman, G. Scalmani, V. Barone, B. Mennucci, 
 G. A. Petersson, H. Nakatsuji, M. Caricato, X. Li, H. P. Hratchian, 
 A. F. Izmaylov, J. Bloino, G. Zheng, J. L. Sonnenberg, M. Hada, 
 M. Ehara, K. Toyota, R. Fukuda, J. Hasegawa, M. Ishida, T. Nakajima, 
 Y. Honda, O. Kitao, H. Nakai, T. Vreven, J. A. Montgomery, Jr., 
 J. E. Peralta, F. Ogliaro, M. Bearpark, J. J. Heyd, E. Brothers, 
 K. N. Kudin, V. N. Staroverov, T. Keith, R. Kobayashi, J. Normand, 
 K. Raghavachari, A. Rendell, J. C. Burant, S. S. Iyengar, J. Tomasi, 
 M. Cossi, N. Rega, J. M. Millam, M. Klene, J. E. Knox, J. B. Cross, 
 V. Bakken, C. Adamo, J. Jaramillo, R. Gomperts, R. E. Stratmann, 
 O. Yazyev, A. J. Austin, R. Cammi, C. Pomelli, J. W. Ochterski, 
 R. L. Martin, K. Morokuma, V. G. Zakrzewski, G. A. Voth, 
 P. Salvador, J. J. Dannenberg, S. Dapprich, A. D. Daniels, 
 O. Farkas, J. B. Foresman, J. V. Ortiz, J. Cioslowski, 
 and D. J. Fox, Gaussian, Inc., Wallingford CT, 2013.
 
 ******************************************
 Gaussian 09:  EM64L-G09RevD.01 24-Apr-2013
                21-Dec-2017 
 ******************************************
 %Mem=26GB
 %NProc=12
 Will use up to   12 processors via shared memory.
 %RWF=/home/michal/Cholesterol_grant/peroxy_params,20GB
 ----------------------------
 #P CCSD(T)/cc-pVDZ SP Nosymm
 ----------------------------
 1/38=1/1;
 2/12=2,15=1,17=6,18=5,40=1/2;
 3/5=16,11=9,16=1,25=1,30=1/1,2,3;
 4//1;
 5/5=2,38=5/2;
 8/6=4,9=120000,10=1/1,4;
 9/5=7,14=2/13;
 6/7=2,8=2,9=2,10=2/1;
 99/5=1,9=1/99;
 Leave Link    1 at Thu Dec 21 02:24:08 2017, MaxMem=  3489660928 cpu:         0.3
 (Enter /home/michal/g09/l101.exe)
 ------
 PEscan
 ------
 Symbolic Z-matrix:
 Charge =  0 Multiplicity = 1
 C                     0.02793  -0.00824   0.02355 
 C                     0.00523   0.02892   1.54284 
 O                     1.36004   0.09478   1.95229 
 O                     1.28212   0.12834   3.41846 
 H                     2.23697   0.1718    3.58899 
 H                     0.58305  -0.88976  -0.33351 
 H                    -0.54345   0.91326   1.91708 
 H                    -0.46996  -0.87754   1.96199 
 H                    -1.00178  -0.06022  -0.36445 
 H                     0.50975   0.8968   -0.37831 
 
 NAtoms=     10 NQM=       10 NQMF=       0 NMMI=      0 NMMIF=      0
                NMic=       0 NMicF=      0.
                    Isotopes and Nuclear Properties:
 (Nuclear quadrupole moments (NQMom) in fm**2, nuclear magnetic moments (NMagM)
  in nuclear magnetons)

  Atom         1           2           3           4           5           6           7           8           9          10
 IAtWgt=          12          12          16          16           1           1           1           1           1           1
 AtmWgt=  12.0000000  12.0000000  15.9949146  15.9949146   1.0078250   1.0078250   1.0078250   1.0078250   1.0078250   1.0078250
 NucSpn=           0           0           0           0           1           1           1           1           1           1
 AtZEff=   0.0000000   0.0000000   0.0000000   0.0000000   0.0000000   0.0000000   0.0000000   0.0000000   0.0000000   0.0000000
 NQMom=    0.0000000   0.0000000   0.0000000   0.0000000   0.0000000   0.0000000   0.0000000   0.0000000   0.0000000   0.0000000
 NMagM=    0.0000000   0.0000000   0.0000000   0.0000000   2.7928460   2.7928460   2.7928460   2.7928460   2.7928460   2.7928460
 AtZNuc=   6.0000000   6.0000000   8.0000000   8.0000000   1.0000000   1.0000000   1.0000000   1.0000000   1.0000000   1.0000000
 Leave Link  101 at Thu Dec 21 02:24:08 2017, MaxMem=  3489660928 cpu:         0.5
 (Enter /home/michal/g09/l202.exe)
                          Input orientation:                          
 ---------------------------------------------------------------------
 Center     Atomic      Atomic             Coordinates (Angstroms)
 Number     Number       Type             X           Y           Z
 ---------------------------------------------------------------------
      1          6           0        0.027930   -0.008240    0.023550
      2          6           0        0.005230    0.028920    1.542840
      3          8           0        1.360040    0.094780    1.952290
      4          8           0        1.282120    0.128340    3.418460
      5          1           0        2.236970    0.171800    3.588990
      6          1           0        0.583050   -0.889760   -0.333510
      7          1           0       -0.543450    0.913260    1.917080
      8          1           0       -0.469960   -0.877540    1.961990
      9          1           0       -1.001780   -0.060220   -0.364450
     10          1           0        0.509750    0.896800   -0.378310
 ---------------------------------------------------------------------
                    Distance matrix (angstroms):
                    1          2          3          4          5
     1  C    0.000000
     2  C    1.519914   0.000000
     3  O    2.346309   1.416862   0.000000
     4  O    3.621748   2.271185   1.468623   0.000000
     5  H    4.198170   3.031140   1.858420   0.970931   0.000000
     6  H    1.101239   2.167611   2.607281   3.950001   4.387296
     7  H    2.181993   1.105967   2.072299   2.490572   3.328030
     8  H    2.182001   1.105967   2.072293   2.490559   3.328019
     9  H    1.101612   2.158650   3.312024   4.422913   5.115958
    10  H    1.101244   2.167619   2.607283   3.950006   4.387298
                    6          7          8          9         10
     6  H    0.000000
     7  H    3.095971   0.000000
     8  H    2.525530   1.792870   0.000000
     9  H    1.789072   2.522520   2.522532   0.000000
    10  H    1.788624   2.525533   3.095984   1.789079   0.000000
 Symmetry turned off by external request.
 Stoichiometry    C2H6O2
 Framework group  C1[X(C2H6O2)]
 Deg. of freedom    24
 Full point group                 C1      NOp   1
 Rotational constants (GHZ):     30.8831517      4.1955202      3.8768753
 Leave Link  202 at Thu Dec 21 02:24:08 2017, MaxMem=  3489660928 cpu:         0.1
 (Enter /home/michal/g09/l301.exe)
 Standard basis: CC-pVDZ (5D, 7F)
 Ernie: Thresh=  0.10000D-02 Tol=  0.10000D-05 Strict=F.
 Ernie:  8 primitive shells out of 118 were deleted.
    86 basis functions,   174 primitive gaussians,    90 cartesian basis functions
    17 alpha electrons       17 beta electrons
       nuclear repulsion energy       130.8246626212 Hartrees.
 IExCor=    0 DFT=F Ex=HF Corr=None ExCW=0 ScaHFX=  1.000000
 ScaDFX=  1.000000  1.000000  1.000000  1.000000 ScalE2=  1.000000  1.000000
 IRadAn=      0 IRanWt=     -1 IRanGd=            0 ICorTp=0 IEmpDi=  4
 NAtoms=   10 NActive=   10 NUniq=   10 SFac= 1.00D+00 NAtFMM=   60 NAOKFM=F Big=F
 Integral buffers will be    131072 words long.
 Raffenetti 1 integral format.
 Two-electron integral symmetry is turned off.
 Leave Link  301 at Thu Dec 21 02:24:08 2017, MaxMem=  3489660928 cpu:         0.3
 (Enter /home/michal/g09/l302.exe)
 NPDir=0 NMtPBC=     1 NCelOv=     1 NCel=       1 NClECP=     1 NCelD=      1
         NCelK=      1 NCelE2=     1 NClLst=     1 CellRange=     0.0.
 One-electron integrals computed using PRISM.
 NBasis=    86 RedAO= T EigKep=  5.96D-03  NBF=    86
 NBsUse=    86 1.00D-06 EigRej= -1.00D+00 NBFU=    86
 Leave Link  302 at Thu Dec 21 02:24:08 2017, MaxMem=  3489660928 cpu:         1.6
 (Enter /home/michal/g09/l303.exe)
 DipDrv:  MaxL=1.
 Leave Link  303 at Thu Dec 21 02:24:09 2017, MaxMem=  3489660928 cpu:         0.2
 (Enter /home/michal/g09/l401.exe)
 ExpMin= 1.22D-01 ExpMax= 1.17D+04 ExpMxC= 4.01D+02 IAcc=1 IRadAn=         1 AccDes= 0.00D+00
 Harris functional with IExCor=  205 and IRadAn=       1 diagonalized for initial guess.
 HarFok:  IExCor=  205 AccDes= 0.00D+00 IRadAn=         1 IDoV= 1 UseB2=F ITyADJ=14
 ICtDFT=  3500011 ScaDFX=  1.000000  1.000000  1.000000  1.000000
 FoFCou: FMM=F IPFlag=           0 FMFlag=      100000 FMFlg1=           0
         NFxFlg=           0 DoJE=T BraDBF=F KetDBF=T FulRan=T
         wScrn=  0.000000 ICntrl=     500 IOpCl=  0 I1Cent=   200000004 NGrid=           0
         NMat0=    1 NMatS0=      1 NMatT0=    0 NMatD0=    1 NMtDS0=    0 NMtDT0=    0
 Symmetry not used in FoFCou.
 Harris En= -229.127256439585    
 JPrj=0 DoOrth=F DoCkMO=F.
 Leave Link  401 at Thu Dec 21 02:24:09 2017, MaxMem=  3489660928 cpu:         1.9
 (Enter /home/michal/g09/l502.exe)
 Closed shell SCF:
 Using DIIS extrapolation, IDIIS=  1040.
 Two-electron integral symmetry not used.
 Keep R1 ints in memory in canonical form, NReq=7943031.
 IVT=       44490 IEndB=       44490 NGot=  3489660928 MDV=  3482617028
 LenX=  3482617028 LenY=  3482608487
 Requested convergence on RMS density matrix=1.00D-08 within 128 cycles.
 Requested convergence on MAX density matrix=1.00D-06.
 Requested convergence on             energy=1.00D-06.
 No special actions if energy rises.
 FoFCou: FMM=F IPFlag=           0 FMFlag=           0 FMFlg1=           0
         NFxFlg=           0 DoJE=F BraDBF=F KetDBF=F FulRan=T
         wScrn=  0.000000 ICntrl=     600 IOpCl=  0 I1Cent=           0 NGrid=           0
         NMat0=    1 NMatS0=   3741 NMatT0=    0 NMatD0=    1 NMtDS0=    0 NMtDT0=    0
 Symmetry not used in FoFCou.

 Cycle   1  Pass 1  IDiag  1:
 E= -228.696020972560    
 DIIS: error= 3.69D-02 at cycle   1 NSaved=   1.
 NSaved= 1 IEnMin= 1 EnMin= -228.696020972560     IErMin= 1 ErrMin= 3.69D-02
 ErrMax= 3.69D-02  0.00D+00 EMaxC= 1.00D-01 BMatC= 2.03D-01 BMatP= 2.03D-01
 IDIUse=3 WtCom= 6.31D-01 WtEn= 3.69D-01
 Coeff-Com:  0.100D+01
 Coeff-En:   0.100D+01
 Coeff:      0.100D+01
 Gap=     0.693 Goal=   None    Shift=    0.000
 GapD=    0.693 DampG=2.000 DampE=0.500 DampFc=1.0000 IDamp=-1.
 RMSDP=4.88D-03 MaxDP=1.13D-01              OVMax= 1.23D-01

 Cycle   2  Pass 1  IDiag  1:
 E= -228.830454306053     Delta-E=       -0.134433333492 Rises=F Damp=F
 DIIS: error= 1.52D-02 at cycle   2 NSaved=   2.
 NSaved= 2 IEnMin= 2 EnMin= -228.830454306053     IErMin= 2 ErrMin= 1.52D-02
 ErrMax= 1.52D-02  0.00D+00 EMaxC= 1.00D-01 BMatC= 2.64D-02 BMatP= 2.03D-01
 IDIUse=3 WtCom= 8.48D-01 WtEn= 1.52D-01
 Coeff-Com:  0.213D+00 0.787D+00
 Coeff-En:   0.000D+00 0.100D+01
 Coeff:      0.181D+00 0.819D+00
 Gap=     0.721 Goal=   None    Shift=    0.000
 RMSDP=1.56D-03 MaxDP=3.05D-02 DE=-1.34D-01 OVMax= 3.60D-02

 Cycle   3  Pass 1  IDiag  1:
 E= -228.853193975797     Delta-E=       -0.022739669744 Rises=F Damp=F
 DIIS: error= 3.09D-03 at cycle   3 NSaved=   3.
 NSaved= 3 IEnMin= 3 EnMin= -228.853193975797     IErMin= 3 ErrMin= 3.09D-03
 ErrMax= 3.09D-03  0.00D+00 EMaxC= 1.00D-01 BMatC= 1.31D-03 BMatP= 2.64D-02
 IDIUse=3 WtCom= 9.69D-01 WtEn= 3.09D-02
 Coeff-Com: -0.213D-01 0.130D+00 0.892D+00
 Coeff-En:   0.000D+00 0.000D+00 0.100D+01
 Coeff:     -0.206D-01 0.126D+00 0.895D+00
 Gap=     0.614 Goal=   None    Shift=    0.000
 RMSDP=3.46D-04 MaxDP=6.15D-03 DE=-2.27D-02 OVMax= 7.74D-03

 Cycle   4  Pass 1  IDiag  1:
 E= -228.854399527222     Delta-E=       -0.001205551425 Rises=F Damp=F
 DIIS: error= 1.13D-03 at cycle   4 NSaved=   4.
 NSaved= 4 IEnMin= 4 EnMin= -228.854399527222     IErMin= 4 ErrMin= 1.13D-03
 ErrMax= 1.13D-03  0.00D+00 EMaxC= 1.00D-01 BMatC= 1.35D-04 BMatP= 1.31D-03
 IDIUse=3 WtCom= 9.89D-01 WtEn= 1.13D-02
 Coeff-Com: -0.125D-01 0.175D-01 0.298D+00 0.697D+00
 Coeff-En:   0.000D+00 0.000D+00 0.000D+00 0.100D+01
 Coeff:     -0.123D-01 0.173D-01 0.294D+00 0.701D+00
 Gap=     0.611 Goal=   None    Shift=    0.000
 RMSDP=9.56D-05 MaxDP=2.48D-03 DE=-1.21D-03 OVMax= 2.81D-03

 Cycle   5  Pass 1  IDiag  1:
 E= -228.854505581387     Delta-E=       -0.000106054165 Rises=F Damp=F
 DIIS: error= 2.91D-04 at cycle   5 NSaved=   5.
 NSaved= 5 IEnMin= 5 EnMin= -228.854505581387     IErMin= 5 ErrMin= 2.91D-04
 ErrMax= 2.91D-04  0.00D+00 EMaxC= 1.00D-01 BMatC= 7.48D-06 BMatP= 1.35D-04
 IDIUse=3 WtCom= 9.97D-01 WtEn= 2.91D-03
 Coeff-Com:  0.176D-02-0.170D-01-0.959D-01 0.477D-01 0.106D+01
 Coeff-En:   0.000D+00 0.000D+00 0.000D+00 0.000D+00 0.100D+01
 Coeff:      0.175D-02-0.169D-01-0.957D-01 0.475D-01 0.106D+01
 Gap=     0.611 Goal=   None    Shift=    0.000
 RMSDP=4.37D-05 MaxDP=5.78D-04 DE=-1.06D-04 OVMax= 1.44D-03

 Cycle   6  Pass 1  IDiag  1:
 E= -228.854517617896     Delta-E=       -0.000012036509 Rises=F Damp=F
 DIIS: error= 5.89D-05 at cycle   6 NSaved=   6.
 NSaved= 6 IEnMin= 6 EnMin= -228.854517617896     IErMin= 6 ErrMin= 5.89D-05
 ErrMax= 5.89D-05  0.00D+00 EMaxC= 1.00D-01 BMatC= 3.94D-07 BMatP= 7.48D-06
 IDIUse=1 WtCom= 1.00D+00 WtEn= 0.00D+00
 Coeff-Com:  0.777D-03-0.338D-02-0.252D-01-0.288D-01 0.146D+00 0.911D+00
 Coeff:      0.777D-03-0.338D-02-0.252D-01-0.288D-01 0.146D+00 0.911D+00
 Gap=     0.611 Goal=   None    Shift=    0.000
 RMSDP=9.59D-06 MaxDP=1.95D-04 DE=-1.20D-05 OVMax= 2.66D-04

 Cycle   7  Pass 1  IDiag  1:
 E= -228.854518223911     Delta-E=       -0.000000606016 Rises=F Damp=F
 DIIS: error= 1.68D-05 at cycle   7 NSaved=   7.
 NSaved= 7 IEnMin= 7 EnMin= -228.854518223911     IErMin= 7 ErrMin= 1.68D-05
 ErrMax= 1.68D-05  0.00D+00 EMaxC= 1.00D-01 BMatC= 4.29D-08 BMatP= 3.94D-07
 IDIUse=1 WtCom= 1.00D+00 WtEn= 0.00D+00
 Coeff-Com: -0.489D-04 0.121D-02 0.616D-02-0.992D-02-0.862D-01 0.910D-01
 Coeff-Com:  0.998D+00
 Coeff:     -0.489D-04 0.121D-02 0.616D-02-0.992D-02-0.862D-01 0.910D-01
 Coeff:      0.998D+00
 Gap=     0.611 Goal=   None    Shift=    0.000
 RMSDP=3.89D-06 MaxDP=5.53D-05 DE=-6.06D-07 OVMax= 1.06D-04

 Cycle   8  Pass 1  IDiag  1:
 E= -228.854518311449     Delta-E=       -0.000000087538 Rises=F Damp=F
 DIIS: error= 7.86D-06 at cycle   8 NSaved=   8.
 NSaved= 8 IEnMin= 8 EnMin= -228.854518311449     IErMin= 8 ErrMin= 7.86D-06
 ErrMax= 7.86D-06  0.00D+00 EMaxC= 1.00D-01 BMatC= 4.01D-09 BMatP= 4.29D-08
 IDIUse=1 WtCom= 1.00D+00 WtEn= 0.00D+00
 Coeff-Com: -0.602D-04 0.103D-03 0.127D-02 0.451D-02 0.403D-02-0.112D+00
 Coeff-Com: -0.168D+00 0.127D+01
 Coeff:     -0.602D-04 0.103D-03 0.127D-02 0.451D-02 0.403D-02-0.112D+00
 Coeff:     -0.168D+00 0.127D+01
 Gap=     0.611 Goal=   None    Shift=    0.000
 RMSDP=1.53D-06 MaxDP=3.12D-05 DE=-8.75D-08 OVMax= 5.06D-05

 Cycle   9  Pass 1  IDiag  1:
 E= -228.854518323883     Delta-E=       -0.000000012434 Rises=F Damp=F
 DIIS: error= 2.03D-06 at cycle   9 NSaved=   9.
 NSaved= 9 IEnMin= 9 EnMin= -228.854518323883     IErMin= 9 ErrMin= 2.03D-06
 ErrMax= 2.03D-06  0.00D+00 EMaxC= 1.00D-01 BMatC= 3.18D-10 BMatP= 4.01D-09
 IDIUse=1 WtCom= 1.00D+00 WtEn= 0.00D+00
 Coeff-Com:  0.187D-04-0.104D-03-0.792D-03-0.658D-03 0.604D-02 0.232D-01
 Coeff-Com: -0.311D-01-0.349D+00 0.135D+01
 Coeff:      0.187D-04-0.104D-03-0.792D-03-0.658D-03 0.604D-02 0.232D-01
 Coeff:     -0.311D-01-0.349D+00 0.135D+01
 Gap=     0.611 Goal=   None    Shift=    0.000
 RMSDP=4.92D-07 MaxDP=1.08D-05 DE=-1.24D-08 OVMax= 1.64D-05

 Cycle  10  Pass 1  IDiag  1:
 E= -228.854518324976     Delta-E=       -0.000000001093 Rises=F Damp=F
 DIIS: error= 7.35D-07 at cycle  10 NSaved=  10.
 NSaved=10 IEnMin=10 EnMin= -228.854518324976     IErMin=10 ErrMin= 7.35D-07
 ErrMax= 7.35D-07  0.00D+00 EMaxC= 1.00D-01 BMatC= 2.51D-11 BMatP= 3.18D-10
 IDIUse=1 WtCom= 1.00D+00 WtEn= 0.00D+00
 Coeff-Com:  0.572D-05-0.183D-04-0.174D-03-0.420D-03 0.408D-03 0.104D-01
 Coeff-Com:  0.938D-02-0.126D+00 0.129D+00 0.978D+00
 Coeff:      0.572D-05-0.183D-04-0.174D-03-0.420D-03 0.408D-03 0.104D-01
 Coeff:      0.938D-02-0.126D+00 0.129D+00 0.978D+00
 Gap=     0.611 Goal=   None    Shift=    0.000
 RMSDP=1.01D-07 MaxDP=2.12D-06 DE=-1.09D-09 OVMax= 3.42D-06

 Cycle  11  Pass 1  IDiag  1:
 E= -228.854518325042     Delta-E=       -0.000000000065 Rises=F Damp=F
 DIIS: error= 2.32D-07 at cycle  11 NSaved=  11.
 NSaved=11 IEnMin=11 EnMin= -228.854518325042     IErMin=11 ErrMin= 2.32D-07
 ErrMax= 2.32D-07  0.00D+00 EMaxC= 1.00D-01 BMatC= 3.53D-12 BMatP= 2.51D-11
 IDIUse=1 WtCom= 1.00D+00 WtEn= 0.00D+00
 Coeff-Com: -0.267D-05 0.139D-04 0.112D-03 0.139D-03-0.642D-03-0.499D-02
 Coeff-Com:  0.163D-02 0.668D-01-0.196D+00-0.138D+00 0.127D+01
 Coeff:     -0.267D-05 0.139D-04 0.112D-03 0.139D-03-0.642D-03-0.499D-02
 Coeff:      0.163D-02 0.668D-01-0.196D+00-0.138D+00 0.127D+01
 Gap=     0.611 Goal=   None    Shift=    0.000
 RMSDP=4.60D-08 MaxDP=7.93D-07 DE=-6.55D-11 OVMax= 1.50D-06

 Cycle  12  Pass 1  IDiag  1:
 E= -228.854518325050     Delta-E=       -0.000000000008 Rises=F Damp=F
 DIIS: error= 6.09D-08 at cycle  12 NSaved=  12.
 NSaved=12 IEnMin=12 EnMin= -228.854518325050     IErMin=12 ErrMin= 6.09D-08
 ErrMax= 6.09D-08  0.00D+00 EMaxC= 1.00D-01 BMatC= 2.52D-13 BMatP= 3.53D-12
 IDIUse=1 WtCom= 1.00D+00 WtEn= 0.00D+00
 Coeff-Com:  0.234D-08-0.134D-05-0.522D-05 0.138D-04 0.135D-03-0.314D-03
 Coeff-Com: -0.127D-02 0.254D-02 0.166D-01-0.634D-01-0.232D+00 0.128D+01
 Coeff:      0.234D-08-0.134D-05-0.522D-05 0.138D-04 0.135D-03-0.314D-03
 Coeff:     -0.127D-02 0.254D-02 0.166D-01-0.634D-01-0.232D+00 0.128D+01
 Gap=     0.611 Goal=   None    Shift=    0.000
 RMSDP=1.40D-08 MaxDP=2.59D-07 DE=-8.36D-12 OVMax= 4.40D-07

 Cycle  13  Pass 1  IDiag  1:
 E= -228.854518325051     Delta-E=       -0.000000000001 Rises=F Damp=F
 DIIS: error= 9.83D-09 at cycle  13 NSaved=  13.
 NSaved=13 IEnMin=13 EnMin= -228.854518325051     IErMin=13 ErrMin= 9.83D-09
 ErrMax= 9.83D-09  0.00D+00 EMaxC= 1.00D-01 BMatC= 1.37D-14 BMatP= 2.52D-13
 IDIUse=1 WtCom= 1.00D+00 WtEn= 0.00D+00
 Coeff-Com:  0.170D-06-0.598D-06-0.545D-05-0.146D-04 0.102D-04 0.360D-03
 Coeff-Com:  0.322D-03-0.473D-02 0.637D-02 0.285D-01-0.115D-01-0.355D+00
 Coeff-Com:  0.134D+01
 Coeff:      0.170D-06-0.598D-06-0.545D-05-0.146D-04 0.102D-04 0.360D-03
 Coeff:      0.322D-03-0.473D-02 0.637D-02 0.285D-01-0.115D-01-0.355D+00
 Coeff:      0.134D+01
 Gap=     0.611 Goal=   None    Shift=    0.000
 RMSDP=3.01D-09 MaxDP=4.72D-08 DE=-1.31D-12 OVMax= 9.03D-08

 SCF Done:  E(RHF) =  -228.854518325     A.U. after   13 cycles
            NFock= 13  Conv=0.30D-08     -V/T= 2.0014
 KE= 2.285434777640D+02 PE=-8.011755430445D+02 EE= 2.129528843342D+02
 Leave Link  502 at Thu Dec 21 02:24:09 2017, MaxMem=  3489660928 cpu:         3.6
 (Enter /home/michal/g09/l801.exe)
 Windowed orbitals will be sorted by symmetry type.
 ExpMin= 1.22D-01 ExpMax= 1.17D+04 ExpMxC= 4.01D+02 IAcc=3 IRadAn=         5 AccDes= 0.00D+00
 HarFok:  IExCor=  205 AccDes= 0.00D+00 IRadAn=         5 IDoV=-2 UseB2=F ITyADJ=14
 ICtDFT= 12500011 ScaDFX=  1.000000  1.000000  1.000000  1.000000
 Largest valence mixing into a core orbital is  1.06D-04
 Largest core mixing into a valence orbital is  4.32D-05
 Range of M.O.s used for correlation:     5    86
 NBasis=    86 NAE=    17 NBE=    17 NFC=     4 NFV=     0
 NROrb=     82 NOA=    13 NOB=    13 NVA=    69 NVB=    69
 Leave Link  801 at Thu Dec 21 02:24:09 2017, MaxMem=  3489660928 cpu:         0.7
 (Enter /home/michal/g09/l804.exe)
 Closed-shell transformation, MDV=  3489660928 ITran=4 ISComp=1.
 Semi-Direct transformation.
 ModeAB=           2 MOrb=            13 LenV=    3489332243
 LASXX=      3165006 LTotXX=     3165006 LenRXX=     3165006
 LTotAB=     3280537 MaxLAS=     4365270 LenRXY=     4365270
 NonZer=     6330012 LenScr=    10221568 LnRSAI=           0
 LnScr1=           0 LExtra=      494080 Total=     18245924
 MaxDsk=  2684354560 SrtSym=           F ITran=            4
 DoSDTr:  NPSUse= 12
 JobTyp=0 Pass  1:  I=   1 to  13.
 (rs|ai) integrals will be sorted in core.
 Complete sort for first half transformation.
 First half transformation complete.
 Begin second half transformation for I=  10.
 Begin second half transformation for I=  10.
 Complete sort for second half transformation.
 Second half transformation complete.
 Spin components of T(2) and E(2):
     alpha-alpha T2 =       0.2430858227D-01 E2=     -0.8147940816D-01
     alpha-beta  T2 =       0.1530132885D+00 E2=     -0.5073833998D+00
     beta-beta   T2 =       0.2430858227D-01 E2=     -0.8147940816D-01
 ANorm=    0.1096189059D+01
 E2 =    -0.6703422161D+00 EUMP2 =    -0.22952486054113D+03
 Leave Link  804 at Thu Dec 21 02:24:12 2017, MaxMem=  3489660928 cpu:        35.3
 (Enter /home/michal/g09/l913.exe)
 CIDS:  MDV=  3489660928.
 Frozen-core window:  NFC=   4 NFV=   0.
 IFCWin=0 IBDFC=1 NFBD=     0     0 NFCmp=     0     0 NFFFC=     0     0
 Using DD3R+UMP44R for 1st iteration, S=T.
 Using DD4RQ for 2nd and later iterations.
 Keep R2 and R3 ints in memory in canonical form, NReq=14820214.
 FoFCou: FMM=F IPFlag=           0 FMFlag=           0 FMFlg1=           0
         NFxFlg=           0 DoJE=F BraDBF=F KetDBF=F FulRan=T
         wScrn=  0.000000 ICntrl=     600 IOpCl=  0 I1Cent=           0 NGrid=           0
         NMat0=    1 NMatS0=   3741 NMatT0=    0 NMatD0=    1 NMtDS0=    0 NMtDT0=    0
 Symmetry not used in FoFCou.
 CCSD(T)
 =======
 Iterations=  50 Convergence= 0.100D-06
 Iteration Nr.   1
 **********************
 DD1Dir will call FoFMem   1 times, MxPair=       182
 NAB=    91 NAA=     0 NBB=     0.
 MP4(R+Q)=  0.12038469D-01
 Maximum subspace dimension=  5
 Norm of the A-vectors is  1.1222043D+00 conv= 1.00D-05.
 RLE energy=       -0.6889713627
 E3=       -0.30203364D-01        EUMP3=      -0.22955506391D+03
 E4(DQ)=   -0.49484106D-02        UMP4(DQ)=   -0.22956001232D+03
 E4(SDQ)=  -0.10284105D-01        UMP4(SDQ)=  -0.22956534801D+03
 VARIATIONAL ENERGIES WITH THE FIRST-ORDER WAVEFUNCTION:
 DE(Corr)= -0.68846765     E(Corr)=     -229.54298598    
 NORM(A)=   0.11042859D+01
 Iteration Nr.   2
 **********************
 DD1Dir will call FoFMem   1 times, MxPair=       182
 NAB=    91 NAA=     0 NBB=     0.
 Norm of the A-vectors is  3.6490959D-01 conv= 1.00D-05.
 RLE energy=       -0.7099115933
 DE(Corr)= -0.70688577     E(CORR)=     -229.56140410     Delta=-1.84D-02
 NORM(A)=   0.11130361D+01
 Iteration Nr.   3
 **********************
 DD1Dir will call FoFMem   1 times, MxPair=       182
 NAB=    91 NAA=     0 NBB=     0.
 Norm of the A-vectors is  1.0825578D-01 conv= 1.00D-05.
 RLE energy=       -0.7109663251
 DE(Corr)= -0.70954950     E(CORR)=     -229.56406783     Delta=-2.66D-03
 NORM(A)=   0.11147342D+01
 Iteration Nr.   4
 **********************
 DD1Dir will call FoFMem   1 times, MxPair=       182
 NAB=    91 NAA=     0 NBB=     0.
 Norm of the A-vectors is  3.7652760D-02 conv= 1.00D-05.
 RLE energy=       -0.7112034239
 DE(Corr)= -0.71108010     E(CORR)=     -229.56559842     Delta=-1.53D-03
 NORM(A)=   0.11151454D+01
 Iteration Nr.   5
 **********************
 DD1Dir will call FoFMem   1 times, MxPair=       182
 NAB=    91 NAA=     0 NBB=     0.
 Norm of the A-vectors is  1.0165441D-02 conv= 1.00D-05.
 RLE energy=       -0.7112587852
 DE(Corr)= -0.71122315     E(CORR)=     -229.56574148     Delta=-1.43D-04
 NORM(A)=   0.11152499D+01
 Iteration Nr.   6
 **********************
 DD1Dir will call FoFMem   1 times, MxPair=       182
 NAB=    91 NAA=     0 NBB=     0.
 Norm of the A-vectors is  4.1810064D-03 conv= 1.00D-05.
 RLE energy=       -0.7112267780
 DE(Corr)= -0.71124225     E(CORR)=     -229.56576057     Delta=-1.91D-05
 NORM(A)=   0.11152541D+01
 Iteration Nr.   7
 **********************
 DD1Dir will call FoFMem   1 times, MxPair=       182
 NAB=    91 NAA=     0 NBB=     0.
 Norm of the A-vectors is  1.6772503D-03 conv= 1.00D-05.
 RLE energy=       -0.7112371243
 DE(Corr)= -0.71124238     E(CORR)=     -229.56576070     Delta=-1.33D-07
 NORM(A)=   0.11152606D+01
 Iteration Nr.   8
 **********************
 DD1Dir will call FoFMem   1 times, MxPair=       182
 NAB=    91 NAA=     0 NBB=     0.
 Norm of the A-vectors is  6.3829371D-04 conv= 1.00D-05.
 RLE energy=       -0.7112385894
 DE(Corr)= -0.71123951     E(CORR)=     -229.56575783     Delta= 2.87D-06
 NORM(A)=   0.11152627D+01
 Iteration Nr.   9
 **********************
 DD1Dir will call FoFMem   1 times, MxPair=       182
 NAB=    91 NAA=     0 NBB=     0.
 Norm of the A-vectors is  2.5514946D-04 conv= 1.00D-05.
 RLE energy=       -0.7112405689
 DE(Corr)= -0.71124078     E(CORR)=     -229.56575910     Delta=-1.27D-06
 NORM(A)=   0.11152637D+01
 Iteration Nr.  10
 **********************
 DD1Dir will call FoFMem   1 times, MxPair=       182
 NAB=    91 NAA=     0 NBB=     0.
 Norm of the A-vectors is  1.0186482D-04 conv= 1.00D-05.
 RLE energy=       -0.7112414549
 DE(Corr)= -0.71124120     E(CORR)=     -229.56575953     Delta=-4.29D-07
 NORM(A)=   0.11152644D+01
 Iteration Nr.  11
 **********************
 DD1Dir will call FoFMem   1 times, MxPair=       182
 NAB=    91 NAA=     0 NBB=     0.
 Norm of the A-vectors is  3.8045207D-05 conv= 1.00D-05.
 RLE energy=       -0.7112416723
 DE(Corr)= -0.71124157     E(CORR)=     -229.56575989     Delta=-3.65D-07
 NORM(A)=   0.11152647D+01
 Iteration Nr.  12
 **********************
 DD1Dir will call FoFMem   1 times, MxPair=       182
 NAB=    91 NAA=     0 NBB=     0.
 Norm of the A-vectors is  1.6749868D-05 conv= 1.00D-05.
 RLE energy=       -0.7112417995
 DE(Corr)= -0.71124174     E(CORR)=     -229.56576006     Delta=-1.70D-07
 NORM(A)=   0.11152648D+01
 Iteration Nr.  13
 **********************
 DD1Dir will call FoFMem   1 times, MxPair=       182
 NAB=    91 NAA=     0 NBB=     0.
 Norm of the A-vectors is  7.2479931D-06 conv= 1.00D-05.
 RLE energy=       -0.7112418177
 DE(Corr)= -0.71124180     E(CORR)=     -229.56576012     Delta=-5.76D-08
 NORM(A)=   0.11152648D+01
 CI/CC converged in   13 iterations to DelEn=-5.76D-08 Conv= 1.00D-07 ErrA1= 7.25D-06 Conv= 1.00D-05
 Largest amplitude= 2.52D-02
 T4(AAA)= -0.44055956D-03
 T4(AAB)= -0.97083474D-02
 T5(AAA)=  0.23455899D-04
 T5(AAB)=  0.33599866D-03
 Time for triples=      118.98 seconds.
 T4(CCSD)= -0.20297814D-01
 T5(CCSD)=  0.71890912D-03
 CCSD(T)= -0.22958533903D+03
 Discarding MO integrals.
 Leave Link  913 at Thu Dec 21 02:25:04 2017, MaxMem=  3489660928 cpu:       615.0
 (Enter /home/michal/g09/l601.exe)
 Copying SCF densities to generalized density rwf, IOpCl= 0 IROHF=0.

 **********************************************************************

            Population analysis using the SCF density.

 **********************************************************************

 Alpha  occ. eigenvalues --  -20.61667 -20.61630 -11.28463 -11.23186  -1.46196
 Alpha  occ. eigenvalues --   -1.22668  -1.00095  -0.83744  -0.69359  -0.67172
 Alpha  occ. eigenvalues --   -0.65033  -0.57428  -0.54256  -0.53226  -0.49979
 Alpha  occ. eigenvalues --   -0.49516  -0.42696
 Alpha virt. eigenvalues --    0.18445   0.19802   0.23714   0.24594   0.25627
 Alpha virt. eigenvalues --    0.28080   0.29148   0.36484   0.40010   0.59621
 Alpha virt. eigenvalues --    0.61880   0.67688   0.75608   0.76148   0.82122
 Alpha virt. eigenvalues --    0.84081   0.86286   0.87744   0.88338   0.88630
 Alpha virt. eigenvalues --    0.92356   1.09205   1.12095   1.12742   1.18281
 Alpha virt. eigenvalues --    1.23793   1.28547   1.37028   1.42168   1.45211
 Alpha virt. eigenvalues --    1.45373   1.53207   1.55042   1.61315   1.67457
 Alpha virt. eigenvalues --    1.78129   1.84623   1.85660   1.88137   1.90570
 Alpha virt. eigenvalues --    1.91459   1.95347   1.96621   1.98209   2.05726
 Alpha virt. eigenvalues --    2.12177   2.19763   2.23616   2.29898   2.36601
 Alpha virt. eigenvalues --    2.42578   2.49236   2.50577   2.53510   2.62478
 Alpha virt. eigenvalues --    2.71853   2.73465   2.76232   2.82196   2.90613
 Alpha virt. eigenvalues --    2.91015   3.07455   3.26557   3.35936   3.37798
 Alpha virt. eigenvalues --    3.51551   3.58481   3.96020   4.23124
          Condensed to atoms (all electrons):
               1          2          3          4          5          6
     1  C    4.540411   0.426789  -0.037323   0.004242  -0.000583   0.403252
     2  C    0.426789   4.420828   0.262615  -0.053967   0.002612  -0.027922
     3  O   -0.037323   0.262615   8.063576   0.114981  -0.022025   0.002766
     4  O    0.004242  -0.053967   0.114981   7.772856   0.346997  -0.000190
     5  H   -0.000583   0.002612  -0.022025   0.346997   0.476703   0.000027
     6  H    0.403252  -0.027922   0.002766  -0.000190   0.000027   0.622984
     7  H   -0.027252   0.408350  -0.032216   0.003242   0.000295   0.007588
     8  H   -0.027251   0.408351  -0.032216   0.003242   0.000295  -0.008674
     9  H    0.401101  -0.025121   0.002560  -0.000117   0.000015  -0.020858
    10  H    0.403252  -0.027921   0.002766  -0.000190   0.000027  -0.027288
               7          8          9         10
     1  C   -0.027252  -0.027251   0.401101   0.403252
     2  C    0.408350   0.408351  -0.025121  -0.027921
     3  O   -0.032216  -0.032216   0.002560   0.002766
     4  O    0.003242   0.003242  -0.000117  -0.000190
     5  H    0.000295   0.000295   0.000015   0.000027
     6  H    0.007588  -0.008674  -0.020858  -0.027288
     7  H    0.661610  -0.044583  -0.001849  -0.008674
     8  H   -0.044583   0.661608  -0.001849   0.007588
     9  H   -0.001849  -0.001849   0.628394  -0.020858
    10  H   -0.008674   0.007588  -0.020858   0.622982
 Mulliken charges:
               1
     1  C   -0.086637
     2  C    0.205386
     3  O   -0.325484
     4  O   -0.191096
     5  H    0.195639
     6  H    0.048316
     7  H    0.033488
     8  H    0.033489
     9  H    0.038583
    10  H    0.048317
 Sum of Mulliken charges =   0.00000
 Mulliken charges with hydrogens summed into heavy atoms:
               1
     1  C    0.048578
     2  C    0.272363
     3  O   -0.325484
     4  O    0.004543
 Electronic spatial extent (au):  <R**2>=            759.2282
 Charge=              0.0000 electrons
 Dipole moment (field-independent basis, Debye):
    X=             -0.0326    Y=             -0.0113    Z=             -0.3994  Tot=              0.4008
 Quadrupole moment (field-independent basis, Debye-Ang):
   XX=            -21.3513   YY=            -25.1836   ZZ=            -25.6574
   XY=              0.2415   XZ=              3.3253   YZ=              0.1289
 Traceless Quadrupole moment (field-independent basis, Debye-Ang):
   XX=              2.7128   YY=             -1.1195   ZZ=             -1.5933
   XY=              0.2415   XZ=              3.3253   YZ=              0.1289
 Octapole moment (field-independent basis, Debye-Ang**2):
  XXX=            -30.7692  YYY=             -4.2345  ZZZ=           -118.3062  XYY=            -15.1290
  XXY=             -0.3429  XXZ=            -21.5799  XZZ=              4.9030  YZZ=             -0.4277
  YYZ=            -41.4301  XYZ=              1.2886
 Hexadecapole moment (field-independent basis, Debye-Ang**3):
 XXXX=           -116.6792 YYYY=            -36.7337 ZZZZ=           -641.7877 XXXY=             -1.9154
 XXXZ=            -60.0705 YYYX=             -5.3859 YYYZ=            -12.2623 ZZZX=            -33.0309
 ZZZY=             -7.1698 XXYY=            -32.9834 XXZZ=            -56.5432 YYZZ=           -120.7404
 XXYZ=              0.7133 YYXZ=            -42.9434 ZZXY=              3.9350
 N-N= 1.308246626212D+02 E-N=-8.011755429796D+02  KE= 2.285434777640D+02
 Leave Link  601 at Thu Dec 21 02:25:04 2017, MaxMem=  3489660928 cpu:         0.2
 (Enter /home/michal/g09/l9999.exe)
 1\1\GINC-LINUX\SP\RCCSD(T)-FC\CC-pVDZ\C2H6O2\MICHAL\21-Dec-2017\0\\#P 
 CCSD(T)/cc-pVDZ SP Nosymm\\PEscan\\0,1\C,0,0.02793,-0.00824,0.02355\C,
 0,0.00523,0.02892,1.54284\O,0,1.36004,0.09478,1.95229\O,0,1.28212,0.12
 834,3.41846\H,0,2.23697,0.1718,3.58899\H,0,0.58305,-0.88976,-0.33351\H
 ,0,-0.54345,0.91326,1.91708\H,0,-0.46996,-0.87754,1.96199\H,0,-1.00178
 ,-0.06022,-0.36445\H,0,0.50975,0.8968,-0.37831\\Version=EM64L-G09RevD.
 01\HF=-228.8545183\MP2=-229.5248605\MP3=-229.5550639\MP4D=-229.5720508
 \MP4DQ=-229.5600123\MP4SDQ=-229.565348\CCSD=-229.5657601\CCSD(T)=-229.
 585339\RMSD=3.009e-09\PG=C01 [X(C2H6O2)]\\@


 CLIMB THE MOUNTAINS AND GET THEIR GOOD TIDINGS.
 NATURE'S PEACE WILL FLOW INTO YOU AS SUNSHINE FLOWS INTO TREES.
 THE WINDS WILL BLOW THEIR OWN FRESHNESS INTO YOU, 
 AND CARES WILL DROP OFF LIKE AUTUMN LEAVES.

                                         -- JOHN MUIR
 Job cpu time:       0 days  0 hours 10 minutes 59.9 seconds.
 File lengths (MBytes):  RWF=    699 Int=      0 D2E=      0 Chk=      1 Scr=      1
 Normal termination of Gaussian 09 at Thu Dec 21 02:25:04 2017.
