 Entering Gaussian System, Link 0=g09
 Input=1HPP_mp2qz_007.com
 Output=1HPP_mp2qz_007.log
 Initial command:
 /home/michal/g09/l1.exe "/home/michal/gauss_scratch/Gau-28926.inp" -scrdir="/home/michal/gauss_scratch/"
 Entering Link 1 = /home/michal/g09/l1.exe PID=     28927.
  
 Copyright (c) 1988,1990,1992,1993,1995,1998,2003,2009,2013,
            Gaussian, Inc.  All Rights Reserved.
  
 This is part of the Gaussian(R) 09 program.  It is based on
 the Gaussian(R) 03 system (copyright 2003, Gaussian, Inc.),
 the Gaussian(R) 98 system (copyright 1998, Gaussian, Inc.),
 the Gaussian(R) 94 system (copyright 1995, Gaussian, Inc.),
 the Gaussian 92(TM) system (copyright 1992, Gaussian, Inc.),
 the Gaussian 90(TM) system (copyright 1990, Gaussian, Inc.),
 the Gaussian 88(TM) system (copyright 1988, Gaussian, Inc.),
 the Gaussian 86(TM) system (copyright 1986, Carnegie Mellon
 University), and the Gaussian 82(TM) system (copyright 1983,
 Carnegie Mellon University). Gaussian is a federally registered
 trademark of Gaussian, Inc.
  
 This software contains proprietary and confidential information,
 including trade secrets, belonging to Gaussian, Inc.
  
 This software is provided under written license and may be
 used, copied, transmitted, or stored only in accord with that
 written license.
  
 The following legend is applicable only to US Government
 contracts under FAR:
  
                    RESTRICTED RIGHTS LEGEND
  
 Use, reproduction and disclosure by the US Government is
 subject to restrictions as set forth in subparagraphs (a)
 and (c) of the Commercial Computer Software - Restricted
 Rights clause in FAR 52.227-19.
  
 Gaussian, Inc.
 340 Quinnipiac St., Bldg. 40, Wallingford CT 06492
  
  
 ---------------------------------------------------------------
 Warning -- This program may not be used in any manner that
 competes with the business of Gaussian, Inc. or will provide
 assistance to any competitor of Gaussian, Inc.  The licensee
 of this program is prohibited from giving any competitor of
 Gaussian, Inc. access to this program.  By using this program,
 the user acknowledges that Gaussian, Inc. is engaged in the
 business of creating and licensing software in the field of
 computational chemistry and represents and warrants to the
 licensee that it is not a competitor of Gaussian, Inc. and that
 it will not use this program in any manner prohibited above.
 ---------------------------------------------------------------
  

 Cite this work as:
 Gaussian 09, Revision D.01,
 M. J. Frisch, G. W. Trucks, H. B. Schlegel, G. E. Scuseria, 
 M. A. Robb, J. R. Cheeseman, G. Scalmani, V. Barone, B. Mennucci, 
 G. A. Petersson, H. Nakatsuji, M. Caricato, X. Li, H. P. Hratchian, 
 A. F. Izmaylov, J. Bloino, G. Zheng, J. L. Sonnenberg, M. Hada, 
 M. Ehara, K. Toyota, R. Fukuda, J. Hasegawa, M. Ishida, T. Nakajima, 
 Y. Honda, O. Kitao, H. Nakai, T. Vreven, J. A. Montgomery, Jr., 
 J. E. Peralta, F. Ogliaro, M. Bearpark, J. J. Heyd, E. Brothers, 
 K. N. Kudin, V. N. Staroverov, T. Keith, R. Kobayashi, J. Normand, 
 K. Raghavachari, A. Rendell, J. C. Burant, S. S. Iyengar, J. Tomasi, 
 M. Cossi, N. Rega, J. M. Millam, M. Klene, J. E. Knox, J. B. Cross, 
 V. Bakken, C. Adamo, J. Jaramillo, R. Gomperts, R. E. Stratmann, 
 O. Yazyev, A. J. Austin, R. Cammi, C. Pomelli, J. W. Ochterski, 
 R. L. Martin, K. Morokuma, V. G. Zakrzewski, G. A. Voth, 
 P. Salvador, J. J. Dannenberg, S. Dapprich, A. D. Daniels, 
 O. Farkas, J. B. Foresman, J. V. Ortiz, J. Cioslowski, 
 and D. J. Fox, Gaussian, Inc., Wallingford CT, 2013.
 
 ******************************************
 Gaussian 09:  EM64L-G09RevD.01 24-Apr-2013
                20-Dec-2017 
 ******************************************
 %Mem=26GB
 %NProc=12
 Will use up to   12 processors via shared memory.
 %RWF=/home/michal/Cholesterol_grant/peroxy_params,20GB
 ------------------------
 #P MP2/cc-pVQZ SP Nosymm
 ------------------------
 1/38=1/1;
 2/12=2,15=1,17=6,18=5,40=1/2;
 3/5=16,6=2,11=9,16=1,25=1,30=1/1,2,3;
 4//1;
 5/5=2,38=5/2;
 8/10=1/1;
 9/16=-3/6;
 6/7=2,8=2,9=2,10=2/1;
 99/5=1,9=1/99;
 Leave Link    1 at Wed Dec 20 23:14:58 2017, MaxMem=  3489660928 cpu:         0.3
 (Enter /home/michal/g09/l101.exe)
 ------
 PEscan
 ------
 Symbolic Z-matrix:
 Charge =  0 Multiplicity = 1
 C                     0.02547   0.00436   0.03257 
 C                     0.04542  -0.00915   1.55265 
 O                     1.41536  -0.09013   1.92184 
 O                     1.42331  -0.17983   3.37869 
 H                     1.93978   0.62167   3.567 
 H                     0.48252  -0.91469  -0.36591 
 H                    -0.40944   0.90882   1.97153 
 H                    -0.5035   -0.88042   1.95389 
 H                    -1.01362   0.06713  -0.32804 
 H                     0.5846    0.87039  -0.35531 
 
 NAtoms=     10 NQM=       10 NQMF=       0 NMMI=      0 NMMIF=      0
                NMic=       0 NMicF=      0.
                    Isotopes and Nuclear Properties:
 (Nuclear quadrupole moments (NQMom) in fm**2, nuclear magnetic moments (NMagM)
  in nuclear magnetons)

  Atom         1           2           3           4           5           6           7           8           9          10
 IAtWgt=          12          12          16          16           1           1           1           1           1           1
 AtmWgt=  12.0000000  12.0000000  15.9949146  15.9949146   1.0078250   1.0078250   1.0078250   1.0078250   1.0078250   1.0078250
 NucSpn=           0           0           0           0           1           1           1           1           1           1
 AtZEff=   0.0000000   0.0000000   0.0000000   0.0000000   0.0000000   0.0000000   0.0000000   0.0000000   0.0000000   0.0000000
 NQMom=    0.0000000   0.0000000   0.0000000   0.0000000   0.0000000   0.0000000   0.0000000   0.0000000   0.0000000   0.0000000
 NMagM=    0.0000000   0.0000000   0.0000000   0.0000000   2.7928460   2.7928460   2.7928460   2.7928460   2.7928460   2.7928460
 AtZNuc=   6.0000000   6.0000000   8.0000000   8.0000000   1.0000000   1.0000000   1.0000000   1.0000000   1.0000000   1.0000000
 Leave Link  101 at Wed Dec 20 23:14:58 2017, MaxMem=  3489660928 cpu:         0.5
 (Enter /home/michal/g09/l202.exe)
                          Input orientation:                          
 ---------------------------------------------------------------------
 Center     Atomic      Atomic             Coordinates (Angstroms)
 Number     Number       Type             X           Y           Z
 ---------------------------------------------------------------------
      1          6           0        0.025470    0.004360    0.032570
      2          6           0        0.045420   -0.009150    1.552650
      3          8           0        1.415360   -0.090130    1.921840
      4          8           0        1.423310   -0.179830    3.378690
      5          1           0        1.939780    0.621670    3.567000
      6          1           0        0.482520   -0.914690   -0.365910
      7          1           0       -0.409440    0.908820    1.971530
      8          1           0       -0.503500   -0.880420    1.953890
      9          1           0       -1.013620    0.067130   -0.328040
     10          1           0        0.584600    0.870390   -0.355310
 ---------------------------------------------------------------------
                    Distance matrix (angstroms):
                    1          2          3          4          5
     1  C    0.000000
     2  C    1.520271   0.000000
     3  O    2.347352   1.421124   0.000000
     4  O    3.631033   2.293934   1.459631   0.000000
     5  H    4.066676   2.836219   1.867680   0.971907   0.000000
     6  H    1.101060   2.166087   2.604590   3.930284   4.466743
     7  H    2.183291   1.106809   2.080929   2.554257   2.854262
     8  H    2.180393   1.105178   2.075478   2.496693   3.290595
     9  H    1.101675   2.159717   3.314609   4.442912   4.919494
    10  H    1.101401   2.169013   2.607331   3.968520   4.157270
                    6          7          8          9         10
     6  H    0.000000
     7  H    3.095869   0.000000
     8  H    2.520889   1.791797   0.000000
     9  H    1.789927   2.522201   2.522950   0.000000
    10  H    1.788028   2.530568   3.095432   1.788932   0.000000
 Symmetry turned off by external request.
 Stoichiometry    C2H6O2
 Framework group  C1[X(C2H6O2)]
 Deg. of freedom    24
 Full point group                 C1      NOp   1
 Rotational constants (GHZ):     30.5744922      4.1755091      3.8933654
 Leave Link  202 at Wed Dec 20 23:14:58 2017, MaxMem=  3489660928 cpu:         0.0
 (Enter /home/michal/g09/l301.exe)
 Standard basis: CC-pVQZ (5D, 7F)
 Ernie: Thresh=  0.10000D-02 Tol=  0.10000D-05 Strict=F.
 Ernie:  12 primitive shells out of 204 were deleted.
   400 basis functions,   578 primitive gaussians,   490 cartesian basis functions
    17 alpha electrons       17 beta electrons
       nuclear repulsion energy       130.8320230717 Hartrees.
 IExCor=    0 DFT=F Ex=HF Corr=None ExCW=0 ScaHFX=  1.000000
 ScaDFX=  1.000000  1.000000  1.000000  1.000000 ScalE2=  1.000000  1.000000
 IRadAn=      0 IRanWt=     -1 IRanGd=            0 ICorTp=0 IEmpDi=  4
 NAtoms=   10 NActive=   10 NUniq=   10 SFac= 1.00D+00 NAtFMM=   60 NAOKFM=F Big=F
 Integral buffers will be    131072 words long.
 Raffenetti 1 integral format.
 Two-electron integral symmetry is turned off.
 Leave Link  301 at Wed Dec 20 23:14:58 2017, MaxMem=  3489660928 cpu:         0.3
 (Enter /home/michal/g09/l302.exe)
 NPDir=0 NMtPBC=     1 NCelOv=     1 NCel=       1 NClECP=     1 NCelD=      1
         NCelK=      1 NCelE2=     1 NClLst=     1 CellRange=     0.0.
 One-electron integrals computed using PRISM.
 NBasis=   400 RedAO= T EigKep=  1.38D-04  NBF=   400
 NBsUse=   400 1.00D-06 EigRej= -1.00D+00 NBFU=   400
 Leave Link  302 at Wed Dec 20 23:14:58 2017, MaxMem=  3489660928 cpu:         6.1
 (Enter /home/michal/g09/l303.exe)
 DipDrv:  MaxL=1.
 Leave Link  303 at Wed Dec 20 23:14:58 2017, MaxMem=  3489660928 cpu:         0.5
 (Enter /home/michal/g09/l401.exe)
 ExpMin= 8.99D-02 ExpMax= 6.14D+04 ExpMxC= 5.91D+02 IAcc=2 IRadAn=         4 AccDes= 0.00D+00
 Harris functional with IExCor=  205 and IRadAn=       4 diagonalized for initial guess.
 HarFok:  IExCor=  205 AccDes= 0.00D+00 IRadAn=         4 IDoV= 1 UseB2=F ITyADJ=14
 ICtDFT=  3500011 ScaDFX=  1.000000  1.000000  1.000000  1.000000
 FoFCou: FMM=F IPFlag=           0 FMFlag=      100000 FMFlg1=           0
         NFxFlg=           0 DoJE=T BraDBF=F KetDBF=T FulRan=T
         wScrn=  0.000000 ICntrl=     500 IOpCl=  0 I1Cent=   200000004 NGrid=           0
         NMat0=    1 NMatS0=      1 NMatT0=    0 NMatD0=    1 NMtDS0=    0 NMtDT0=    0
 Symmetry not used in FoFCou.
 Harris En= -229.245911107184    
 JPrj=0 DoOrth=F DoCkMO=F.
 Leave Link  401 at Wed Dec 20 23:15:00 2017, MaxMem=  3489660928 cpu:        15.9
 (Enter /home/michal/g09/l502.exe)
 Closed shell SCF:
 Using DIIS extrapolation, IDIIS=  1040.
 Two-electron integral symmetry not used.
 Keep R1 ints in memory in canonical form, NReq=3275992930.
 IVT=      747690 IEndB=      747690 NGot=  3489660928 MDV=   272853139
 LenX=   272853139 LenY=   272612549
 Requested convergence on RMS density matrix=1.00D-08 within 128 cycles.
 Requested convergence on MAX density matrix=1.00D-06.
 Requested convergence on             energy=1.00D-06.
 No special actions if energy rises.
 FoFCou: FMM=F IPFlag=           0 FMFlag=           0 FMFlg1=           0
         NFxFlg=           0 DoJE=F BraDBF=F KetDBF=F FulRan=T
         wScrn=  0.000000 ICntrl=     600 IOpCl=  0 I1Cent=           0 NGrid=           0
         NMat0=    1 NMatS0=  80200 NMatT0=    0 NMatD0=    1 NMtDS0=    0 NMtDT0=    0
 Symmetry not used in FoFCou.

 Cycle   1  Pass 1  IDiag  1:
 E= -228.745253228062    
 DIIS: error= 3.67D-02 at cycle   1 NSaved=   1.
 NSaved= 1 IEnMin= 1 EnMin= -228.745253228062     IErMin= 1 ErrMin= 3.67D-02
 ErrMax= 3.67D-02  0.00D+00 EMaxC= 1.00D-01 BMatC= 4.77D-01 BMatP= 4.77D-01
 IDIUse=3 WtCom= 6.33D-01 WtEn= 3.67D-01
 Coeff-Com:  0.100D+01
 Coeff-En:   0.100D+01
 Coeff:      0.100D+01
 Gap=     0.705 Goal=   None    Shift=    0.000
 GapD=    0.705 DampG=2.000 DampE=0.500 DampFc=1.0000 IDamp=-1.
 RMSDP=7.67D-04 MaxDP=3.92D-02              OVMax= 1.23D-01

 Cycle   2  Pass 1  IDiag  1:
 E= -228.914660203445     Delta-E=       -0.169406975384 Rises=F Damp=F
 DIIS: error= 1.17D-02 at cycle   2 NSaved=   2.
 NSaved= 2 IEnMin= 2 EnMin= -228.914660203445     IErMin= 2 ErrMin= 1.17D-02
 ErrMax= 1.17D-02  0.00D+00 EMaxC= 1.00D-01 BMatC= 3.54D-02 BMatP= 4.77D-01
 IDIUse=3 WtCom= 8.83D-01 WtEn= 1.17D-01
 Coeff-Com:  0.122D+00 0.878D+00
 Coeff-En:   0.000D+00 0.100D+01
 Coeff:      0.107D+00 0.893D+00
 Gap=     0.658 Goal=   None    Shift=    0.000
 RMSDP=3.40D-04 MaxDP=1.82D-02 DE=-1.69D-01 OVMax= 4.44D-02

 Cycle   3  Pass 1  IDiag  1:
 E= -228.940475217376     Delta-E=       -0.025815013931 Rises=F Damp=F
 DIIS: error= 4.02D-03 at cycle   3 NSaved=   3.
 NSaved= 3 IEnMin= 3 EnMin= -228.940475217376     IErMin= 3 ErrMin= 4.02D-03
 ErrMax= 4.02D-03  0.00D+00 EMaxC= 1.00D-01 BMatC= 3.73D-03 BMatP= 3.54D-02
 IDIUse=3 WtCom= 9.60D-01 WtEn= 4.02D-02
 Coeff-Com: -0.209D-01 0.211D+00 0.810D+00
 Coeff-En:   0.000D+00 0.000D+00 0.100D+01
 Coeff:     -0.200D-01 0.203D+00 0.817D+00
 Gap=     0.561 Goal=   None    Shift=    0.000
 RMSDP=7.27D-05 MaxDP=4.43D-03 DE=-2.58D-02 OVMax= 1.20D-02

 Cycle   4  Pass 1  IDiag  1:
 E= -228.943473451228     Delta-E=       -0.002998233852 Rises=F Damp=F
 DIIS: error= 6.31D-04 at cycle   4 NSaved=   4.
 NSaved= 4 IEnMin= 4 EnMin= -228.943473451228     IErMin= 4 ErrMin= 6.31D-04
 ErrMax= 6.31D-04  0.00D+00 EMaxC= 1.00D-01 BMatC= 1.79D-04 BMatP= 3.73D-03
 IDIUse=3 WtCom= 9.94D-01 WtEn= 6.31D-03
 Coeff-Com: -0.811D-02 0.423D-01 0.240D+00 0.726D+00
 Coeff-En:   0.000D+00 0.000D+00 0.000D+00 0.100D+01
 Coeff:     -0.806D-02 0.420D-01 0.239D+00 0.727D+00
 Gap=     0.557 Goal=   None    Shift=    0.000
 RMSDP=2.03D-05 MaxDP=1.19D-03 DE=-3.00D-03 OVMax= 3.07D-03

 Cycle   5  Pass 1  IDiag  1:
 E= -228.943601437396     Delta-E=       -0.000127986168 Rises=F Damp=F
 DIIS: error= 2.90D-04 at cycle   5 NSaved=   5.
 NSaved= 5 IEnMin= 5 EnMin= -228.943601437396     IErMin= 5 ErrMin= 2.90D-04
 ErrMax= 2.90D-04  0.00D+00 EMaxC= 1.00D-01 BMatC= 1.76D-05 BMatP= 1.79D-04
 IDIUse=3 WtCom= 9.97D-01 WtEn= 2.90D-03
 Coeff-Com:  0.189D-02-0.268D-01-0.883D-01 0.127D+00 0.986D+00
 Coeff-En:   0.000D+00 0.000D+00 0.000D+00 0.000D+00 0.100D+01
 Coeff:      0.188D-02-0.267D-01-0.880D-01 0.126D+00 0.986D+00
 Gap=     0.558 Goal=   None    Shift=    0.000
 RMSDP=1.17D-05 MaxDP=5.21D-04 DE=-1.28D-04 OVMax= 1.76D-03

 Cycle   6  Pass 1  IDiag  1:
 E= -228.943625196645     Delta-E=       -0.000023759249 Rises=F Damp=F
 DIIS: error= 6.74D-05 at cycle   6 NSaved=   6.
 NSaved= 6 IEnMin= 6 EnMin= -228.943625196645     IErMin= 6 ErrMin= 6.74D-05
 ErrMax= 6.74D-05  0.00D+00 EMaxC= 1.00D-01 BMatC= 7.61D-07 BMatP= 1.76D-05
 IDIUse=1 WtCom= 1.00D+00 WtEn= 0.00D+00
 Coeff-Com:  0.612D-03-0.474D-02-0.188D-01-0.433D-01 0.604D-01 0.101D+01
 Coeff:      0.612D-03-0.474D-02-0.188D-01-0.433D-01 0.604D-01 0.101D+01
 Gap=     0.558 Goal=   None    Shift=    0.000
 RMSDP=3.15D-06 MaxDP=1.89D-04 DE=-2.38D-05 OVMax= 3.36D-04

 Cycle   7  Pass 1  IDiag  1:
 E= -228.943626551720     Delta-E=       -0.000001355075 Rises=F Damp=F
 DIIS: error= 1.51D-05 at cycle   7 NSaved=   7.
 NSaved= 7 IEnMin= 7 EnMin= -228.943626551720     IErMin= 7 ErrMin= 1.51D-05
 ErrMax= 1.51D-05  0.00D+00 EMaxC= 1.00D-01 BMatC= 7.23D-08 BMatP= 7.61D-07
 IDIUse=1 WtCom= 1.00D+00 WtEn= 0.00D+00
 Coeff-Com: -0.151D-04 0.941D-03 0.282D-02-0.146D-01-0.567D-01 0.121D+00
 Coeff-Com:  0.947D+00
 Coeff:     -0.151D-04 0.941D-03 0.282D-02-0.146D-01-0.567D-01 0.121D+00
 Coeff:      0.947D+00
 Gap=     0.558 Goal=   None    Shift=    0.000
 RMSDP=8.05D-07 MaxDP=3.82D-05 DE=-1.36D-06 OVMax= 1.20D-04

 Cycle   8  Pass 1  IDiag  1:
 E= -228.943626685569     Delta-E=       -0.000000133849 Rises=F Damp=F
 DIIS: error= 3.98D-06 at cycle   8 NSaved=   8.
 NSaved= 8 IEnMin= 8 EnMin= -228.943626685569     IErMin= 8 ErrMin= 3.98D-06
 ErrMax= 3.98D-06  0.00D+00 EMaxC= 1.00D-01 BMatC= 1.09D-08 BMatP= 7.23D-08
 IDIUse=1 WtCom= 1.00D+00 WtEn= 0.00D+00
 Coeff-Com: -0.761D-04 0.611D-03 0.246D-02 0.690D-02-0.675D-02-0.146D+00
 Coeff-Com:  0.327D-01 0.111D+01
 Coeff:     -0.761D-04 0.611D-03 0.246D-02 0.690D-02-0.675D-02-0.146D+00
 Coeff:      0.327D-01 0.111D+01
 Gap=     0.558 Goal=   None    Shift=    0.000
 RMSDP=3.98D-07 MaxDP=1.44D-05 DE=-1.34D-07 OVMax= 8.22D-05

 Cycle   9  Pass 1  IDiag  1:
 E= -228.943626713099     Delta-E=       -0.000000027530 Rises=F Damp=F
 DIIS: error= 1.61D-06 at cycle   9 NSaved=   9.
 NSaved= 9 IEnMin= 9 EnMin= -228.943626713099     IErMin= 9 ErrMin= 1.61D-06
 ErrMax= 1.61D-06  0.00D+00 EMaxC= 1.00D-01 BMatC= 1.27D-09 BMatP= 1.09D-08
 IDIUse=1 WtCom= 1.00D+00 WtEn= 0.00D+00
 Coeff-Com:  0.172D-04-0.206D-03-0.833D-03-0.390D-03 0.720D-02 0.241D-01
 Coeff-Com: -0.989D-01-0.296D+00 0.136D+01
 Coeff:      0.172D-04-0.206D-03-0.833D-03-0.390D-03 0.720D-02 0.241D-01
 Coeff:     -0.989D-01-0.296D+00 0.136D+01
 Gap=     0.558 Goal=   None    Shift=    0.000
 RMSDP=1.70D-07 MaxDP=6.27D-06 DE=-2.75D-08 OVMax= 4.32D-05

 Cycle  10  Pass 1  IDiag  1:
 E= -228.943626718159     Delta-E=       -0.000000005060 Rises=F Damp=F
 DIIS: error= 5.74D-07 at cycle  10 NSaved=  10.
 NSaved=10 IEnMin=10 EnMin= -228.943626718159     IErMin=10 ErrMin= 5.74D-07
 ErrMax= 5.74D-07  0.00D+00 EMaxC= 1.00D-01 BMatC= 2.03D-10 BMatP= 1.27D-09
 IDIUse=1 WtCom= 1.00D+00 WtEn= 0.00D+00
 Coeff-Com:  0.803D-05-0.639D-04-0.256D-03-0.884D-03 0.314D-03 0.173D-01
 Coeff-Com:  0.369D-02-0.132D+00-0.659D-01 0.118D+01
 Coeff:      0.803D-05-0.639D-04-0.256D-03-0.884D-03 0.314D-03 0.173D-01
 Coeff:      0.369D-02-0.132D+00-0.659D-01 0.118D+01
 Gap=     0.558 Goal=   None    Shift=    0.000
 RMSDP=6.46D-08 MaxDP=2.88D-06 DE=-5.06D-09 OVMax= 1.78D-05

 Cycle  11  Pass 1  IDiag  1:
 E= -228.943626718951     Delta-E=       -0.000000000792 Rises=F Damp=F
 DIIS: error= 2.44D-07 at cycle  11 NSaved=  11.
 NSaved=11 IEnMin=11 EnMin= -228.943626718951     IErMin=11 ErrMin= 2.44D-07
 ErrMax= 2.44D-07  0.00D+00 EMaxC= 1.00D-01 BMatC= 4.09D-11 BMatP= 2.03D-10
 IDIUse=1 WtCom= 1.00D+00 WtEn= 0.00D+00
 Coeff-Com: -0.366D-05 0.439D-04 0.181D-03 0.203D-03-0.134D-02-0.750D-02
 Coeff-Com:  0.202D-01 0.755D-01-0.286D+00-0.707D-01 0.127D+01
 Coeff:     -0.366D-05 0.439D-04 0.181D-03 0.203D-03-0.134D-02-0.750D-02
 Coeff:      0.202D-01 0.755D-01-0.286D+00-0.707D-01 0.127D+01
 Gap=     0.558 Goal=   None    Shift=    0.000
 RMSDP=3.41D-08 MaxDP=1.58D-06 DE=-7.92D-10 OVMax= 8.67D-06

 Cycle  12  Pass 1  IDiag  1:
 E= -228.943626719126     Delta-E=       -0.000000000175 Rises=F Damp=F
 DIIS: error= 7.79D-08 at cycle  12 NSaved=  12.
 NSaved=12 IEnMin=12 EnMin= -228.943626719126     IErMin=12 ErrMin= 7.79D-08
 ErrMax= 7.79D-08  0.00D+00 EMaxC= 1.00D-01 BMatC= 4.46D-12 BMatP= 4.09D-11
 IDIUse=1 WtCom= 1.00D+00 WtEn= 0.00D+00
 Coeff-Com: -0.230D-06-0.266D-05-0.104D-04 0.112D-03 0.399D-03-0.132D-02
 Coeff-Com: -0.548D-02 0.584D-02 0.710D-01-0.147D+00-0.338D+00 0.141D+01
 Coeff:     -0.230D-06-0.266D-05-0.104D-04 0.112D-03 0.399D-03-0.132D-02
 Coeff:     -0.548D-02 0.584D-02 0.710D-01-0.147D+00-0.338D+00 0.141D+01
 Gap=     0.558 Goal=   None    Shift=    0.000
 RMSDP=1.27D-08 MaxDP=5.31D-07 DE=-1.75D-10 OVMax= 3.34D-06

 Cycle  13  Pass 1  IDiag  1:
 E= -228.943626719139     Delta-E=       -0.000000000013 Rises=F Damp=F
 DIIS: error= 2.21D-08 at cycle  13 NSaved=  13.
 NSaved=13 IEnMin=13 EnMin= -228.943626719139     IErMin=13 ErrMin= 2.21D-08
 ErrMax= 2.21D-08  0.00D+00 EMaxC= 1.00D-01 BMatC= 3.15D-13 BMatP= 4.46D-12
 IDIUse=1 WtCom= 1.00D+00 WtEn= 0.00D+00
 Coeff-Com:  0.391D-06-0.362D-05-0.141D-04-0.454D-04 0.250D-04 0.985D-03
 Coeff-Com: -0.578D-03-0.853D-02 0.110D-01 0.378D-01-0.412D-01-0.280D+00
 Coeff-Com:  0.128D+01
 Coeff:      0.391D-06-0.362D-05-0.141D-04-0.454D-04 0.250D-04 0.985D-03
 Coeff:     -0.578D-03-0.853D-02 0.110D-01 0.378D-01-0.412D-01-0.280D+00
 Coeff:      0.128D+01
 Gap=     0.558 Goal=   None    Shift=    0.000
 RMSDP=2.95D-09 MaxDP=1.43D-07 DE=-1.26D-11 OVMax= 8.05D-07

 SCF Done:  E(RHF) =  -228.943626719     A.U. after   13 cycles
            NFock= 13  Conv=0.29D-08     -V/T= 2.0017
 KE= 2.285626458344D+02 PE=-8.012773790926D+02 EE= 2.129390834673D+02
 Leave Link  502 at Wed Dec 20 23:16:53 2017, MaxMem=  3489660928 cpu:       751.0
 (Enter /home/michal/g09/l801.exe)
 ExpMin= 8.99D-02 ExpMax= 6.14D+04 ExpMxC= 5.91D+02 IAcc=3 IRadAn=         5 AccDes= 0.00D+00
 HarFok:  IExCor=  205 AccDes= 0.00D+00 IRadAn=         5 IDoV=-2 UseB2=F ITyADJ=14
 ICtDFT= 12500011 ScaDFX=  1.000000  1.000000  1.000000  1.000000
 Largest valence mixing into a core orbital is  1.82D-04
 Largest core mixing into a valence orbital is  3.04D-05
 Range of M.O.s used for correlation:     5   400
 NBasis=   400 NAE=    17 NBE=    17 NFC=     4 NFV=     0
 NROrb=    396 NOA=    13 NOB=    13 NVA=   383 NVB=   383

 **** Warning!!: The largest alpha MO coefficient is  0.20379805D+02

 Leave Link  801 at Wed Dec 20 23:16:54 2017, MaxMem=  3489660928 cpu:         1.2
 (Enter /home/michal/g09/l906.exe)
 FulOut=F Deriv=F AODrv=F NAtomX=    10
   MMem=        1311  MDisk=          13 MDiskD=          13
  W3Min=     2439710 MinDsk=     3998052 NBas6D=         490
 NBas2D=      121807    NTT=      120295    LW2=     4508827
    MDV=  3488923238 MDiskM=       15813 NBas2p=      114441
 Fully direct method using O(OVN) memory.
 IMap=   1   2   3   4   5   6   7   8   9  10  11  12  13
 JobTyp=1 Pass  1:  I=   1 to  13 NPSUse= 12 ParTrn=T ParDer=T DoDerP=F.
 Spin components of T(2) and E(2):
     alpha-alpha T2 =       0.2892384509D-01 E2=     -0.1039497772D+00
     alpha-beta  T2 =       0.1787596332D+00 E2=     -0.6943350237D+00
     beta-beta   T2 =       0.2892384509D-01 E2=     -0.1039497772D+00
 The integrals were generated   1 times.
 ANorm=    0.1112028472D+01
 E2 =    -0.9022345781D+00 EUMP2 =    -0.22984586129728D+03
 Leave Link  906 at Wed Dec 20 23:21:11 2017, MaxMem=  3489660928 cpu:      3065.3
 (Enter /home/michal/g09/l601.exe)
 Copying SCF densities to generalized density rwf, IOpCl= 0 IROHF=0.

 **********************************************************************

            Population analysis using the SCF density.

 **********************************************************************

 Alpha  occ. eigenvalues --  -20.61891 -20.61852 -11.28337 -11.22607  -1.46646
 Alpha  occ. eigenvalues --   -1.22675  -1.00299  -0.83973  -0.71630  -0.66058
 Alpha  occ. eigenvalues --   -0.64764  -0.60200  -0.54114  -0.52711  -0.50337
 Alpha  occ. eigenvalues --   -0.49220  -0.44517
 Alpha virt. eigenvalues --    0.11311   0.13024   0.15909   0.17174   0.18752
 Alpha virt. eigenvalues --    0.20962   0.22884   0.26934   0.27240   0.30512
 Alpha virt. eigenvalues --    0.31102   0.35968   0.37240   0.45700   0.46285
 Alpha virt. eigenvalues --    0.46786   0.47790   0.48773   0.50695   0.52477
 Alpha virt. eigenvalues --    0.53785   0.54229   0.54650   0.59956   0.61591
 Alpha virt. eigenvalues --    0.63000   0.64769   0.65746   0.69200   0.71862
 Alpha virt. eigenvalues --    0.74983   0.76565   0.79733   0.83200   0.85497
 Alpha virt. eigenvalues --    0.86721   0.88950   0.90074   0.93378   0.93942
 Alpha virt. eigenvalues --    0.97436   0.98962   0.99557   1.01328   1.04230
 Alpha virt. eigenvalues --    1.05557   1.09327   1.10373   1.12630   1.13738
 Alpha virt. eigenvalues --    1.14589   1.15655   1.18505   1.19108   1.20033
 Alpha virt. eigenvalues --    1.21977   1.24415   1.30470   1.37966   1.38498
 Alpha virt. eigenvalues --    1.44929   1.47368   1.52812   1.55375   1.60134
 Alpha virt. eigenvalues --    1.61984   1.63319   1.69127   1.72839   1.74421
 Alpha virt. eigenvalues --    1.77092   1.78615   1.80574   1.84685   1.90481
 Alpha virt. eigenvalues --    1.95542   1.95964   1.98174   2.01552   2.03483
 Alpha virt. eigenvalues --    2.05569   2.06172   2.08624   2.09657   2.11137
 Alpha virt. eigenvalues --    2.13241   2.17903   2.19858   2.22290   2.23235
 Alpha virt. eigenvalues --    2.26057   2.29929   2.30466   2.31902   2.32968
 Alpha virt. eigenvalues --    2.34515   2.36880   2.38877   2.41539   2.44302
 Alpha virt. eigenvalues --    2.45504   2.48711   2.51430   2.55380   2.56666
 Alpha virt. eigenvalues --    2.59983   2.63139   2.64494   2.66515   2.66762
 Alpha virt. eigenvalues --    2.68077   2.72128   2.74377   2.76092   2.76636
 Alpha virt. eigenvalues --    2.79349   2.82329   2.83331   2.86836   2.88049
 Alpha virt. eigenvalues --    2.92499   2.93944   2.95727   3.00354   3.03697
 Alpha virt. eigenvalues --    3.07429   3.09201   3.13411   3.15796   3.17746
 Alpha virt. eigenvalues --    3.22447   3.23979   3.26875   3.27330   3.29743
 Alpha virt. eigenvalues --    3.35091   3.36637   3.38118   3.39859   3.44060
 Alpha virt. eigenvalues --    3.45325   3.46675   3.52710   3.54879   3.57383
 Alpha virt. eigenvalues --    3.63031   3.64662   3.66185   3.69016   3.70449
 Alpha virt. eigenvalues --    3.75040   3.79373   3.83048   3.85055   3.86393
 Alpha virt. eigenvalues --    3.95816   3.97209   4.02608   4.04850   4.07130
 Alpha virt. eigenvalues --    4.08283   4.11279   4.14666   4.16879   4.17216
 Alpha virt. eigenvalues --    4.19715   4.26981   4.30005   4.36851   4.39295
 Alpha virt. eigenvalues --    4.43011   4.45538   4.49444   4.51902   4.53519
 Alpha virt. eigenvalues --    4.64248   4.71628   4.77741   4.81664   4.85625
 Alpha virt. eigenvalues --    4.90411   5.00056   5.03858   5.13648   5.34876
 Alpha virt. eigenvalues --    5.40917   5.50986   5.57200   5.60312   5.70075
 Alpha virt. eigenvalues --    5.70532   5.72622   5.74271   5.76482   5.86443
 Alpha virt. eigenvalues --    5.90897   5.99953   6.04681   6.08986   6.11149
 Alpha virt. eigenvalues --    6.12959   6.13528   6.19266   6.20878   6.22720
 Alpha virt. eigenvalues --    6.22873   6.24444   6.29574   6.32364   6.34009
 Alpha virt. eigenvalues --    6.37310   6.40681   6.43195   6.43912   6.44845
 Alpha virt. eigenvalues --    6.48163   6.50640   6.52008   6.52917   6.53532
 Alpha virt. eigenvalues --    6.54627   6.57621   6.59065   6.62052   6.69088
 Alpha virt. eigenvalues --    6.71645   6.75331   6.76037   6.82431   6.84048
 Alpha virt. eigenvalues --    6.87200   6.95936   6.96223   7.04635   7.05787
 Alpha virt. eigenvalues --    7.07249   7.11400   7.13336   7.20292   7.21646
 Alpha virt. eigenvalues --    7.26396   7.29420   7.33549   7.34690   7.38185
 Alpha virt. eigenvalues --    7.41481   7.47462   7.53252   7.56186   7.59654
 Alpha virt. eigenvalues --    7.61665   7.67414   7.77465   7.79035   7.80399
 Alpha virt. eigenvalues --    7.84856   7.85853   7.87411   7.90467   7.94484
 Alpha virt. eigenvalues --    7.97629   8.01868   8.03557   8.05338   8.10182
 Alpha virt. eigenvalues --    8.12657   8.14887   8.16642   8.16814   8.18210
 Alpha virt. eigenvalues --    8.23585   8.25819   8.27819   8.31485   8.32279
 Alpha virt. eigenvalues --    8.33058   8.37223   8.43305   8.46106   8.46810
 Alpha virt. eigenvalues --    8.52348   8.64202   8.64717   8.69114   8.74597
 Alpha virt. eigenvalues --    8.74915   8.75995   8.81170   8.81331   8.83738
 Alpha virt. eigenvalues --    8.85920   8.86880   8.89065   8.91703   8.94351
 Alpha virt. eigenvalues --    8.97137   9.00633   9.01409   9.05144   9.07225
 Alpha virt. eigenvalues --    9.11478   9.16199   9.17908   9.23579   9.25287
 Alpha virt. eigenvalues --    9.30011   9.34322   9.35832   9.37177   9.40967
 Alpha virt. eigenvalues --    9.42691   9.43187   9.50093   9.54003   9.58738
 Alpha virt. eigenvalues --    9.75416   9.80993   9.97548   9.99910  10.09853
 Alpha virt. eigenvalues --   10.12170  10.13001  10.14963  10.23780  10.24735
 Alpha virt. eigenvalues --   10.31823  10.37114  10.40260  10.42842  10.44198
 Alpha virt. eigenvalues --   10.47620  10.51823  10.57536  10.59554  10.66215
 Alpha virt. eigenvalues --   10.68600  10.69238  10.72580  10.76431  10.87442
 Alpha virt. eigenvalues --   10.92782  10.95743  11.01542  11.17198  11.33539
 Alpha virt. eigenvalues --   11.36441  11.46836  11.60166  11.63485  11.65584
 Alpha virt. eigenvalues --   11.73630  11.83160  11.89862  11.94861  11.98550
 Alpha virt. eigenvalues --   12.04551  12.07369  12.26956  12.33809  12.45807
 Alpha virt. eigenvalues --   12.49339  12.58072  12.61868  12.73607  12.75615
 Alpha virt. eigenvalues --   12.79756  12.81579  12.85617  13.10068  13.16840
 Alpha virt. eigenvalues --   13.23629  13.25025  13.60112  13.70698  14.07308
 Alpha virt. eigenvalues --   14.34561  14.38267  15.08329  16.56675  26.24025
 Alpha virt. eigenvalues --   27.00046  42.58125  44.31269
          Condensed to atoms (all electrons):
               1          2          3          4          5          6
     1  C    4.720431   0.364209  -0.041080   0.009361  -0.001247   0.411624
     2  C    0.364209   4.470094   0.306671  -0.048543  -0.000922  -0.032985
     3  O   -0.041080   0.306671   8.023259   0.089590  -0.032649   0.000624
     4  O    0.009361  -0.048543   0.089590   7.921856   0.334939  -0.000170
     5  H   -0.001247  -0.000922  -0.032649   0.334939   0.415490   0.000037
     6  H    0.411624  -0.032985   0.000624  -0.000170   0.000037   0.583471
     7  H   -0.029713   0.397268  -0.058650   0.004081   0.002675   0.008814
     8  H   -0.038074   0.434033  -0.050757  -0.001691  -0.000361  -0.008209
     9  H    0.410445  -0.034760   0.003181  -0.000355   0.000051  -0.023231
    10  H    0.408063  -0.031496   0.000414  -0.000156   0.000015  -0.024845
               7          8          9         10
     1  C   -0.029713  -0.038074   0.410445   0.408063
     2  C    0.397268   0.434033  -0.034760  -0.031496
     3  O   -0.058650  -0.050757   0.003181   0.000414
     4  O    0.004081  -0.001691  -0.000355  -0.000156
     5  H    0.002675  -0.000361   0.000051   0.000015
     6  H    0.008814  -0.008209  -0.023231  -0.024845
     7  H    0.732633  -0.075137  -0.000583  -0.009606
     8  H   -0.075137   0.683558  -0.001086   0.008816
     9  H   -0.000583  -0.001086   0.604330  -0.023871
    10  H   -0.009606   0.008816  -0.023871   0.595412
 Mulliken charges:
               1
     1  C   -0.214019
     2  C    0.176431
     3  O   -0.240604
     4  O   -0.308913
     5  H    0.281974
     6  H    0.084870
     7  H    0.028219
     8  H    0.048909
     9  H    0.065879
    10  H    0.077254
 Sum of Mulliken charges =   0.00000
 Mulliken charges with hydrogens summed into heavy atoms:
               1
     1  C    0.013985
     2  C    0.253558
     3  O   -0.240604
     4  O   -0.026939
 Electronic spatial extent (au):  <R**2>=            763.3451
 Charge=              0.0000 electrons
 Dipole moment (field-independent basis, Debye):
    X=             -0.8493    Y=              1.4514    Z=             -0.3976  Tot=              1.7280
 Quadrupole moment (field-independent basis, Debye-Ang):
   XX=            -25.2531   YY=            -24.2214   ZZ=            -25.8132
   XY=              3.1541   XZ=              0.2692   YZ=              5.3804
 Traceless Quadrupole moment (field-independent basis, Debye-Ang):
   XX=             -0.1572   YY=              0.8745   ZZ=             -0.7173
   XY=              3.1541   XZ=              0.2692   YZ=              5.3804
 Octapole moment (field-independent basis, Debye-Ang**2):
  XXX=            -46.3023  YYY=              3.9093  ZZZ=           -119.5775  XYY=            -14.6709
  XXY=              7.3805  XXZ=            -34.9570  XZZ=             -7.7767  YZZ=             20.6909
  YYZ=            -37.8314  XYZ=             11.1592
 Hexadecapole moment (field-independent basis, Debye-Ang**3):
 XXXX=           -165.4800 YYYY=            -38.3200 ZZZZ=           -645.1914 XXXY=             16.7829
 XXXZ=           -110.0385 YYYX=              6.1287 YYYZ=             12.1810 ZZZX=            -84.6825
 ZZZY=             80.7302 XXYY=            -33.2465 XXZZ=           -106.5491 YYZZ=           -107.6853
 XXYZ=             24.9873 YYXZ=            -39.9599 ZZXY=             41.2871
 N-N= 1.308320230717D+02 E-N=-8.012773788757D+02  KE= 2.285626458344D+02
 Leave Link  601 at Wed Dec 20 23:21:11 2017, MaxMem=  3489660928 cpu:         0.5
 (Enter /home/michal/g09/l9999.exe)
 1\1\GINC-LINUX\SP\RMP2-FC\CC-pVQZ\C2H6O2\MICHAL\20-Dec-2017\0\\#P MP2/
 cc-pVQZ SP Nosymm\\PEscan\\0,1\C,0,0.02547,0.00436,0.03257\C,0,0.04542
 ,-0.00915,1.55265\O,0,1.41536,-0.09013,1.92184\O,0,1.42331,-0.17983,3.
 37869\H,0,1.93978,0.62167,3.567\H,0,0.48252,-0.91469,-0.36591\H,0,-0.4
 0944,0.90882,1.97153\H,0,-0.5035,-0.88042,1.95389\H,0,-1.01362,0.06713
 ,-0.32804\H,0,0.5846,0.87039,-0.35531\\Version=EM64L-G09RevD.01\HF=-22
 8.9436267\MP2=-229.8458613\RMSD=2.949e-09\PG=C01 [X(C2H6O2)]\\@


 THE 2ND LAW OF THERMODYNAMICS HAS THE SAME
 DEGREE OF TRUTH AS THE STATEMENT THAT IF YOU THROW
 A TUMBLERFULL OF WATER INTO THE SEA, YOU CANNOT GET
 THE SAME TUMBLERFULL OF WATER OUT AGAIN.
          - J.C. MAXWELL, LETTER TO LORD RAYLEIGH, DECEMBER 6,1870
 Job cpu time:       0 days  1 hours  4 minutes  3.3 seconds.
 File lengths (MBytes):  RWF=    699 Int=      0 D2E=      0 Chk=      8 Scr=      1
 Normal termination of Gaussian 09 at Wed Dec 20 23:21:11 2017.
