 Entering Gaussian System, Link 0=/scratch/michal/g09//g09
 Input=JOB2-gau_m1-10-4.com
 Output=JOB2-gau_m1-10-4.log
 Initial command:
 /scratch/michal/g09/l1.exe /scratch/michal/gauss_scratch/Gau-18657.inp -scrdir=/scratch/michal/gauss_scratch/
 Entering Link 1 = /scratch/michal/g09/l1.exe PID=     18659.
  
 Copyright (c) 1988,1990,1992,1993,1995,1998,2003,2009,2011,
            Gaussian, Inc.  All Rights Reserved.
  
 This is part of the Gaussian(R) 09 program.  It is based on
 the Gaussian(R) 03 system (copyright 2003, Gaussian, Inc.),
 the Gaussian(R) 98 system (copyright 1998, Gaussian, Inc.),
 the Gaussian(R) 94 system (copyright 1995, Gaussian, Inc.),
 the Gaussian 92(TM) system (copyright 1992, Gaussian, Inc.),
 the Gaussian 90(TM) system (copyright 1990, Gaussian, Inc.),
 the Gaussian 88(TM) system (copyright 1988, Gaussian, Inc.),
 the Gaussian 86(TM) system (copyright 1986, Carnegie Mellon
 University), and the Gaussian 82(TM) system (copyright 1983,
 Carnegie Mellon University). Gaussian is a federally registered
 trademark of Gaussian, Inc.
  
 This software contains proprietary and confidential information,
 including trade secrets, belonging to Gaussian, Inc.
  
 This software is provided under written license and may be
 used, copied, transmitted, or stored only in accord with that
 written license.
  
 The following legend is applicable only to US Government
 contracts under FAR:
  
                    RESTRICTED RIGHTS LEGEND
  
 Use, reproduction and disclosure by the US Government is
 subject to restrictions as set forth in subparagraphs (a)
 and (c) of the Commercial Computer Software - Restricted
 Rights clause in FAR 52.227-19.
  
 Gaussian, Inc.
 340 Quinnipiac St., Bldg. 40, Wallingford CT 06492
  
  
 ---------------------------------------------------------------
 Warning -- This program may not be used in any manner that
 competes with the business of Gaussian, Inc. or will provide
 assistance to any competitor of Gaussian, Inc.  The licensee
 of this program is prohibited from giving any competitor of
 Gaussian, Inc. access to this program.  By using this program,
 the user acknowledges that Gaussian, Inc. is engaged in the
 business of creating and licensing software in the field of
 computational chemistry and represents and warrants to the
 licensee that it is not a competitor of Gaussian, Inc. and that
 it will not use this program in any manner prohibited above.
 ---------------------------------------------------------------
  

 Cite this work as:
 Gaussian 09, Revision C.01,
 M. J. Frisch, G. W. Trucks, H. B. Schlegel, G. E. Scuseria, 
 M. A. Robb, J. R. Cheeseman, G. Scalmani, V. Barone, B. Mennucci, 
 G. A. Petersson, H. Nakatsuji, M. Caricato, X. Li, H. P. Hratchian, 
 A. F. Izmaylov, J. Bloino, G. Zheng, J. L. Sonnenberg, M. Hada, 
 M. Ehara, K. Toyota, R. Fukuda, J. Hasegawa, M. Ishida, T. Nakajima, 
 Y. Honda, O. Kitao, H. Nakai, T. Vreven, J. A. Montgomery, Jr., 
 J. E. Peralta, F. Ogliaro, M. Bearpark, J. J. Heyd, E. Brothers, 
 K. N. Kudin, V. N. Staroverov, T. Keith, R. Kobayashi, J. Normand, 
 K. Raghavachari, A. Rendell, J. C. Burant, S. S. Iyengar, J. Tomasi, 
 M. Cossi, N. Rega, J. M. Millam, M. Klene, J. E. Knox, J. B. Cross, 
 V. Bakken, C. Adamo, J. Jaramillo, R. Gomperts, R. E. Stratmann, 
 O. Yazyev, A. J. Austin, R. Cammi, C. Pomelli, J. W. Ochterski, 
 R. L. Martin, K. Morokuma, V. G. Zakrzewski, G. A. Voth, 
 P. Salvador, J. J. Dannenberg, S. Dapprich, A. D. Daniels, 
 O. Farkas, J. B. Foresman, J. V. Ortiz, J. Cioslowski, 
 and D. J. Fox, Gaussian, Inc., Wallingford CT, 2010.
 
 ******************************************
 Gaussian 09:  EM64L-G09RevC.01 23-Sep-2011
                18-May-2017 
 ******************************************
 %Mem=256MB
 %NProc=48
 Will use up to   48 processors via shared memory.
 ----------------------------------------------------------------------
 #P HF/6-31G* SCF(Conver=6) NoSymm Test Pop=mk IOp(6/33=2) GFInput GFPr
 int
 ----------------------------------------------------------------------
 1/38=1/1;
 2/12=2,15=1,17=6,18=5,40=1/2;
 3/5=1,6=6,7=1,11=9,16=1,24=110,25=1,30=1/1,2,3;
 4//1;
 5/5=2,6=6,38=5/2;
 6/7=2,8=2,9=2,10=2,15=8,20=1,28=1,33=2/1,2;
 99/5=1,9=1/99;
 Leave Link    1 at Thu May 18 13:13:36 2017, MaxMem=   33554432 cpu:       3.5
 (Enter /scratch/michal/g09/l101.exe)
 ----------------------------------------------
 MEP - Input generated by R.E.D.-III.x MOLECULE
 ----------------------------------------------
 Charge =  0 Multiplicity = 1
 Symbolic Z-Matrix:
 O                     0.        0.        0. 
 H                    -0.23027   0.58484  -0.73423 
 O                    -2.392     6.27596   0. 
 H                    -2.16414   6.84771   0.74656 
 C                     4.25094   0.52858   0.72292 
 C                     2.75165   0.13808   0.75149 
 H                     2.49035  -0.1066   -0.28752 
 C                     1.8075    1.27486   1.15818 
 H                     2.02047   1.5692    2.196 
 C                     2.01047   2.4994    0.22557 
 H                     1.63318   2.18689  -0.76234 
 C                     4.86434  -0.84286   0.30024 
 H                     4.53502  -0.97188  -0.74094 
 C                     4.40813   1.65639  -0.31166 
 H                     4.14346   1.26378  -1.30399 
 H                     5.44989   1.99837  -0.37709 
 C                     1.12796   3.72477   0.65293 
 C                     2.71724  -1.19454   1.52236 
 H                     1.84889  -1.79826   1.24453 
 H                     2.65615  -1.02313   2.60476 
 C                     3.50453   2.86135   0.02331 
 H                     3.89415   3.34774   0.92296 
 H                     3.59474   3.60105  -0.78035 
 C                     4.06664  -1.88402   1.14724 
 H                     4.6148   -2.16868   2.04983 
 H                     3.90334  -2.8069    0.5813 
 C                     0.33211   0.82315   1.14312 
 H                     0.16655   0.15366   1.99517 
 C                     6.4132   -0.99019   0.26134 
 H                     6.81774   0.        0. 
 C                     4.7768    0.99053   2.09986 
 H                     4.25215   1.87624   2.46736 
 H                     4.66826   0.21594   2.8642 
 H                     5.83933   1.24981   2.03753 
 C                    -0.29373   3.26458   1.00249 
 C                     1.04043   4.71979  -0.54569 
 H                     0.79579   4.14693  -1.45105 
 H                     2.02564   5.16568  -0.71891 
 C                    -0.62002   1.98052   1.22409 
 H                    -1.65598   1.72599   1.44613 
 C                     1.72076   4.45316   1.89007 
 H                     2.65571   4.96409   1.64138 
 H                     1.03463   5.21002   2.27816 
 H                     1.91988   3.75109   2.70527 
 C                    -1.35665   4.34293   1.10711 
 H                    -2.34149   3.88992   1.2573 
 H                    -1.16207   4.97364   1.98925 
 C                    -0.00062   5.83854  -0.38744 
 H                     0.2749    6.50594   0.44243 
 H                    -0.02641   6.45707  -1.29172 
 C                     7.08308  -1.42119   1.58954 
 H                     6.56224  -0.97121   2.43884 
 H                     6.97362  -2.50887   1.71028 
 C                    -1.39128   5.26224  -0.12325 
 H                    -1.70916   4.67732  -0.99518 
 C                     6.81337  -1.95473  -0.87425 
 H                     6.3692   -2.94543  -0.7165 
 H                     7.89842  -2.086    -0.93842 
 H                     6.46822  -1.5865   -1.84673 
 C                     8.57503  -1.05577   1.67438 
 H                     9.09275  -1.41544   0.77635 
 H                     8.67822   0.03784   1.65703 
 C                     9.30781  -1.63486   2.89842 
 H                     10.378   -1.39396   2.81369 
 H                     9.24085  -2.73164   2.85601 
 C                     8.82071  -1.1713    4.28789 
 H                     7.75372  -1.41982   4.38024 
 C                     8.97111   0.34545   4.4859 
 H                     10.02112   0.64889   4.38241 
 H                     8.63637   0.64491   5.48564 
 H                     8.38621   0.91747   3.75839 
 C                     9.56762  -1.93489   5.39328 
 H                     10.64424  -1.72429   5.355 
 H                     9.20857  -1.64801   6.3883 
 H                     9.43698  -3.01813   5.28885 
 
 NAtoms=     75 NQM=        0 NQMF=       0 NMMI=     75 NMMIF=      0
                NMic=       0 NMicF=      0.
                    Isotopes and Nuclear Properties:
 (Nuclear quadrupole moments (NQMom) in fm**2, nuclear magnetic moments (NMagM)
  in nuclear magnetons)

  Atom         1           2           3           4           5           6           7           8           9          10
 IAtWgt=          16           1          16           1          12          12           1          12           1          12
 AtmWgt=  15.9949146   1.0078250  15.9949146   1.0078250  12.0000000  12.0000000   1.0078250  12.0000000   1.0078250  12.0000000
 NucSpn=           0           1           0           1           0           0           1           0           1           0
 AtZEff=   0.0000000   0.0000000   0.0000000   0.0000000   0.0000000   0.0000000   0.0000000   0.0000000   0.0000000   0.0000000
 NQMom=    0.0000000   0.0000000   0.0000000   0.0000000   0.0000000   0.0000000   0.0000000   0.0000000   0.0000000   0.0000000
 NMagM=    0.0000000   2.7928460   0.0000000   2.7928460   0.0000000   0.0000000   2.7928460   0.0000000   2.7928460   0.0000000

  Atom        11          12          13          14          15          16          17          18          19          20
 IAtWgt=           1          12           1          12           1           1          12          12           1           1
 AtmWgt=   1.0078250  12.0000000   1.0078250  12.0000000   1.0078250   1.0078250  12.0000000  12.0000000   1.0078250   1.0078250
 NucSpn=           1           0           1           0           1           1           0           0           1           1
 AtZEff=   0.0000000   0.0000000   0.0000000   0.0000000   0.0000000   0.0000000   0.0000000   0.0000000   0.0000000   0.0000000
 NQMom=    0.0000000   0.0000000   0.0000000   0.0000000   0.0000000   0.0000000   0.0000000   0.0000000   0.0000000   0.0000000
 NMagM=    2.7928460   0.0000000   2.7928460   0.0000000   2.7928460   2.7928460   0.0000000   0.0000000   2.7928460   2.7928460

  Atom        21          22          23          24          25          26          27          28          29          30
 IAtWgt=          12           1           1          12           1           1          12           1          12           1
 AtmWgt=  12.0000000   1.0078250   1.0078250  12.0000000   1.0078250   1.0078250  12.0000000   1.0078250  12.0000000   1.0078250
 NucSpn=           0           1           1           0           1           1           0           1           0           1
 AtZEff=   0.0000000   0.0000000   0.0000000   0.0000000   0.0000000   0.0000000   0.0000000   0.0000000   0.0000000   0.0000000
 NQMom=    0.0000000   0.0000000   0.0000000   0.0000000   0.0000000   0.0000000   0.0000000   0.0000000   0.0000000   0.0000000
 NMagM=    0.0000000   2.7928460   2.7928460   0.0000000   2.7928460   2.7928460   0.0000000   2.7928460   0.0000000   2.7928460

  Atom        31          32          33          34          35          36          37          38          39          40
 IAtWgt=          12           1           1           1          12          12           1           1          12           1
 AtmWgt=  12.0000000   1.0078250   1.0078250   1.0078250  12.0000000  12.0000000   1.0078250   1.0078250  12.0000000   1.0078250
 NucSpn=           0           1           1           1           0           0           1           1           0           1
 AtZEff=   0.0000000   0.0000000   0.0000000   0.0000000   0.0000000   0.0000000   0.0000000   0.0000000   0.0000000   0.0000000
 NQMom=    0.0000000   0.0000000   0.0000000   0.0000000   0.0000000   0.0000000   0.0000000   0.0000000   0.0000000   0.0000000
 NMagM=    0.0000000   2.7928460   2.7928460   2.7928460   0.0000000   0.0000000   2.7928460   2.7928460   0.0000000   2.7928460

  Atom        41          42          43          44          45          46          47          48          49          50
 IAtWgt=          12           1           1           1          12           1           1          12           1           1
 AtmWgt=  12.0000000   1.0078250   1.0078250   1.0078250  12.0000000   1.0078250   1.0078250  12.0000000   1.0078250   1.0078250
 NucSpn=           0           1           1           1           0           1           1           0           1           1
 AtZEff=   0.0000000   0.0000000   0.0000000   0.0000000   0.0000000   0.0000000   0.0000000   0.0000000   0.0000000   0.0000000
 NQMom=    0.0000000   0.0000000   0.0000000   0.0000000   0.0000000   0.0000000   0.0000000   0.0000000   0.0000000   0.0000000
 NMagM=    0.0000000   2.7928460   2.7928460   2.7928460   0.0000000   2.7928460   2.7928460   0.0000000   2.7928460   2.7928460

  Atom        51          52          53          54          55          56          57          58          59          60
 IAtWgt=          12           1           1          12           1          12           1           1           1          12
 AtmWgt=  12.0000000   1.0078250   1.0078250  12.0000000   1.0078250  12.0000000   1.0078250   1.0078250   1.0078250  12.0000000
 NucSpn=           0           1           1           0           1           0           1           1           1           0
 AtZEff=   0.0000000   0.0000000   0.0000000   0.0000000   0.0000000   0.0000000   0.0000000   0.0000000   0.0000000   0.0000000
 NQMom=    0.0000000   0.0000000   0.0000000   0.0000000   0.0000000   0.0000000   0.0000000   0.0000000   0.0000000   0.0000000
 NMagM=    0.0000000   2.7928460   2.7928460   0.0000000   2.7928460   0.0000000   2.7928460   2.7928460   2.7928460   0.0000000

  Atom        61          62          63          64          65          66          67          68          69          70
 IAtWgt=           1           1          12           1           1          12           1          12           1           1
 AtmWgt=   1.0078250   1.0078250  12.0000000   1.0078250   1.0078250  12.0000000   1.0078250  12.0000000   1.0078250   1.0078250
 NucSpn=           1           1           0           1           1           0           1           0           1           1
 AtZEff=   0.0000000   0.0000000   0.0000000   0.0000000   0.0000000   0.0000000   0.0000000   0.0000000   0.0000000   0.0000000
 NQMom=    0.0000000   0.0000000   0.0000000   0.0000000   0.0000000   0.0000000   0.0000000   0.0000000   0.0000000   0.0000000
 NMagM=    2.7928460   2.7928460   0.0000000   2.7928460   2.7928460   0.0000000   2.7928460   0.0000000   2.7928460   2.7928460

  Atom        71          72          73          74          75
 IAtWgt=           1          12           1           1           1
 AtmWgt=   1.0078250  12.0000000   1.0078250   1.0078250   1.0078250
 NucSpn=           1           0           1           1           1
 AtZEff=   0.0000000   0.0000000   0.0000000   0.0000000   0.0000000
 NQMom=    0.0000000   0.0000000   0.0000000   0.0000000   0.0000000
 NMagM=    2.7928460   0.0000000   2.7928460   2.7928460   2.7928460
 Leave Link  101 at Thu May 18 13:13:36 2017, MaxMem=   33554432 cpu:       7.6
 (Enter /scratch/michal/g09/l202.exe)
 Symmetry turned off by external request.
 Stoichiometry    C27H46O2
 Framework group  C1[X(C27H46O2)]
 Deg. of freedom   219
 Full point group                 C1      NOp   1
                          Input orientation:                          
 ---------------------------------------------------------------------
 Center     Atomic      Atomic             Coordinates (Angstroms)
 Number     Number       Type             X           Y           Z
 ---------------------------------------------------------------------
      1          8           0        0.000000    0.000000    0.000000
      2          1           0       -0.230273    0.584842   -0.734230
      3          8           0       -2.391995    6.275962    0.000000
      4          1           0       -2.164135    6.847714    0.746561
      5          6           0        4.250938    0.528577    0.722917
      6          6           0        2.751652    0.138079    0.751487
      7          1           0        2.490345   -0.106602   -0.287524
      8          6           0        1.807503    1.274862    1.158181
      9          1           0        2.020466    1.569199    2.196004
     10          6           0        2.010469    2.499401    0.225570
     11          1           0        1.633179    2.186893   -0.762343
     12          6           0        4.864345   -0.842857    0.300237
     13          1           0        4.535025   -0.971879   -0.740944
     14          6           0        4.408131    1.656390   -0.311664
     15          1           0        4.143458    1.263777   -1.303991
     16          1           0        5.449890    1.998372   -0.377085
     17          6           0        1.127958    3.724766    0.652929
     18          6           0        2.717240   -1.194541    1.522358
     19          1           0        1.848890   -1.798259    1.244535
     20          1           0        2.656146   -1.023127    2.604762
     21          6           0        3.504527    2.861353    0.023305
     22          1           0        3.894154    3.347740    0.922955
     23          1           0        3.594737    3.601054   -0.780350
     24          6           0        4.066642   -1.884018    1.147240
     25          1           0        4.614800   -2.168684    2.049827
     26          1           0        3.903344   -2.806901    0.581303
     27          6           0        0.332106    0.823147    1.143118
     28          1           0        0.166548    0.153655    1.995167
     29          6           0        6.413199   -0.990189    0.261343
     30          1           0        6.817736    0.000000    0.000000
     31          6           0        4.776800    0.990528    2.099859
     32          1           0        4.252145    1.876236    2.467363
     33          1           0        4.668262    0.215942    2.864202
     34          1           0        5.839328    1.249807    2.037535
     35          6           0       -0.293733    3.264584    1.002490
     36          6           0        1.040432    4.719795   -0.545690
     37          1           0        0.795789    4.146933   -1.451055
     38          1           0        2.025639    5.165677   -0.718915
     39          6           0       -0.620023    1.980516    1.224088
     40          1           0       -1.655980    1.725994    1.446131
     41          6           0        1.720759    4.453160    1.890067
     42          1           0        2.655715    4.964093    1.641376
     43          1           0        1.034631    5.210017    2.278158
     44          1           0        1.919885    3.751093    2.705272
     45          6           0       -1.356645    4.342925    1.107109
     46          1           0       -2.341494    3.889919    1.257295
     47          1           0       -1.162071    4.973641    1.989253
     48          6           0       -0.000617    5.838543   -0.387441
     49          1           0        0.274904    6.505939    0.442433
     50          1           0       -0.026411    6.457074   -1.291724
     51          6           0        7.083076   -1.421195    1.589543
     52          1           0        6.562236   -0.971215    2.438845
     53          1           0        6.973620   -2.508866    1.710279
     54          6           0       -1.391282    5.262236   -0.123245
     55          1           0       -1.709161    4.677322   -0.995180
     56          6           0        6.813373   -1.954732   -0.874248
     57          1           0        6.369197   -2.945434   -0.716500
     58          1           0        7.898415   -2.085998   -0.938419
     59          1           0        6.468222   -1.586504   -1.846730
     60          6           0        8.575030   -1.055766    1.674381
     61          1           0        9.092745   -1.415439    0.776354
     62          1           0        8.678220    0.037838    1.657025
     63          6           0        9.307807   -1.634862    2.898418
     64          1           0       10.377998   -1.393955    2.813687
     65          1           0        9.240851   -2.731641    2.856014
     66          6           0        8.820709   -1.171304    4.287894
     67          1           0        7.753719   -1.419821    4.380244
     68          6           0        8.971106    0.345450    4.485898
     69          1           0       10.021121    0.648890    4.382407
     70          1           0        8.636375    0.644908    5.485637
     71          1           0        8.386212    0.917474    3.758388
     72          6           0        9.567622   -1.934894    5.393279
     73          1           0       10.644236   -1.724288    5.355001
     74          1           0        9.208566   -1.648006    6.388297
     75          1           0        9.436976   -3.018127    5.288846
 ---------------------------------------------------------------------
 Rotational constants (GHZ):      0.3458343      0.0634915      0.0604768
 Leave Link  202 at Thu May 18 13:13:36 2017, MaxMem=   33554432 cpu:       0.1
 (Enter /scratch/michal/g09/l301.exe)
 Standard basis: 6-31G(d) (6D, 7F)
 Ernie: Thresh=  0.10000D-02 Tol=  0.10000D-05 Strict=F.
 AO basis set in the form of general basis input (Overlap normalization):
      1 0
 S   6 1.00       0.000000000000
      0.5484671660D+04  0.1831074430D-02
      0.8252349460D+03  0.1395017220D-01
      0.1880469580D+03  0.6844507810D-01
      0.5296450000D+02  0.2327143360D+00
      0.1689757040D+02  0.4701928980D+00
      0.5799635340D+01  0.3585208530D+00
 SP   3 1.00       0.000000000000
      0.1553961625D+02 -0.1107775495D+00  0.7087426823D-01
      0.3599933586D+01 -0.1480262627D+00  0.3397528391D+00
      0.1013761750D+01  0.1130767015D+01  0.7271585773D+00
 SP   1 1.00       0.000000000000
      0.2700058226D+00  0.1000000000D+01  0.1000000000D+01
 D   1 1.00       0.000000000000
      0.8000000000D+00  0.1000000000D+01
 ****
      2 0
 S   3 1.00       0.000000000000
      0.1873113696D+02  0.3349460434D-01
      0.2825394365D+01  0.2347269535D+00
      0.6401216923D+00  0.8137573261D+00
 S   1 1.00       0.000000000000
      0.1612777588D+00  0.1000000000D+01
 ****
      3 0
 S   6 1.00       0.000000000000
      0.5484671660D+04  0.1831074430D-02
      0.8252349460D+03  0.1395017220D-01
      0.1880469580D+03  0.6844507810D-01
      0.5296450000D+02  0.2327143360D+00
      0.1689757040D+02  0.4701928980D+00
      0.5799635340D+01  0.3585208530D+00
 SP   3 1.00       0.000000000000
      0.1553961625D+02 -0.1107775495D+00  0.7087426823D-01
      0.3599933586D+01 -0.1480262627D+00  0.3397528391D+00
      0.1013761750D+01  0.1130767015D+01  0.7271585773D+00
 SP   1 1.00       0.000000000000
      0.2700058226D+00  0.1000000000D+01  0.1000000000D+01
 D   1 1.00       0.000000000000
      0.8000000000D+00  0.1000000000D+01
 ****
      4 0
 S   3 1.00       0.000000000000
      0.1873113696D+02  0.3349460434D-01
      0.2825394365D+01  0.2347269535D+00
      0.6401216923D+00  0.8137573261D+00
 S   1 1.00       0.000000000000
      0.1612777588D+00  0.1000000000D+01
 ****
      5 0
 S   6 1.00       0.000000000000
      0.3047524880D+04  0.1834737132D-02
      0.4573695180D+03  0.1403732281D-01
      0.1039486850D+03  0.6884262226D-01
      0.2921015530D+02  0.2321844432D+00
      0.9286662960D+01  0.4679413484D+00
      0.3163926960D+01  0.3623119853D+00
 SP   3 1.00       0.000000000000
      0.7868272350D+01 -0.1193324198D+00  0.6899906659D-01
      0.1881288540D+01 -0.1608541517D+00  0.3164239610D+00
      0.5442492580D+00  0.1143456438D+01  0.7443082909D+00
 SP   1 1.00       0.000000000000
      0.1687144782D+00  0.1000000000D+01  0.1000000000D+01
 D   1 1.00       0.000000000000
      0.8000000000D+00  0.1000000000D+01
 ****
      6 0
 S   6 1.00       0.000000000000
      0.3047524880D+04  0.1834737132D-02
      0.4573695180D+03  0.1403732281D-01
      0.1039486850D+03  0.6884262226D-01
      0.2921015530D+02  0.2321844432D+00
      0.9286662960D+01  0.4679413484D+00
      0.3163926960D+01  0.3623119853D+00
 SP   3 1.00       0.000000000000
      0.7868272350D+01 -0.1193324198D+00  0.6899906659D-01
      0.1881288540D+01 -0.1608541517D+00  0.3164239610D+00
      0.5442492580D+00  0.1143456438D+01  0.7443082909D+00
 SP   1 1.00       0.000000000000
      0.1687144782D+00  0.1000000000D+01  0.1000000000D+01
 D   1 1.00       0.000000000000
      0.8000000000D+00  0.1000000000D+01
 ****
      7 0
 S   3 1.00       0.000000000000
      0.1873113696D+02  0.3349460434D-01
      0.2825394365D+01  0.2347269535D+00
      0.6401216923D+00  0.8137573261D+00
 S   1 1.00       0.000000000000
      0.1612777588D+00  0.1000000000D+01
 ****
      8 0
 S   6 1.00       0.000000000000
      0.3047524880D+04  0.1834737132D-02
      0.4573695180D+03  0.1403732281D-01
      0.1039486850D+03  0.6884262226D-01
      0.2921015530D+02  0.2321844432D+00
      0.9286662960D+01  0.4679413484D+00
      0.3163926960D+01  0.3623119853D+00
 SP   3 1.00       0.000000000000
      0.7868272350D+01 -0.1193324198D+00  0.6899906659D-01
      0.1881288540D+01 -0.1608541517D+00  0.3164239610D+00
      0.5442492580D+00  0.1143456438D+01  0.7443082909D+00
 SP   1 1.00       0.000000000000
      0.1687144782D+00  0.1000000000D+01  0.1000000000D+01
 D   1 1.00       0.000000000000
      0.8000000000D+00  0.1000000000D+01
 ****
      9 0
 S   3 1.00       0.000000000000
      0.1873113696D+02  0.3349460434D-01
      0.2825394365D+01  0.2347269535D+00
      0.6401216923D+00  0.8137573261D+00
 S   1 1.00       0.000000000000
      0.1612777588D+00  0.1000000000D+01
 ****
     10 0
 S   6 1.00       0.000000000000
      0.3047524880D+04  0.1834737132D-02
      0.4573695180D+03  0.1403732281D-01
      0.1039486850D+03  0.6884262226D-01
      0.2921015530D+02  0.2321844432D+00
      0.9286662960D+01  0.4679413484D+00
      0.3163926960D+01  0.3623119853D+00
 SP   3 1.00       0.000000000000
      0.7868272350D+01 -0.1193324198D+00  0.6899906659D-01
      0.1881288540D+01 -0.1608541517D+00  0.3164239610D+00
      0.5442492580D+00  0.1143456438D+01  0.7443082909D+00
 SP   1 1.00       0.000000000000
      0.1687144782D+00  0.1000000000D+01  0.1000000000D+01
 D   1 1.00       0.000000000000
      0.8000000000D+00  0.1000000000D+01
 ****
     11 0
 S   3 1.00       0.000000000000
      0.1873113696D+02  0.3349460434D-01
      0.2825394365D+01  0.2347269535D+00
      0.6401216923D+00  0.8137573261D+00
 S   1 1.00       0.000000000000
      0.1612777588D+00  0.1000000000D+01
 ****
     12 0
 S   6 1.00       0.000000000000
      0.3047524880D+04  0.1834737132D-02
      0.4573695180D+03  0.1403732281D-01
      0.1039486850D+03  0.6884262226D-01
      0.2921015530D+02  0.2321844432D+00
      0.9286662960D+01  0.4679413484D+00
      0.3163926960D+01  0.3623119853D+00
 SP   3 1.00       0.000000000000
      0.7868272350D+01 -0.1193324198D+00  0.6899906659D-01
      0.1881288540D+01 -0.1608541517D+00  0.3164239610D+00
      0.5442492580D+00  0.1143456438D+01  0.7443082909D+00
 SP   1 1.00       0.000000000000
      0.1687144782D+00  0.1000000000D+01  0.1000000000D+01
 D   1 1.00       0.000000000000
      0.8000000000D+00  0.1000000000D+01
 ****
     13 0
 S   3 1.00       0.000000000000
      0.1873113696D+02  0.3349460434D-01
      0.2825394365D+01  0.2347269535D+00
      0.6401216923D+00  0.8137573261D+00
 S   1 1.00       0.000000000000
      0.1612777588D+00  0.1000000000D+01
 ****
     14 0
 S   6 1.00       0.000000000000
      0.3047524880D+04  0.1834737132D-02
      0.4573695180D+03  0.1403732281D-01
      0.1039486850D+03  0.6884262226D-01
      0.2921015530D+02  0.2321844432D+00
      0.9286662960D+01  0.4679413484D+00
      0.3163926960D+01  0.3623119853D+00
 SP   3 1.00       0.000000000000
      0.7868272350D+01 -0.1193324198D+00  0.6899906659D-01
      0.1881288540D+01 -0.1608541517D+00  0.3164239610D+00
      0.5442492580D+00  0.1143456438D+01  0.7443082909D+00
 SP   1 1.00       0.000000000000
      0.1687144782D+00  0.1000000000D+01  0.1000000000D+01
 D   1 1.00       0.000000000000
      0.8000000000D+00  0.1000000000D+01
 ****
     15 0
 S   3 1.00       0.000000000000
      0.1873113696D+02  0.3349460434D-01
      0.2825394365D+01  0.2347269535D+00
      0.6401216923D+00  0.8137573261D+00
 S   1 1.00       0.000000000000
      0.1612777588D+00  0.1000000000D+01
 ****
     16 0
 S   3 1.00       0.000000000000
      0.1873113696D+02  0.3349460434D-01
      0.2825394365D+01  0.2347269535D+00
      0.6401216923D+00  0.8137573261D+00
 S   1 1.00       0.000000000000
      0.1612777588D+00  0.1000000000D+01
 ****
     17 0
 S   6 1.00       0.000000000000
      0.3047524880D+04  0.1834737132D-02
      0.4573695180D+03  0.1403732281D-01
      0.1039486850D+03  0.6884262226D-01
      0.2921015530D+02  0.2321844432D+00
      0.9286662960D+01  0.4679413484D+00
      0.3163926960D+01  0.3623119853D+00
 SP   3 1.00       0.000000000000
      0.7868272350D+01 -0.1193324198D+00  0.6899906659D-01
      0.1881288540D+01 -0.1608541517D+00  0.3164239610D+00
      0.5442492580D+00  0.1143456438D+01  0.7443082909D+00
 SP   1 1.00       0.000000000000
      0.1687144782D+00  0.1000000000D+01  0.1000000000D+01
 D   1 1.00       0.000000000000
      0.8000000000D+00  0.1000000000D+01
 ****
     18 0
 S   6 1.00       0.000000000000
      0.3047524880D+04  0.1834737132D-02
      0.4573695180D+03  0.1403732281D-01
      0.1039486850D+03  0.6884262226D-01
      0.2921015530D+02  0.2321844432D+00
      0.9286662960D+01  0.4679413484D+00
      0.3163926960D+01  0.3623119853D+00
 SP   3 1.00       0.000000000000
      0.7868272350D+01 -0.1193324198D+00  0.6899906659D-01
      0.1881288540D+01 -0.1608541517D+00  0.3164239610D+00
      0.5442492580D+00  0.1143456438D+01  0.7443082909D+00
 SP   1 1.00       0.000000000000
      0.1687144782D+00  0.1000000000D+01  0.1000000000D+01
 D   1 1.00       0.000000000000
      0.8000000000D+00  0.1000000000D+01
 ****
     19 0
 S   3 1.00       0.000000000000
      0.1873113696D+02  0.3349460434D-01
      0.2825394365D+01  0.2347269535D+00
      0.6401216923D+00  0.8137573261D+00
 S   1 1.00       0.000000000000
      0.1612777588D+00  0.1000000000D+01
 ****
     20 0
 S   3 1.00       0.000000000000
      0.1873113696D+02  0.3349460434D-01
      0.2825394365D+01  0.2347269535D+00
      0.6401216923D+00  0.8137573261D+00
 S   1 1.00       0.000000000000
      0.1612777588D+00  0.1000000000D+01
 ****
     21 0
 S   6 1.00       0.000000000000
      0.3047524880D+04  0.1834737132D-02
      0.4573695180D+03  0.1403732281D-01
      0.1039486850D+03  0.6884262226D-01
      0.2921015530D+02  0.2321844432D+00
      0.9286662960D+01  0.4679413484D+00
      0.3163926960D+01  0.3623119853D+00
 SP   3 1.00       0.000000000000
      0.7868272350D+01 -0.1193324198D+00  0.6899906659D-01
      0.1881288540D+01 -0.1608541517D+00  0.3164239610D+00
      0.5442492580D+00  0.1143456438D+01  0.7443082909D+00
 SP   1 1.00       0.000000000000
      0.1687144782D+00  0.1000000000D+01  0.1000000000D+01
 D   1 1.00       0.000000000000
      0.8000000000D+00  0.1000000000D+01
 ****
     22 0
 S   3 1.00       0.000000000000
      0.1873113696D+02  0.3349460434D-01
      0.2825394365D+01  0.2347269535D+00
      0.6401216923D+00  0.8137573261D+00
 S   1 1.00       0.000000000000
      0.1612777588D+00  0.1000000000D+01
 ****
     23 0
 S   3 1.00       0.000000000000
      0.1873113696D+02  0.3349460434D-01
      0.2825394365D+01  0.2347269535D+00
      0.6401216923D+00  0.8137573261D+00
 S   1 1.00       0.000000000000
      0.1612777588D+00  0.1000000000D+01
 ****
     24 0
 S   6 1.00       0.000000000000
      0.3047524880D+04  0.1834737132D-02
      0.4573695180D+03  0.1403732281D-01
      0.1039486850D+03  0.6884262226D-01
      0.2921015530D+02  0.2321844432D+00
      0.9286662960D+01  0.4679413484D+00
      0.3163926960D+01  0.3623119853D+00
 SP   3 1.00       0.000000000000
      0.7868272350D+01 -0.1193324198D+00  0.6899906659D-01
      0.1881288540D+01 -0.1608541517D+00  0.3164239610D+00
      0.5442492580D+00  0.1143456438D+01  0.7443082909D+00
 SP   1 1.00       0.000000000000
      0.1687144782D+00  0.1000000000D+01  0.1000000000D+01
 D   1 1.00       0.000000000000
      0.8000000000D+00  0.1000000000D+01
 ****
     25 0
 S   3 1.00       0.000000000000
      0.1873113696D+02  0.3349460434D-01
      0.2825394365D+01  0.2347269535D+00
      0.6401216923D+00  0.8137573261D+00
 S   1 1.00       0.000000000000
      0.1612777588D+00  0.1000000000D+01
 ****
     26 0
 S   3 1.00       0.000000000000
      0.1873113696D+02  0.3349460434D-01
      0.2825394365D+01  0.2347269535D+00
      0.6401216923D+00  0.8137573261D+00
 S   1 1.00       0.000000000000
      0.1612777588D+00  0.1000000000D+01
 ****
     27 0
 S   6 1.00       0.000000000000
      0.3047524880D+04  0.1834737132D-02
      0.4573695180D+03  0.1403732281D-01
      0.1039486850D+03  0.6884262226D-01
      0.2921015530D+02  0.2321844432D+00
      0.9286662960D+01  0.4679413484D+00
      0.3163926960D+01  0.3623119853D+00
 SP   3 1.00       0.000000000000
      0.7868272350D+01 -0.1193324198D+00  0.6899906659D-01
      0.1881288540D+01 -0.1608541517D+00  0.3164239610D+00
      0.5442492580D+00  0.1143456438D+01  0.7443082909D+00
 SP   1 1.00       0.000000000000
      0.1687144782D+00  0.1000000000D+01  0.1000000000D+01
 D   1 1.00       0.000000000000
      0.8000000000D+00  0.1000000000D+01
 ****
     28 0
 S   3 1.00       0.000000000000
      0.1873113696D+02  0.3349460434D-01
      0.2825394365D+01  0.2347269535D+00
      0.6401216923D+00  0.8137573261D+00
 S   1 1.00       0.000000000000
      0.1612777588D+00  0.1000000000D+01
 ****
     29 0
 S   6 1.00       0.000000000000
      0.3047524880D+04  0.1834737132D-02
      0.4573695180D+03  0.1403732281D-01
      0.1039486850D+03  0.6884262226D-01
      0.2921015530D+02  0.2321844432D+00
      0.9286662960D+01  0.4679413484D+00
      0.3163926960D+01  0.3623119853D+00
 SP   3 1.00       0.000000000000
      0.7868272350D+01 -0.1193324198D+00  0.6899906659D-01
      0.1881288540D+01 -0.1608541517D+00  0.3164239610D+00
      0.5442492580D+00  0.1143456438D+01  0.7443082909D+00
 SP   1 1.00       0.000000000000
      0.1687144782D+00  0.1000000000D+01  0.1000000000D+01
 D   1 1.00       0.000000000000
      0.8000000000D+00  0.1000000000D+01
 ****
     30 0
 S   3 1.00       0.000000000000
      0.1873113696D+02  0.3349460434D-01
      0.2825394365D+01  0.2347269535D+00
      0.6401216923D+00  0.8137573261D+00
 S   1 1.00       0.000000000000
      0.1612777588D+00  0.1000000000D+01
 ****
     31 0
 S   6 1.00       0.000000000000
      0.3047524880D+04  0.1834737132D-02
      0.4573695180D+03  0.1403732281D-01
      0.1039486850D+03  0.6884262226D-01
      0.2921015530D+02  0.2321844432D+00
      0.9286662960D+01  0.4679413484D+00
      0.3163926960D+01  0.3623119853D+00
 SP   3 1.00       0.000000000000
      0.7868272350D+01 -0.1193324198D+00  0.6899906659D-01
      0.1881288540D+01 -0.1608541517D+00  0.3164239610D+00
      0.5442492580D+00  0.1143456438D+01  0.7443082909D+00
 SP   1 1.00       0.000000000000
      0.1687144782D+00  0.1000000000D+01  0.1000000000D+01
 D   1 1.00       0.000000000000
      0.8000000000D+00  0.1000000000D+01
 ****
     32 0
 S   3 1.00       0.000000000000
      0.1873113696D+02  0.3349460434D-01
      0.2825394365D+01  0.2347269535D+00
      0.6401216923D+00  0.8137573261D+00
 S   1 1.00       0.000000000000
      0.1612777588D+00  0.1000000000D+01
 ****
     33 0
 S   3 1.00       0.000000000000
      0.1873113696D+02  0.3349460434D-01
      0.2825394365D+01  0.2347269535D+00
      0.6401216923D+00  0.8137573261D+00
 S   1 1.00       0.000000000000
      0.1612777588D+00  0.1000000000D+01
 ****
     34 0
 S   3 1.00       0.000000000000
      0.1873113696D+02  0.3349460434D-01
      0.2825394365D+01  0.2347269535D+00
      0.6401216923D+00  0.8137573261D+00
 S   1 1.00       0.000000000000
      0.1612777588D+00  0.1000000000D+01
 ****
     35 0
 S   6 1.00       0.000000000000
      0.3047524880D+04  0.1834737132D-02
      0.4573695180D+03  0.1403732281D-01
      0.1039486850D+03  0.6884262226D-01
      0.2921015530D+02  0.2321844432D+00
      0.9286662960D+01  0.4679413484D+00
      0.3163926960D+01  0.3623119853D+00
 SP   3 1.00       0.000000000000
      0.7868272350D+01 -0.1193324198D+00  0.6899906659D-01
      0.1881288540D+01 -0.1608541517D+00  0.3164239610D+00
      0.5442492580D+00  0.1143456438D+01  0.7443082909D+00
 SP   1 1.00       0.000000000000
      0.1687144782D+00  0.1000000000D+01  0.1000000000D+01
 D   1 1.00       0.000000000000
      0.8000000000D+00  0.1000000000D+01
 ****
     36 0
 S   6 1.00       0.000000000000
      0.3047524880D+04  0.1834737132D-02
      0.4573695180D+03  0.1403732281D-01
      0.1039486850D+03  0.6884262226D-01
      0.2921015530D+02  0.2321844432D+00
      0.9286662960D+01  0.4679413484D+00
      0.3163926960D+01  0.3623119853D+00
 SP   3 1.00       0.000000000000
      0.7868272350D+01 -0.1193324198D+00  0.6899906659D-01
      0.1881288540D+01 -0.1608541517D+00  0.3164239610D+00
      0.5442492580D+00  0.1143456438D+01  0.7443082909D+00
 SP   1 1.00       0.000000000000
      0.1687144782D+00  0.1000000000D+01  0.1000000000D+01
 D   1 1.00       0.000000000000
      0.8000000000D+00  0.1000000000D+01
 ****
     37 0
 S   3 1.00       0.000000000000
      0.1873113696D+02  0.3349460434D-01
      0.2825394365D+01  0.2347269535D+00
      0.6401216923D+00  0.8137573261D+00
 S   1 1.00       0.000000000000
      0.1612777588D+00  0.1000000000D+01
 ****
     38 0
 S   3 1.00       0.000000000000
      0.1873113696D+02  0.3349460434D-01
      0.2825394365D+01  0.2347269535D+00
      0.6401216923D+00  0.8137573261D+00
 S   1 1.00       0.000000000000
      0.1612777588D+00  0.1000000000D+01
 ****
     39 0
 S   6 1.00       0.000000000000
      0.3047524880D+04  0.1834737132D-02
      0.4573695180D+03  0.1403732281D-01
      0.1039486850D+03  0.6884262226D-01
      0.2921015530D+02  0.2321844432D+00
      0.9286662960D+01  0.4679413484D+00
      0.3163926960D+01  0.3623119853D+00
 SP   3 1.00       0.000000000000
      0.7868272350D+01 -0.1193324198D+00  0.6899906659D-01
      0.1881288540D+01 -0.1608541517D+00  0.3164239610D+00
      0.5442492580D+00  0.1143456438D+01  0.7443082909D+00
 SP   1 1.00       0.000000000000
      0.1687144782D+00  0.1000000000D+01  0.1000000000D+01
 D   1 1.00       0.000000000000
      0.8000000000D+00  0.1000000000D+01
 ****
     40 0
 S   3 1.00       0.000000000000
      0.1873113696D+02  0.3349460434D-01
      0.2825394365D+01  0.2347269535D+00
      0.6401216923D+00  0.8137573261D+00
 S   1 1.00       0.000000000000
      0.1612777588D+00  0.1000000000D+01
 ****
     41 0
 S   6 1.00       0.000000000000
      0.3047524880D+04  0.1834737132D-02
      0.4573695180D+03  0.1403732281D-01
      0.1039486850D+03  0.6884262226D-01
      0.2921015530D+02  0.2321844432D+00
      0.9286662960D+01  0.4679413484D+00
      0.3163926960D+01  0.3623119853D+00
 SP   3 1.00       0.000000000000
      0.7868272350D+01 -0.1193324198D+00  0.6899906659D-01
      0.1881288540D+01 -0.1608541517D+00  0.3164239610D+00
      0.5442492580D+00  0.1143456438D+01  0.7443082909D+00
 SP   1 1.00       0.000000000000
      0.1687144782D+00  0.1000000000D+01  0.1000000000D+01
 D   1 1.00       0.000000000000
      0.8000000000D+00  0.1000000000D+01
 ****
     42 0
 S   3 1.00       0.000000000000
      0.1873113696D+02  0.3349460434D-01
      0.2825394365D+01  0.2347269535D+00
      0.6401216923D+00  0.8137573261D+00
 S   1 1.00       0.000000000000
      0.1612777588D+00  0.1000000000D+01
 ****
     43 0
 S   3 1.00       0.000000000000
      0.1873113696D+02  0.3349460434D-01
      0.2825394365D+01  0.2347269535D+00
      0.6401216923D+00  0.8137573261D+00
 S   1 1.00       0.000000000000
      0.1612777588D+00  0.1000000000D+01
 ****
     44 0
 S   3 1.00       0.000000000000
      0.1873113696D+02  0.3349460434D-01
      0.2825394365D+01  0.2347269535D+00
      0.6401216923D+00  0.8137573261D+00
 S   1 1.00       0.000000000000
      0.1612777588D+00  0.1000000000D+01
 ****
     45 0
 S   6 1.00       0.000000000000
      0.3047524880D+04  0.1834737132D-02
      0.4573695180D+03  0.1403732281D-01
      0.1039486850D+03  0.6884262226D-01
      0.2921015530D+02  0.2321844432D+00
      0.9286662960D+01  0.4679413484D+00
      0.3163926960D+01  0.3623119853D+00
 SP   3 1.00       0.000000000000
      0.7868272350D+01 -0.1193324198D+00  0.6899906659D-01
      0.1881288540D+01 -0.1608541517D+00  0.3164239610D+00
      0.5442492580D+00  0.1143456438D+01  0.7443082909D+00
 SP   1 1.00       0.000000000000
      0.1687144782D+00  0.1000000000D+01  0.1000000000D+01
 D   1 1.00       0.000000000000
      0.8000000000D+00  0.1000000000D+01
 ****
     46 0
 S   3 1.00       0.000000000000
      0.1873113696D+02  0.3349460434D-01
      0.2825394365D+01  0.2347269535D+00
      0.6401216923D+00  0.8137573261D+00
 S   1 1.00       0.000000000000
      0.1612777588D+00  0.1000000000D+01
 ****
     47 0
 S   3 1.00       0.000000000000
      0.1873113696D+02  0.3349460434D-01
      0.2825394365D+01  0.2347269535D+00
      0.6401216923D+00  0.8137573261D+00
 S   1 1.00       0.000000000000
      0.1612777588D+00  0.1000000000D+01
 ****
     48 0
 S   6 1.00       0.000000000000
      0.3047524880D+04  0.1834737132D-02
      0.4573695180D+03  0.1403732281D-01
      0.1039486850D+03  0.6884262226D-01
      0.2921015530D+02  0.2321844432D+00
      0.9286662960D+01  0.4679413484D+00
      0.3163926960D+01  0.3623119853D+00
 SP   3 1.00       0.000000000000
      0.7868272350D+01 -0.1193324198D+00  0.6899906659D-01
      0.1881288540D+01 -0.1608541517D+00  0.3164239610D+00
      0.5442492580D+00  0.1143456438D+01  0.7443082909D+00
 SP   1 1.00       0.000000000000
      0.1687144782D+00  0.1000000000D+01  0.1000000000D+01
 D   1 1.00       0.000000000000
      0.8000000000D+00  0.1000000000D+01
 ****
     49 0
 S   3 1.00       0.000000000000
      0.1873113696D+02  0.3349460434D-01
      0.2825394365D+01  0.2347269535D+00
      0.6401216923D+00  0.8137573261D+00
 S   1 1.00       0.000000000000
      0.1612777588D+00  0.1000000000D+01
 ****
     50 0
 S   3 1.00       0.000000000000
      0.1873113696D+02  0.3349460434D-01
      0.2825394365D+01  0.2347269535D+00
      0.6401216923D+00  0.8137573261D+00
 S   1 1.00       0.000000000000
      0.1612777588D+00  0.1000000000D+01
 ****
     51 0
 S   6 1.00       0.000000000000
      0.3047524880D+04  0.1834737132D-02
      0.4573695180D+03  0.1403732281D-01
      0.1039486850D+03  0.6884262226D-01
      0.2921015530D+02  0.2321844432D+00
      0.9286662960D+01  0.4679413484D+00
      0.3163926960D+01  0.3623119853D+00
 SP   3 1.00       0.000000000000
      0.7868272350D+01 -0.1193324198D+00  0.6899906659D-01
      0.1881288540D+01 -0.1608541517D+00  0.3164239610D+00
      0.5442492580D+00  0.1143456438D+01  0.7443082909D+00
 SP   1 1.00       0.000000000000
      0.1687144782D+00  0.1000000000D+01  0.1000000000D+01
 D   1 1.00       0.000000000000
      0.8000000000D+00  0.1000000000D+01
 ****
     52 0
 S   3 1.00       0.000000000000
      0.1873113696D+02  0.3349460434D-01
      0.2825394365D+01  0.2347269535D+00
      0.6401216923D+00  0.8137573261D+00
 S   1 1.00       0.000000000000
      0.1612777588D+00  0.1000000000D+01
 ****
     53 0
 S   3 1.00       0.000000000000
      0.1873113696D+02  0.3349460434D-01
      0.2825394365D+01  0.2347269535D+00
      0.6401216923D+00  0.8137573261D+00
 S   1 1.00       0.000000000000
      0.1612777588D+00  0.1000000000D+01
 ****
     54 0
 S   6 1.00       0.000000000000
      0.3047524880D+04  0.1834737132D-02
      0.4573695180D+03  0.1403732281D-01
      0.1039486850D+03  0.6884262226D-01
      0.2921015530D+02  0.2321844432D+00
      0.9286662960D+01  0.4679413484D+00
      0.3163926960D+01  0.3623119853D+00
 SP   3 1.00       0.000000000000
      0.7868272350D+01 -0.1193324198D+00  0.6899906659D-01
      0.1881288540D+01 -0.1608541517D+00  0.3164239610D+00
      0.5442492580D+00  0.1143456438D+01  0.7443082909D+00
 SP   1 1.00       0.000000000000
      0.1687144782D+00  0.1000000000D+01  0.1000000000D+01
 D   1 1.00       0.000000000000
      0.8000000000D+00  0.1000000000D+01
 ****
     55 0
 S   3 1.00       0.000000000000
      0.1873113696D+02  0.3349460434D-01
      0.2825394365D+01  0.2347269535D+00
      0.6401216923D+00  0.8137573261D+00
 S   1 1.00       0.000000000000
      0.1612777588D+00  0.1000000000D+01
 ****
     56 0
 S   6 1.00       0.000000000000
      0.3047524880D+04  0.1834737132D-02
      0.4573695180D+03  0.1403732281D-01
      0.1039486850D+03  0.6884262226D-01
      0.2921015530D+02  0.2321844432D+00
      0.9286662960D+01  0.4679413484D+00
      0.3163926960D+01  0.3623119853D+00
 SP   3 1.00       0.000000000000
      0.7868272350D+01 -0.1193324198D+00  0.6899906659D-01
      0.1881288540D+01 -0.1608541517D+00  0.3164239610D+00
      0.5442492580D+00  0.1143456438D+01  0.7443082909D+00
 SP   1 1.00       0.000000000000
      0.1687144782D+00  0.1000000000D+01  0.1000000000D+01
 D   1 1.00       0.000000000000
      0.8000000000D+00  0.1000000000D+01
 ****
     57 0
 S   3 1.00       0.000000000000
      0.1873113696D+02  0.3349460434D-01
      0.2825394365D+01  0.2347269535D+00
      0.6401216923D+00  0.8137573261D+00
 S   1 1.00       0.000000000000
      0.1612777588D+00  0.1000000000D+01
 ****
     58 0
 S   3 1.00       0.000000000000
      0.1873113696D+02  0.3349460434D-01
      0.2825394365D+01  0.2347269535D+00
      0.6401216923D+00  0.8137573261D+00
 S   1 1.00       0.000000000000
      0.1612777588D+00  0.1000000000D+01
 ****
     59 0
 S   3 1.00       0.000000000000
      0.1873113696D+02  0.3349460434D-01
      0.2825394365D+01  0.2347269535D+00
      0.6401216923D+00  0.8137573261D+00
 S   1 1.00       0.000000000000
      0.1612777588D+00  0.1000000000D+01
 ****
     60 0
 S   6 1.00       0.000000000000
      0.3047524880D+04  0.1834737132D-02
      0.4573695180D+03  0.1403732281D-01
      0.1039486850D+03  0.6884262226D-01
      0.2921015530D+02  0.2321844432D+00
      0.9286662960D+01  0.4679413484D+00
      0.3163926960D+01  0.3623119853D+00
 SP   3 1.00       0.000000000000
      0.7868272350D+01 -0.1193324198D+00  0.6899906659D-01
      0.1881288540D+01 -0.1608541517D+00  0.3164239610D+00
      0.5442492580D+00  0.1143456438D+01  0.7443082909D+00
 SP   1 1.00       0.000000000000
      0.1687144782D+00  0.1000000000D+01  0.1000000000D+01
 D   1 1.00       0.000000000000
      0.8000000000D+00  0.1000000000D+01
 ****
     61 0
 S   3 1.00       0.000000000000
      0.1873113696D+02  0.3349460434D-01
      0.2825394365D+01  0.2347269535D+00
      0.6401216923D+00  0.8137573261D+00
 S   1 1.00       0.000000000000
      0.1612777588D+00  0.1000000000D+01
 ****
     62 0
 S   3 1.00       0.000000000000
      0.1873113696D+02  0.3349460434D-01
      0.2825394365D+01  0.2347269535D+00
      0.6401216923D+00  0.8137573261D+00
 S   1 1.00       0.000000000000
      0.1612777588D+00  0.1000000000D+01
 ****
     63 0
 S   6 1.00       0.000000000000
      0.3047524880D+04  0.1834737132D-02
      0.4573695180D+03  0.1403732281D-01
      0.1039486850D+03  0.6884262226D-01
      0.2921015530D+02  0.2321844432D+00
      0.9286662960D+01  0.4679413484D+00
      0.3163926960D+01  0.3623119853D+00
 SP   3 1.00       0.000000000000
      0.7868272350D+01 -0.1193324198D+00  0.6899906659D-01
      0.1881288540D+01 -0.1608541517D+00  0.3164239610D+00
      0.5442492580D+00  0.1143456438D+01  0.7443082909D+00
 SP   1 1.00       0.000000000000
      0.1687144782D+00  0.1000000000D+01  0.1000000000D+01
 D   1 1.00       0.000000000000
      0.8000000000D+00  0.1000000000D+01
 ****
     64 0
 S   3 1.00       0.000000000000
      0.1873113696D+02  0.3349460434D-01
      0.2825394365D+01  0.2347269535D+00
      0.6401216923D+00  0.8137573261D+00
 S   1 1.00       0.000000000000
      0.1612777588D+00  0.1000000000D+01
 ****
     65 0
 S   3 1.00       0.000000000000
      0.1873113696D+02  0.3349460434D-01
      0.2825394365D+01  0.2347269535D+00
      0.6401216923D+00  0.8137573261D+00
 S   1 1.00       0.000000000000
      0.1612777588D+00  0.1000000000D+01
 ****
     66 0
 S   6 1.00       0.000000000000
      0.3047524880D+04  0.1834737132D-02
      0.4573695180D+03  0.1403732281D-01
      0.1039486850D+03  0.6884262226D-01
      0.2921015530D+02  0.2321844432D+00
      0.9286662960D+01  0.4679413484D+00
      0.3163926960D+01  0.3623119853D+00
 SP   3 1.00       0.000000000000
      0.7868272350D+01 -0.1193324198D+00  0.6899906659D-01
      0.1881288540D+01 -0.1608541517D+00  0.3164239610D+00
      0.5442492580D+00  0.1143456438D+01  0.7443082909D+00
 SP   1 1.00       0.000000000000
      0.1687144782D+00  0.1000000000D+01  0.1000000000D+01
 D   1 1.00       0.000000000000
      0.8000000000D+00  0.1000000000D+01
 ****
     67 0
 S   3 1.00       0.000000000000
      0.1873113696D+02  0.3349460434D-01
      0.2825394365D+01  0.2347269535D+00
      0.6401216923D+00  0.8137573261D+00
 S   1 1.00       0.000000000000
      0.1612777588D+00  0.1000000000D+01
 ****
     68 0
 S   6 1.00       0.000000000000
      0.3047524880D+04  0.1834737132D-02
      0.4573695180D+03  0.1403732281D-01
      0.1039486850D+03  0.6884262226D-01
      0.2921015530D+02  0.2321844432D+00
      0.9286662960D+01  0.4679413484D+00
      0.3163926960D+01  0.3623119853D+00
 SP   3 1.00       0.000000000000
      0.7868272350D+01 -0.1193324198D+00  0.6899906659D-01
      0.1881288540D+01 -0.1608541517D+00  0.3164239610D+00
      0.5442492580D+00  0.1143456438D+01  0.7443082909D+00
 SP   1 1.00       0.000000000000
      0.1687144782D+00  0.1000000000D+01  0.1000000000D+01
 D   1 1.00       0.000000000000
      0.8000000000D+00  0.1000000000D+01
 ****
     69 0
 S   3 1.00       0.000000000000
      0.1873113696D+02  0.3349460434D-01
      0.2825394365D+01  0.2347269535D+00
      0.6401216923D+00  0.8137573261D+00
 S   1 1.00       0.000000000000
      0.1612777588D+00  0.1000000000D+01
 ****
     70 0
 S   3 1.00       0.000000000000
      0.1873113696D+02  0.3349460434D-01
      0.2825394365D+01  0.2347269535D+00
      0.6401216923D+00  0.8137573261D+00
 S   1 1.00       0.000000000000
      0.1612777588D+00  0.1000000000D+01
 ****
     71 0
 S   3 1.00       0.000000000000
      0.1873113696D+02  0.3349460434D-01
      0.2825394365D+01  0.2347269535D+00
      0.6401216923D+00  0.8137573261D+00
 S   1 1.00       0.000000000000
      0.1612777588D+00  0.1000000000D+01
 ****
     72 0
 S   6 1.00       0.000000000000
      0.3047524880D+04  0.1834737132D-02
      0.4573695180D+03  0.1403732281D-01
      0.1039486850D+03  0.6884262226D-01
      0.2921015530D+02  0.2321844432D+00
      0.9286662960D+01  0.4679413484D+00
      0.3163926960D+01  0.3623119853D+00
 SP   3 1.00       0.000000000000
      0.7868272350D+01 -0.1193324198D+00  0.6899906659D-01
      0.1881288540D+01 -0.1608541517D+00  0.3164239610D+00
      0.5442492580D+00  0.1143456438D+01  0.7443082909D+00
 SP   1 1.00       0.000000000000
      0.1687144782D+00  0.1000000000D+01  0.1000000000D+01
 D   1 1.00       0.000000000000
      0.8000000000D+00  0.1000000000D+01
 ****
     73 0
 S   3 1.00       0.000000000000
      0.1873113696D+02  0.3349460434D-01
      0.2825394365D+01  0.2347269535D+00
      0.6401216923D+00  0.8137573261D+00
 S   1 1.00       0.000000000000
      0.1612777588D+00  0.1000000000D+01
 ****
     74 0
 S   3 1.00       0.000000000000
      0.1873113696D+02  0.3349460434D-01
      0.2825394365D+01  0.2347269535D+00
      0.6401216923D+00  0.8137573261D+00
 S   1 1.00       0.000000000000
      0.1612777588D+00  0.1000000000D+01
 ****
     75 0
 S   3 1.00       0.000000000000
      0.1873113696D+02  0.3349460434D-01
      0.2825394365D+01  0.2347269535D+00
      0.6401216923D+00  0.8137573261D+00
 S   1 1.00       0.000000000000
      0.1612777588D+00  0.1000000000D+01
 ****

 AO basis set (Overlap normalization):
 Atom O1       Shell     1 S   6     bf    1 -     1          0.000000000000          0.000000000000          0.000000000000
      0.5484671660D+04  0.1831074430D-02
      0.8252349460D+03  0.1395017220D-01
      0.1880469580D+03  0.6844507810D-01
      0.5296450000D+02  0.2327143360D+00
      0.1689757040D+02  0.4701928980D+00
      0.5799635340D+01  0.3585208530D+00
 Atom O1       Shell     2 SP   3    bf    2 -     5          0.000000000000          0.000000000000          0.000000000000
      0.1553961625D+02 -0.1107775495D+00  0.7087426823D-01
      0.3599933586D+01 -0.1480262627D+00  0.3397528391D+00
      0.1013761750D+01  0.1130767015D+01  0.7271585773D+00
 Atom O1       Shell     3 SP   1    bf    6 -     9          0.000000000000          0.000000000000          0.000000000000
      0.2700058226D+00  0.1000000000D+01  0.1000000000D+01
 Atom O1       Shell     4 D   1     bf   10 -    15          0.000000000000          0.000000000000          0.000000000000
      0.8000000000D+00  0.1000000000D+01
 Atom H2       Shell     5 S   3     bf   16 -    16         -0.435152641236          1.105191399982         -1.387493788624
      0.1873113696D+02  0.3349460434D-01
      0.2825394365D+01  0.2347269535D+00
      0.6401216923D+00  0.8137573261D+00
 Atom H2       Shell     6 S   1     bf   17 -    17         -0.435152641236          1.105191399982         -1.387493788624
      0.1612777588D+00  0.1000000000D+01
 Atom O3       Shell     7 S   6     bf   18 -    18         -4.520215687999         11.859849740548          0.000000000000
      0.5484671660D+04  0.1831074430D-02
      0.8252349460D+03  0.1395017220D-01
      0.1880469580D+03  0.6844507810D-01
      0.5296450000D+02  0.2327143360D+00
      0.1689757040D+02  0.4701928980D+00
      0.5799635340D+01  0.3585208530D+00
 Atom O3       Shell     8 SP   3    bf   19 -    22         -4.520215687999         11.859849740548          0.000000000000
      0.1553961625D+02 -0.1107775495D+00  0.7087426823D-01
      0.3599933586D+01 -0.1480262627D+00  0.3397528391D+00
      0.1013761750D+01  0.1130767015D+01  0.7271585773D+00
 Atom O3       Shell     9 SP   1    bf   23 -    26         -4.520215687999         11.859849740548          0.000000000000
      0.2700058226D+00  0.1000000000D+01  0.1000000000D+01
 Atom O3       Shell    10 D   1     bf   27 -    32         -4.520215687999         11.859849740548          0.000000000000
      0.8000000000D+00  0.1000000000D+01
 Atom H4       Shell    11 S   3     bf   33 -    33         -4.089622880332         12.940303642793          1.410796738562
      0.1873113696D+02  0.3349460434D-01
      0.2825394365D+01  0.2347269535D+00
      0.6401216923D+00  0.8137573261D+00
 Atom H4       Shell    12 S   1     bf   34 -    34         -4.089622880332         12.940303642793          1.410796738562
      0.1612777588D+00  0.1000000000D+01
 Atom C5       Shell    13 S   6     bf   35 -    35          8.033108552288          0.998865562272          1.366115411369
      0.3047524880D+04  0.1834737132D-02
      0.4573695180D+03  0.1403732281D-01
      0.1039486850D+03  0.6884262226D-01
      0.2921015530D+02  0.2321844432D+00
      0.9286662960D+01  0.4679413484D+00
      0.3163926960D+01  0.3623119853D+00
 Atom C5       Shell    14 SP   3    bf   36 -    39          8.033108552288          0.998865562272          1.366115411369
      0.7868272350D+01 -0.1193324198D+00  0.6899906659D-01
      0.1881288540D+01 -0.1608541517D+00  0.3164239610D+00
      0.5442492580D+00  0.1143456438D+01  0.7443082909D+00
 Atom C5       Shell    15 SP   1    bf   40 -    43          8.033108552288          0.998865562272          1.366115411369
      0.1687144782D+00  0.1000000000D+01  0.1000000000D+01
 Atom C5       Shell    16 D   1     bf   44 -    49          8.033108552288          0.998865562272          1.366115411369
      0.8000000000D+00  0.1000000000D+01
 Atom C6       Shell    17 S   6     bf   50 -    50          5.199868919774          0.260931721470          1.420104376759
      0.3047524880D+04  0.1834737132D-02
      0.4573695180D+03  0.1403732281D-01
      0.1039486850D+03  0.6884262226D-01
      0.2921015530D+02  0.2321844432D+00
      0.9286662960D+01  0.4679413484D+00
      0.3163926960D+01  0.3623119853D+00
 Atom C6       Shell    18 SP   3    bf   51 -    54          5.199868919774          0.260931721470          1.420104376759
      0.7868272350D+01 -0.1193324198D+00  0.6899906659D-01
      0.1881288540D+01 -0.1608541517D+00  0.3164239610D+00
      0.5442492580D+00  0.1143456438D+01  0.7443082909D+00
 Atom C6       Shell    19 SP   1    bf   55 -    58          5.199868919774          0.260931721470          1.420104376759
      0.1687144782D+00  0.1000000000D+01  0.1000000000D+01
 Atom C6       Shell    20 D   1     bf   59 -    64          5.199868919774          0.260931721470          1.420104376759
      0.8000000000D+00  0.1000000000D+01
 Atom H7       Shell    21 S   3     bf   65 -    65          4.706070045298         -0.201449435595         -0.543342334728
      0.1873113696D+02  0.3349460434D-01
      0.2825394365D+01  0.2347269535D+00
      0.6401216923D+00  0.8137573261D+00
 Atom H7       Shell    22 S   1     bf   66 -    66          4.706070045298         -0.201449435595         -0.543342334728
      0.1612777588D+00  0.1000000000D+01
 Atom C8       Shell    23 S   6     bf   67 -    67          3.415685427602          2.409139923839          2.188645242462
      0.3047524880D+04  0.1834737132D-02
      0.4573695180D+03  0.1403732281D-01
      0.1039486850D+03  0.6884262226D-01
      0.2921015530D+02  0.2321844432D+00
      0.9286662960D+01  0.4679413484D+00
      0.3163926960D+01  0.3623119853D+00
 Atom C8       Shell    24 SP   3    bf   68 -    71          3.415685427602          2.409139923839          2.188645242462
      0.7868272350D+01 -0.1193324198D+00  0.6899906659D-01
      0.1881288540D+01 -0.1608541517D+00  0.3164239610D+00
      0.5442492580D+00  0.1143456438D+01  0.7443082909D+00
 Atom C8       Shell    25 SP   1    bf   72 -    75          3.415685427602          2.409139923839          2.188645242462
      0.1687144782D+00  0.1000000000D+01  0.1000000000D+01
 Atom C8       Shell    26 D   1     bf   76 -    81          3.415685427602          2.409139923839          2.188645242462
      0.8000000000D+00  0.1000000000D+01
 Atom H9       Shell    27 S   3     bf   82 -    82          3.818127703163          2.965355791080          4.149846127824
      0.1873113696D+02  0.3349460434D-01
      0.2825394365D+01  0.2347269535D+00
      0.6401216923D+00  0.8137573261D+00
 Atom H9       Shell    28 S   1     bf   83 -    83          3.818127703163          2.965355791080          4.149846127824
      0.1612777588D+00  0.1000000000D+01
 Atom C10      Shell    29 S   6     bf   84 -    84          3.799236281088          4.723183102802          0.426265826151
      0.3047524880D+04  0.1834737132D-02
      0.4573695180D+03  0.1403732281D-01
      0.1039486850D+03  0.6884262226D-01
      0.2921015530D+02  0.2321844432D+00
      0.9286662960D+01  0.4679413484D+00
      0.3163926960D+01  0.3623119853D+00
 Atom C10      Shell    30 SP   3    bf   85 -    88          3.799236281088          4.723183102802          0.426265826151
      0.7868272350D+01 -0.1193324198D+00  0.6899906659D-01
      0.1881288540D+01 -0.1608541517D+00  0.3164239610D+00
      0.5442492580D+00  0.1143456438D+01  0.7443082909D+00
 Atom C10      Shell    31 SP   1    bf   89 -    92          3.799236281088          4.723183102802          0.426265826151
      0.1687144782D+00  0.1000000000D+01  0.1000000000D+01
 Atom C10      Shell    32 D   1     bf   93 -    98          3.799236281088          4.723183102802          0.426265826151
      0.8000000000D+00  0.1000000000D+01
 Atom H11      Shell    33 S   3     bf   99 -    99          3.086260620240          4.132628020445         -1.440618997994
      0.1873113696D+02  0.3349460434D-01
      0.2825394365D+01  0.2347269535D+00
      0.6401216923D+00  0.8137573261D+00
 Atom H11      Shell    34 S   1     bf  100 -   100          3.086260620240          4.132628020445         -1.440618997994
      0.1612777588D+00  0.1000000000D+01
 Atom C12      Shell    35 S   6     bf  101 -   101          9.192279242262         -1.592769466103          0.567366045110
      0.3047524880D+04  0.1834737132D-02
      0.4573695180D+03  0.1403732281D-01
      0.1039486850D+03  0.6884262226D-01
      0.2921015530D+02  0.2321844432D+00
      0.9286662960D+01  0.4679413484D+00
      0.3163926960D+01  0.3623119853D+00
 Atom C12      Shell    36 SP   3    bf  102 -   105          9.192279242262         -1.592769466103          0.567366045110
      0.7868272350D+01 -0.1193324198D+00  0.6899906659D-01
      0.1881288540D+01 -0.1608541517D+00  0.3164239610D+00
      0.5442492580D+00  0.1143456438D+01  0.7443082909D+00
 Atom C12      Shell    37 SP   1    bf  106 -   109          9.192279242262         -1.592769466103          0.567366045110
      0.1687144782D+00  0.1000000000D+01  0.1000000000D+01
 Atom C12      Shell    38 D   1     bf  110 -   115          9.192279242262         -1.592769466103          0.567366045110
      0.8000000000D+00  0.1000000000D+01
 Atom H13      Shell    39 S   3     bf  116 -   116          8.569954953434         -1.836585711221         -1.400181976798
      0.1873113696D+02  0.3349460434D-01
      0.2825394365D+01  0.2347269535D+00
      0.6401216923D+00  0.8137573261D+00
 Atom H13      Shell    40 S   1     bf  117 -   117          8.569954953434         -1.836585711221         -1.400181976798
      0.1612777588D+00  0.1000000000D+01
 Atom C14      Shell    41 S   6     bf  118 -   118          8.330160461267          3.130123828298         -0.588959322021
      0.3047524880D+04  0.1834737132D-02
      0.4573695180D+03  0.1403732281D-01
      0.1039486850D+03  0.6884262226D-01
      0.2921015530D+02  0.2321844432D+00
      0.9286662960D+01  0.4679413484D+00
      0.3163926960D+01  0.3623119853D+00
 Atom C14      Shell    42 SP   3    bf  119 -   122          8.330160461267          3.130123828298         -0.588959322021
      0.7868272350D+01 -0.1193324198D+00  0.6899906659D-01
      0.1881288540D+01 -0.1608541517D+00  0.3164239610D+00
      0.5442492580D+00  0.1143456438D+01  0.7443082909D+00
 Atom C14      Shell    43 SP   1    bf  123 -   126          8.330160461267          3.130123828298         -0.588959322021
      0.1687144782D+00  0.1000000000D+01  0.1000000000D+01
 Atom C14      Shell    44 D   1     bf  127 -   132          8.330160461267          3.130123828298         -0.588959322021
      0.8000000000D+00  0.1000000000D+01
 Atom H15      Shell    45 S   3     bf  133 -   133          7.830001392237          2.388191629355         -2.464186455563
      0.1873113696D+02  0.3349460434D-01
      0.2825394365D+01  0.2347269535D+00
      0.6401216923D+00  0.8137573261D+00
 Atom H15      Shell    46 S   1     bf  134 -   134          7.830001392237          2.388191629355         -2.464186455563
      0.1612777588D+00  0.1000000000D+01
 Atom H16      Shell    47 S   3     bf  135 -   135         10.298799251996          3.776375848319         -0.712587718970
      0.1873113696D+02  0.3349460434D-01
      0.2825394365D+01  0.2347269535D+00
      0.6401216923D+00  0.8137573261D+00
 Atom H16      Shell    48 S   1     bf  136 -   136         10.298799251996          3.776375848319         -0.712587718970
      0.1612777588D+00  0.1000000000D+01
 Atom C17      Shell    49 S   6     bf  137 -   137          2.131531596014          7.038788216002          1.233857825698
      0.3047524880D+04  0.1834737132D-02
      0.4573695180D+03  0.1403732281D-01
      0.1039486850D+03  0.6884262226D-01
      0.2921015530D+02  0.2321844432D+00
      0.9286662960D+01  0.4679413484D+00
      0.3163926960D+01  0.3623119853D+00
 Atom C17      Shell    50 SP   3    bf  138 -   141          2.131531596014          7.038788216002          1.233857825698
      0.7868272350D+01 -0.1193324198D+00  0.6899906659D-01
      0.1881288540D+01 -0.1608541517D+00  0.3164239610D+00
      0.5442492580D+00  0.1143456438D+01  0.7443082909D+00
 Atom C17      Shell    51 SP   1    bf  142 -   145          2.131531596014          7.038788216002          1.233857825698
      0.1687144782D+00  0.1000000000D+01  0.1000000000D+01
 Atom C17      Shell    52 D   1     bf  146 -   151          2.131531596014          7.038788216002          1.233857825698
      0.8000000000D+00  0.1000000000D+01
 Atom C18      Shell    53 S   6     bf  152 -   152          5.134839229452         -2.257354550818          2.876838864728
      0.3047524880D+04  0.1834737132D-02
      0.4573695180D+03  0.1403732281D-01
      0.1039486850D+03  0.6884262226D-01
      0.2921015530D+02  0.2321844432D+00
      0.9286662960D+01  0.4679413484D+00
      0.3163926960D+01  0.3623119853D+00
 Atom C18      Shell    54 SP   3    bf  153 -   156          5.134839229452         -2.257354550818          2.876838864728
      0.7868272350D+01 -0.1193324198D+00  0.6899906659D-01
      0.1881288540D+01 -0.1608541517D+00  0.3164239610D+00
      0.5442492580D+00  0.1143456438D+01  0.7443082909D+00
 Atom C18      Shell    55 SP   1    bf  157 -   160          5.134839229452         -2.257354550818          2.876838864728
      0.1687144782D+00  0.1000000000D+01  0.1000000000D+01
 Atom C18      Shell    56 D   1     bf  161 -   166          5.134839229452         -2.257354550818          2.876838864728
      0.8000000000D+00  0.1000000000D+01
 Atom H19      Shell    57 S   3     bf  167 -   167          3.493895182913         -3.398216232312          2.351829386825
      0.1873113696D+02  0.3349460434D-01
      0.2825394365D+01  0.2347269535D+00
      0.6401216923D+00  0.8137573261D+00
 Atom H19      Shell    58 S   1     bf  168 -   168          3.493895182913         -3.398216232312          2.351829386825
      0.1612777588D+00  0.1000000000D+01
 Atom H20      Shell    59 S   3     bf  169 -   169          5.019388868008         -1.933428959887          4.922286235532
      0.1873113696D+02  0.3349460434D-01
      0.2825394365D+01  0.2347269535D+00
      0.6401216923D+00  0.8137573261D+00
 Atom H20      Shell    60 S   1     bf  170 -   170          5.019388868008         -1.933428959887          4.922286235532
      0.1612777588D+00  0.1000000000D+01
 Atom C21      Shell    61 S   6     bf  171 -   171          6.622596860016          5.407174257607          0.044040237602
      0.3047524880D+04  0.1834737132D-02
      0.4573695180D+03  0.1403732281D-01
      0.1039486850D+03  0.6884262226D-01
      0.2921015530D+02  0.2321844432D+00
      0.9286662960D+01  0.4679413484D+00
      0.3163926960D+01  0.3623119853D+00
 Atom C21      Shell    62 SP   3    bf  172 -   175          6.622596860016          5.407174257607          0.044040237602
      0.7868272350D+01 -0.1193324198D+00  0.6899906659D-01
      0.1881288540D+01 -0.1608541517D+00  0.3164239610D+00
      0.5442492580D+00  0.1143456438D+01  0.7443082909D+00
 Atom C21      Shell    63 SP   1    bf  176 -   179          6.622596860016          5.407174257607          0.044040237602
      0.1687144782D+00  0.1000000000D+01  0.1000000000D+01
 Atom C21      Shell    64 D   1     bf  180 -   185          6.622596860016          5.407174257607          0.044040237602
      0.8000000000D+00  0.1000000000D+01
 Atom H22      Shell    65 S   3     bf  186 -   186          7.358885391863          6.326311102702          1.744132390847
      0.1873113696D+02  0.3349460434D-01
      0.2825394365D+01  0.2347269535D+00
      0.6401216923D+00  0.8137573261D+00
 Atom H22      Shell    66 S   1     bf  187 -   187          7.358885391863          6.326311102702          1.744132390847
      0.1612777588D+00  0.1000000000D+01
 Atom H23      Shell    67 S   3     bf  188 -   188          6.793068128497          6.805006114294         -1.474648354715
      0.1873113696D+02  0.3349460434D-01
      0.2825394365D+01  0.2347269535D+00
      0.6401216923D+00  0.8137573261D+00
 Atom H23      Shell    68 S   1     bf  189 -   189          6.793068128497          6.805006114294         -1.474648354715
      0.1612777588D+00  0.1000000000D+01
 Atom C24      Shell    69 S   6     bf  190 -   190          7.684840454175         -3.560278578550          2.167969503178
      0.3047524880D+04  0.1834737132D-02
      0.4573695180D+03  0.1403732281D-01
      0.1039486850D+03  0.6884262226D-01
      0.2921015530D+02  0.2321844432D+00
      0.9286662960D+01  0.4679413484D+00
      0.3163926960D+01  0.3623119853D+00
 Atom C24      Shell    70 SP   3    bf  191 -   194          7.684840454175         -3.560278578550          2.167969503178
      0.7868272350D+01 -0.1193324198D+00  0.6899906659D-01
      0.1881288540D+01 -0.1608541517D+00  0.3164239610D+00
      0.5442492580D+00  0.1143456438D+01  0.7443082909D+00
 Atom C24      Shell    71 SP   1    bf  195 -   198          7.684840454175         -3.560278578550          2.167969503178
      0.1687144782D+00  0.1000000000D+01  0.1000000000D+01
 Atom C24      Shell    72 D   1     bf  199 -   204          7.684840454175         -3.560278578550          2.167969503178
      0.8000000000D+00  0.1000000000D+01
 Atom H25      Shell    73 S   3     bf  205 -   205          8.720708120246         -4.098219112230          3.873611649795
      0.1873113696D+02  0.3349460434D-01
      0.2825394365D+01  0.2347269535D+00
      0.6401216923D+00  0.8137573261D+00
 Atom H25      Shell    74 S   1     bf  206 -   206          8.720708120246         -4.098219112230          3.873611649795
      0.1612777588D+00  0.1000000000D+01
 Atom H26      Shell    75 S   3     bf  207 -   207          7.376250841189         -5.304273302849          1.098503526917
      0.1873113696D+02  0.3349460434D-01
      0.2825394365D+01  0.2347269535D+00
      0.6401216923D+00  0.8137573261D+00
 Atom H26      Shell    76 S   1     bf  208 -   208          7.376250841189         -5.304273302849          1.098503526917
      0.1612777588D+00  0.1000000000D+01
 Atom C27      Shell    77 S   6     bf  209 -   209          0.627588763478          1.555523058511          2.160179541832
      0.3047524880D+04  0.1834737132D-02
      0.4573695180D+03  0.1403732281D-01
      0.1039486850D+03  0.6884262226D-01
      0.2921015530D+02  0.2321844432D+00
      0.9286662960D+01  0.4679413484D+00
      0.3163926960D+01  0.3623119853D+00
 Atom C27      Shell    78 SP   3    bf  210 -   213          0.627588763478          1.555523058511          2.160179541832
      0.7868272350D+01 -0.1193324198D+00  0.6899906659D-01
      0.1881288540D+01 -0.1608541517D+00  0.3164239610D+00
      0.5442492580D+00  0.1143456438D+01  0.7443082909D+00
 Atom C27      Shell    79 SP   1    bf  214 -   217          0.627588763478          1.555523058511          2.160179541832
      0.1687144782D+00  0.1000000000D+01  0.1000000000D+01
 Atom C27      Shell    80 D   1     bf  218 -   223          0.627588763478          1.555523058511          2.160179541832
      0.8000000000D+00  0.1000000000D+01
 Atom H28      Shell    81 S   3     bf  224 -   224          0.314730070185          0.290365887846          3.770318463481
      0.1873113696D+02  0.3349460434D-01
      0.2825394365D+01  0.2347269535D+00
      0.6401216923D+00  0.8137573261D+00
 Atom H28      Shell    82 S   1     bf  225 -   225          0.314730070185          0.290365887846          3.770318463481
      0.1612777588D+00  0.1000000000D+01
 Atom C29      Shell    83 S   6     bf  226 -   226         12.119189915771         -1.871185368392          0.493866904617
      0.3047524880D+04  0.1834737132D-02
      0.4573695180D+03  0.1403732281D-01
      0.1039486850D+03  0.6884262226D-01
      0.2921015530D+02  0.2321844432D+00
      0.9286662960D+01  0.4679413484D+00
      0.3163926960D+01  0.3623119853D+00
 Atom C29      Shell    84 SP   3    bf  227 -   230         12.119189915771         -1.871185368392          0.493866904617
      0.7868272350D+01 -0.1193324198D+00  0.6899906659D-01
      0.1881288540D+01 -0.1608541517D+00  0.3164239610D+00
      0.5442492580D+00  0.1143456438D+01  0.7443082909D+00
 Atom C29      Shell    85 SP   1    bf  231 -   234         12.119189915771         -1.871185368392          0.493866904617
      0.1687144782D+00  0.1000000000D+01  0.1000000000D+01
 Atom C29      Shell    86 D   1     bf  235 -   240         12.119189915771         -1.871185368392          0.493866904617
      0.8000000000D+00  0.1000000000D+01
 Atom H30      Shell    87 S   3     bf  241 -   241         12.883654623308          0.000000000000          0.000000000000
      0.1873113696D+02  0.3349460434D-01
      0.2825394365D+01  0.2347269535D+00
      0.6401216923D+00  0.8137573261D+00
 Atom H30      Shell    88 S   1     bf  242 -   242         12.883654623308          0.000000000000          0.000000000000
      0.1612777588D+00  0.1000000000D+01
 Atom C31      Shell    89 S   6     bf  243 -   243          9.026844131719          1.871827270565          3.968158370983
      0.3047524880D+04  0.1834737132D-02
      0.4573695180D+03  0.1403732281D-01
      0.1039486850D+03  0.6884262226D-01
      0.2921015530D+02  0.2321844432D+00
      0.9286662960D+01  0.4679413484D+00
      0.3163926960D+01  0.3623119853D+00
 Atom C31      Shell    90 SP   3    bf  244 -   247          9.026844131719          1.871827270565          3.968158370983
      0.7868272350D+01 -0.1193324198D+00  0.6899906659D-01
      0.1881288540D+01 -0.1608541517D+00  0.3164239610D+00
      0.5442492580D+00  0.1143456438D+01  0.7443082909D+00
 Atom C31      Shell    91 SP   1    bf  248 -   251          9.026844131719          1.871827270565          3.968158370983
      0.1687144782D+00  0.1000000000D+01  0.1000000000D+01
 Atom C31      Shell    92 D   1     bf  252 -   257          9.026844131719          1.871827270565          3.968158370983
      0.8000000000D+00  0.1000000000D+01
 Atom H32      Shell    93 S   3     bf  258 -   258          8.035390018648          3.545572918757          4.662640302621
      0.1873113696D+02  0.3349460434D-01
      0.2825394365D+01  0.2347269535D+00
      0.6401216923D+00  0.8137573261D+00
 Atom H32      Shell    94 S   1     bf  259 -   259          8.035390018648          3.545572918757          4.662640302621
      0.1612777588D+00  0.1000000000D+01
 Atom H33      Shell    95 S   3     bf  260 -   260          8.821736186331          0.408071864197          5.412558049565
      0.1873113696D+02  0.3349460434D-01
      0.2825394365D+01  0.2347269535D+00
      0.6401216923D+00  0.8137573261D+00
 Atom H33      Shell    96 S   1     bf  261 -   261          8.821736186331          0.408071864197          5.412558049565
      0.1612777588D+00  0.1000000000D+01
 Atom H34      Shell    97 S   3     bf  262 -   262         11.034730795680          2.361793761546          3.850382607046
      0.1873113696D+02  0.3349460434D-01
      0.2825394365D+01  0.2347269535D+00
      0.6401216923D+00  0.8137573261D+00
 Atom H34      Shell    98 S   1     bf  263 -   263         11.034730795680          2.361793761546          3.850382607046
      0.1612777588D+00  0.1000000000D+01
 Atom C35      Shell    99 S   6     bf  264 -   264         -0.555074642732          6.169170189129          1.894432080080
      0.3047524880D+04  0.1834737132D-02
      0.4573695180D+03  0.1403732281D-01
      0.1039486850D+03  0.6884262226D-01
      0.2921015530D+02  0.2321844432D+00
      0.9286662960D+01  0.4679413484D+00
      0.3163926960D+01  0.3623119853D+00
 Atom C35      Shell   100 SP   3    bf  265 -   268         -0.555074642732          6.169170189129          1.894432080080
      0.7868272350D+01 -0.1193324198D+00  0.6899906659D-01
      0.1881288540D+01 -0.1608541517D+00  0.3164239610D+00
      0.5442492580D+00  0.1143456438D+01  0.7443082909D+00
 Atom C35      Shell   101 SP   1    bf  269 -   272         -0.555074642732          6.169170189129          1.894432080080
      0.1687144782D+00  0.1000000000D+01  0.1000000000D+01
 Atom C35      Shell   102 D   1     bf  273 -   278         -0.555074642732          6.169170189129          1.894432080080
      0.8000000000D+00  0.1000000000D+01
 Atom C36      Shell   103 S   6     bf  279 -   279          1.966132087911          8.919119462034         -1.031204804632
      0.3047524880D+04  0.1834737132D-02
      0.4573695180D+03  0.1403732281D-01
      0.1039486850D+03  0.6884262226D-01
      0.2921015530D+02  0.2321844432D+00
      0.9286662960D+01  0.4679413484D+00
      0.3163926960D+01  0.3623119853D+00
 Atom C36      Shell   104 SP   3    bf  280 -   283          1.966132087911          8.919119462034         -1.031204804632
      0.7868272350D+01 -0.1193324198D+00  0.6899906659D-01
      0.1881288540D+01 -0.1608541517D+00  0.3164239610D+00
      0.5442492580D+00  0.1143456438D+01  0.7443082909D+00
 Atom C36      Shell   105 SP   1    bf  284 -   287          1.966132087911          8.919119462034         -1.031204804632
      0.1687144782D+00  0.1000000000D+01  0.1000000000D+01
 Atom C36      Shell   106 D   1     bf  288 -   293          1.966132087911          8.919119462034         -1.031204804632
      0.8000000000D+00  0.1000000000D+01
 Atom H37      Shell   107 S   3     bf  294 -   294          1.503822683748          7.836566829946         -2.742096440371
      0.1873113696D+02  0.3349460434D-01
      0.2825394365D+01  0.2347269535D+00
      0.6401216923D+00  0.8137573261D+00
 Atom H37      Shell   108 S   1     bf  295 -   295          1.503822683748          7.836566829946         -2.742096440371
      0.1612777588D+00  0.1000000000D+01
 Atom H38      Shell   109 S   3     bf  296 -   296          3.827903294243          9.761714424104         -1.358551555755
      0.1873113696D+02  0.3349460434D-01
      0.2825394365D+01  0.2347269535D+00
      0.6401216923D+00  0.8137573261D+00
 Atom H38      Shell   110 S   1     bf  297 -   297          3.827903294243          9.761714424104         -1.358551555755
      0.1612777588D+00  0.1000000000D+01
 Atom C39      Shell   111 S   6     bf  298 -   298         -1.171672947994          3.742632992976          2.313190421148
      0.3047524880D+04  0.1834737132D-02
      0.4573695180D+03  0.1403732281D-01
      0.1039486850D+03  0.6884262226D-01
      0.2921015530D+02  0.2321844432D+00
      0.9286662960D+01  0.4679413484D+00
      0.3163926960D+01  0.3623119853D+00
 Atom C39      Shell   112 SP   3    bf  299 -   302         -1.171672947994          3.742632992976          2.313190421148
      0.7868272350D+01 -0.1193324198D+00  0.6899906659D-01
      0.1881288540D+01 -0.1608541517D+00  0.3164239610D+00
      0.5442492580D+00  0.1143456438D+01  0.7443082909D+00
 Atom C39      Shell   113 SP   1    bf  303 -   306         -1.171672947994          3.742632992976          2.313190421148
      0.1687144782D+00  0.1000000000D+01  0.1000000000D+01
 Atom C39      Shell   114 D   1     bf  307 -   312         -1.171672947994          3.742632992976          2.313190421148
      0.8000000000D+00  0.1000000000D+01
 Atom H40      Shell   115 S   3     bf  313 -   313         -3.129348133515          3.261656590613          2.732791995810
[...]
 1556 Fit       0.000911
 1557 Fit      -0.001027
 1558 Fit       0.002669
 1559 Fit       0.001919
 1560 Fit       0.000443
 1561 Fit       0.000858
 1562 Fit       0.000118
 1563 Fit       0.002932
 1564 Fit       0.000432
 1565 Fit       0.001558
 1566 Fit       0.002902
 1567 Fit       0.003377
 1568 Fit      -0.001570
 1569 Fit      -0.000216
 1570 Fit       0.001122
 1571 Fit       0.001946
 1572 Fit       0.002223
 1573 Fit       0.002274
 1574 Fit      -0.000604
 1575 Fit      -0.000182
 1576 Fit      -0.000030
 1577 Fit      -0.000608
 1578 Fit       0.000482
 1579 Fit       0.002043
 1580 Fit       0.001719
 1581 Fit       0.001772
 1582 Fit       0.004210
 1583 Fit      -0.002458
 1584 Fit      -0.002528
 1585 Fit      -0.003095
 1586 Fit      -0.003281
 1587 Fit      -0.001352
 1588 Fit      -0.003003
 1589 Fit      -0.002883
 1590 Fit      -0.001900
 1591 Fit       0.000328
 1592 Fit       0.000419
 1593 Fit      -0.001164
 1594 Fit      -0.001232
 1595 Fit       0.001611
 1596 Fit       0.002184
 1597 Fit       0.001889
 1598 Fit      -0.002389
 1599 Fit      -0.000068
 1600 Fit       0.001752
 1601 Fit       0.003029
 1602 Fit      -0.000626
 1603 Fit       0.001432
 1604 Fit      -0.000623
 1605 Fit       0.001082
 1606 Fit       0.002762
 1607 Fit       0.002201
 1608 Fit       0.000373
 1609 Fit      -0.000877
 1610 Fit      -0.002083
 1611 Fit      -0.000255
 1612 Fit       0.003668
 1613 Fit       0.002472
 1614 Fit       0.000822
 1615 Fit      -0.001072
 1616 Fit      -0.002037
 1617 Fit      -0.002607
 1618 Fit      -0.000163
 1619 Fit       0.000381
 1620 Fit      -0.000565
 1621 Fit      -0.002701
 1622 Fit      -0.000180
 1623 Fit       0.000982
 1624 Fit       0.001796
 1625 Fit       0.001452
 1626 Fit      -0.000168
 1627 Fit      -0.002537
 1628 Fit       0.002016
 1629 Fit       0.002229
 1630 Fit       0.000729
 1631 Fit      -0.002061
 1632 Fit      -0.012452
 1633 Fit      -0.019252
 1634 Fit      -0.021785
 1635 Fit      -0.013738
 1636 Fit      -0.020213
 1637 Fit      -0.023891
 1638 Fit      -0.024829
 1639 Fit      -0.010136
 1640 Fit      -0.017577
 1641 Fit      -0.021921
 1642 Fit      -0.023319
 1643 Fit      -0.022025
 1644 Fit      -0.008120
 1645 Fit      -0.014696
 1646 Fit      -0.017257
 1647 Fit      -0.015878
 1648 Fit      -0.004060
 1649 Fit      -0.006055
 1650 Fit       0.006057
 1651 Fit       0.000774
 1652 Fit       0.014180
 1653 Fit       0.009497
 1654 Fit       0.003060
 1655 Fit       0.009263
 1656 Fit       0.015659
 1657 Fit       0.015209
 1658 Fit       0.010065
 1659 Fit       0.003731
 1660 Fit       0.002492
 1661 Fit       0.010935
 1662 Fit      -0.005742
 1663 Fit      -0.006237
 1664 Fit      -0.013380
 1665 Fit      -0.016034
 1666 Fit      -0.003406
 1667 Fit      -0.010242
 1668 Fit      -0.016403
 1669 Fit      -0.020597
 1670 Fit      -0.021522
 1671 Fit      -0.018018
 1672 Fit      -0.006504
 1673 Fit      -0.011644
 1674 Fit      -0.016836
 1675 Fit      -0.021378
 1676 Fit      -0.024013
 1677 Fit      -0.023244
 1678 Fit      -0.017903
 1679 Fit      -0.016549
 1680 Fit      -0.021113
 1681 Fit      -0.023784
 1682 Fit      -0.023369
 1683 Fit      -0.018420
 1684 Fit      -0.019757
 1685 Fit      -0.019493
 1686 Fit      -0.012717
 1687 Fit       0.019916
 1688 Fit       0.022796
 1689 Fit       0.017856
 1690 Fit       0.012331
 1691 Fit       0.024957
 1692 Fit       0.021528
 1693 Fit       0.017576
 1694 Fit       0.012177
 1695 Fit       0.005453
 1696 Fit       0.018805
 1697 Fit       0.015647
 1698 Fit       0.011456
 1699 Fit       0.005575
 1700 Fit       0.007172
 1701 Fit       0.002215
 1702 Fit      -0.008511
 1703 Fit       0.000023
 1704 Fit      -0.004695
 1705 Fit       0.001585
 1706 Fit       0.006145
 1707 Fit       0.004980
 1708 Fit       0.004993
 1709 Fit       0.004777
 1710 Fit       0.013932
 1711 Fit       0.011058
 1712 Fit       0.006891
 1713 Fit       0.009250
 1714 Fit      -0.003413
 1715 Fit      -0.003100
 1716 Fit      -0.002793
 1717 Fit       0.000711
 1718 Fit      -0.000599
 1719 Fit       0.001764
 1720 Fit       0.000702
 1721 Fit       0.001756
 1722 Fit       0.003456
 1723 Fit       0.004989
 1724 Fit       0.002118
 1725 Fit       0.002057
 1726 Fit       0.002904
 1727 Fit       0.004529
 1728 Fit       0.004686
 1729 Fit       0.003229
 1730 Fit       0.002622
 1731 Fit       0.003388
 1732 Fit       0.004985
 1733 Fit       0.004809
 1734 Fit       0.003816
 1735 Fit       0.004211
 1736 Fit       0.004359
 1737 Fit       0.002385
 1738 Fit       0.003168
 1739 Fit       0.003587
 1740 Fit       0.001180
 1741 Fit      -0.003413
 1742 Fit      -0.005764
 1743 Fit      -0.005212
 1744 Fit      -0.006598
 1745 Fit      -0.006406
 1746 Fit      -0.012008
 1747 Fit      -0.008206
 1748 Fit      -0.006468
 1749 Fit      -0.020282
 1750 Fit      -0.011224
 1751 Fit      -0.007440
 1752 Fit      -0.015769
 1753 Fit      -0.008942
 1754 Fit      -0.016102
 1755 Fit       0.002598
 1756 Fit       0.003751
 1757 Fit       0.003926
 1758 Fit       0.003639
 1759 Fit       0.001834
 1760 Fit       0.000352
 1761 Fit       0.001389
 1762 Fit      -0.000491
 1763 Fit      -0.002511
 1764 Fit      -0.002457
 1765 Fit      -0.000767
 1766 Fit       0.005071
 1767 Fit       0.006323
 1768 Fit       0.005490
 1769 Fit       0.007273
 1770 Fit       0.006734
 1771 Fit       0.004994
 1772 Fit       0.006860
 1773 Fit       0.005641
 1774 Fit       0.007676
 1775 Fit       0.004637
 1776 Fit       0.006546
 1777 Fit       0.007226
 1778 Fit       0.006100
 1779 Fit       0.005890
 1780 Fit      -0.005223
 1781 Fit      -0.003913
 1782 Fit      -0.005887
 1783 Fit      -0.001922
 1784 Fit       0.002665
 1785 Fit       0.000028
 1786 Fit       0.001236
 1787 Fit      -0.003064
 1788 Fit      -0.001583
 1789 Fit      -0.000114
 1790 Fit      -0.001841
 1791 Fit      -0.004754
 1792 Fit      -0.003105
 1793 Fit      -0.002200
 1794 Fit      -0.001509
 1795 Fit      -0.004157
 1796 Fit      -0.002183
 1797 Fit      -0.001060
 1798 Fit      -0.007966
 1799 Fit      -0.003967
 1800 Fit      -0.001759
 1801 Fit      -0.005295
 1802 Fit      -0.003040
 1803 Fit      -0.010867
 1804 Fit       0.003482
 1805 Fit       0.004549
 1806 Fit       0.004720
 1807 Fit       0.002426
 1808 Fit       0.002398
 1809 Fit       0.001732
 1810 Fit       0.002300
 1811 Fit       0.000581
 1812 Fit      -0.001223
 1813 Fit      -0.001911
 1814 Fit      -0.004621
 1815 Fit      -0.007490
 1816 Fit      -0.007794
 1817 Fit       0.000667
 1818 Fit       0.003207
 1819 Fit       0.000969
 1820 Fit       0.002657
 1821 Fit       0.000574
 1822 Fit       0.000434
 1823 Fit       0.000956
 1824 Fit       0.002526
 1825 Fit       0.001549
 1826 Fit       0.003760
 1827 Fit       0.003037
 1828 Fit       0.005584
 1829 Fit       0.005192
 1830 Fit       0.004310
 1831 Fit       0.006778
 1832 Fit       0.004022
 1833 Fit       0.002811
 1834 Fit       0.001942
 1835 Fit       0.003424
 1836 Fit       0.003796
 1837 Fit       0.003777
 1838 Fit       0.002156
 1839 Fit       0.004164
 1840 Fit       0.003583
 1841 Fit       0.004987
 1842 Fit       0.004546
 1843 Fit      -0.000008
 1844 Fit       0.006825
 1845 Fit       0.006149
 1846 Fit       0.012762
 1847 Fit       0.013806
 1848 Fit       0.007682
 1849 Fit       0.006799
 1850 Fit       0.006293
 1851 Fit       0.006478
 1852 Fit       0.007692
 1853 Fit       0.009336
 1854 Fit       0.008394
 1855 Fit       0.007266
 1856 Fit       0.010022
 1857 Fit       0.009743
 1858 Fit       0.009111
 1859 Fit       0.009285
 1860 Fit       0.008803
 1861 Fit       0.008029
 1862 Fit       0.008324
 1863 Fit       0.007655
 1864 Fit       0.007332
 1865 Fit       0.006893
 1866 Fit      -0.000167
 1867 Fit       0.002397
 1868 Fit      -0.000445
 1869 Fit      -0.000978
 1870 Fit      -0.000051
 1871 Fit       0.001230
 1872 Fit       0.001821
 1873 Fit       0.004134
 1874 Fit       0.002377
 1875 Fit       0.001821
 1876 Fit       0.004389
 1877 Fit       0.003269
 1878 Fit       0.001473
 1879 Fit       0.004126
 1880 Fit       0.002052
 1881 Fit      -0.001458
 1882 Fit       0.002965
 1883 Fit       0.000319
 1884 Fit      -0.005529
 1885 Fit       0.000087
 1886 Fit      -0.006290
 1887 Fit       0.005462
 1888 Fit       0.006460
 1889 Fit       0.005468
 1890 Fit       0.005262
 1891 Fit       0.006026
 1892 Fit       0.003599
 1893 Fit       0.006605
 1894 Fit       0.007370
 1895 Fit       0.006807
 1896 Fit       0.006746
 1897 Fit       0.006832
 1898 Fit       0.008011
 1899 Fit       0.008059
 1900 Fit       0.008278
 1901 Fit       0.008777
 1902 Fit       0.009150
 1903 Fit       0.009381
 1904 Fit       0.010008
 1905 Fit       0.007358
 1906 Fit       0.009805
 1907 Fit       0.008592
 1908 Fit       0.008633
 1909 Fit       0.012184
 1910 Fit       0.015396
 1911 Fit       0.011418
 1912 Fit       0.016701
 1913 Fit       0.005940
 1914 Fit       0.006299
 1915 Fit       0.005546
 1916 Fit       0.005575
 1917 Fit       0.004993
 1918 Fit       0.005908
 1919 Fit       0.006974
 1920 Fit       0.006573
 1921 Fit       0.001799
 1922 Fit       0.003812
 1923 Fit       0.001696
 1924 Fit       0.004036
 1925 Fit       0.003894
 1926 Fit       0.002998
 1927 Fit       0.002942
 1928 Fit       0.000739
 1929 Fit       0.002676
 1930 Fit       0.004830
 1931 Fit      -0.006642
 1932 Fit      -0.001336
 1933 Fit       0.002408
 1934 Fit      -0.005429
 1935 Fit       0.000439
 1936 Fit      -0.003386
 1937 Fit       0.001359
 1938 Fit       0.007999
 1939 Fit       0.012503
 1940 Fit       0.011110
 1941 Fit       0.006737
 1942 Fit       0.004037
 1943 Fit       0.004297
 1944 Fit       0.018375
 1945 Fit       0.013825
 1946 Fit       0.006855
 1947 Fit       0.007296
 1948 Fit       0.005691
 1949 Fit       0.022687
 1950 Fit       0.011333
 1951 Fit       0.013233
 1952 Fit       0.017614
 1953 Fit       0.009918
 1954 Fit       0.009822
 1955 Fit       0.010772
 1956 Fit       0.014138
 1957 Fit       0.007565
 1958 Fit       0.007066
 1959 Fit       0.007133
 1960 Fit       0.005429
 1961 Fit       0.003551
 1962 Fit      -0.000257
 1963 Fit      -0.009553
 1964 Fit       0.005963
 1965 Fit       0.004308
 1966 Fit       0.001217
 1967 Fit      -0.004498
 1968 Fit      -0.010123
 1969 Fit       0.005782
 1970 Fit       0.004320
 1971 Fit       0.001202
 1972 Fit      -0.000027
 1973 Fit       0.004420
 1974 Fit       0.006312
 1975 Fit       0.003963
 1976 Fit       0.000360
 1977 Fit       0.000467
 1978 Fit       0.000192
 1979 Fit       0.000908
 1980 Fit       0.000015
 1981 Fit       0.000167
 1982 Fit       0.000144
 1983 Fit      -0.005892
 1984 Fit      -0.006636
 1985 Fit      -0.004328
 1986 Fit       0.001797
 1987 Fit       0.006748
 1988 Fit      -0.012429
 1989 Fit      -0.003973
 1990 Fit       0.002373
 1991 Fit       0.008029
 1992 Fit      -0.004493
 1993 Fit      -0.002049
 1994 Fit       0.003874
 1995 Fit       0.008103
 1996 Fit       0.002882
 1997 Fit      -0.001867
 1998 Fit      -0.000460
 1999 Fit      -0.002424
 2000 Fit      -0.000920
 2001 Fit      -0.000132
 2002 Fit      -0.002991
 2003 Fit      -0.002971
 2004 Fit      -0.001443
 2005 Fit      -0.002870
 2006 Fit      -0.003169
 2007 Fit      -0.003042
 2008 Fit      -0.002309
 2009 Fit      -0.000179
 2010 Fit      -0.000195
 2011 Fit      -0.000595
 2012 Fit      -0.001527
 2013 Fit      -0.000853
 2014 Fit      -0.000754
 2015 Fit      -0.001292
 2016 Fit      -0.002300
 2017 Fit      -0.002910
 2018 Fit      -0.002119
 2019 Fit      -0.001979
 2020 Fit      -0.002711
 2021 Fit      -0.000028
 2022 Fit       0.002070
 2023 Fit       0.001505
 2024 Fit      -0.000008
 2025 Fit      -0.000347
 2026 Fit       0.001267
 2027 Fit       0.000515
 2028 Fit      -0.000035
 2029 Fit      -0.001953
 2030 Fit      -0.000211
 2031 Fit      -0.001318
 2032 Fit       0.000327
 2033 Fit      -0.000852
 2034 Fit       0.000501
 2035 Fit       0.001550
 2036 Fit       0.002329
 2037 Fit       0.001571
 2038 Fit      -0.000510
 2039 Fit      -0.002111
 2040 Fit      -0.000684
 2041 Fit       0.000694
 2042 Fit       0.001601
 2043 Fit       0.000785
 2044 Fit      -0.000774
 2045 Fit      -0.001352
 2046 Fit       0.000377
 2047 Fit      -0.000557
 2048 Fit      -0.000302
 2049 Fit       0.000441
 2050 Fit      -0.000189
 2051 Fit       0.000225
 2052 Fit       0.000440
 2053 Fit       0.000503
 2054 Fit       0.001286
 2055 Fit       0.000392
 2056 Fit      -0.000443
 2057 Fit       0.001814
 2058 Fit       0.000066
 2059 Fit       0.001431
 2060 Fit       0.003158
 2061 Fit       0.005145
 2062 Fit      -0.000101
 2063 Fit       0.001693
 2064 Fit       0.003704
 2065 Fit       0.000185
 2066 Fit      -0.002432
 2067 Fit      -0.002046
 2068 Fit      -0.001418
 2069 Fit       0.001552
 2070 Fit       0.002316
 2071 Fit      -0.002057
 2072 Fit      -0.000003
 2073 Fit       0.001151
 2074 Fit       0.001635
 2075 Fit       0.001370
 2076 Fit      -0.001685
 2077 Fit      -0.000070
 2078 Fit       0.000592
 2079 Fit       0.000718
 2080 Fit      -0.000417
 2081 Fit       0.001242
 2082 Fit       0.001550
 2083 Fit       0.001000
 2084 Fit      -0.000552
 2085 Fit       0.001096
 2086 Fit       0.000607
 2087 Fit      -0.000543
 2088 Fit       0.000362
 2089 Fit      -0.000143
 2090 Fit      -0.001203
 2091 Fit       0.001301
 2092 Fit       0.002168
 2093 Fit       0.001744
 2094 Fit       0.000439
 2095 Fit       0.003735
 2096 Fit       0.002200
 2097 Fit       0.000834
 2098 Fit       0.000454
 2099 Fit      -0.001215
 2100 Fit      -0.001023
 2101 Fit       0.001602
 2102 Fit      -0.000906
 2103 Fit      -0.000875
 2104 Fit      -0.000279
 2105 Fit       0.000112
 2106 Fit      -0.000096
 2107 Fit       0.000248
 2108 Fit      -0.000220
 2109 Fit       0.000325
 2110 Fit       0.000502
 2111 Fit       0.000156
 2112 Fit      -0.000816
 2113 Fit       0.001993
 2114 Fit       0.001535
 2115 Fit       0.000667
 2116 Fit      -0.000592
 2117 Fit       0.002448
 2118 Fit       0.001965
 2119 Fit       0.001108
 2120 Fit      -0.000065
 2121 Fit       0.001986
 2122 Fit       0.001402
 2123 Fit       0.000548
 2124 Fit       0.000342
 2125 Fit       0.002449
 2126 Fit       0.000729
 2127 Fit       0.001465
 2128 Fit       0.002456
 2129 Fit       0.002887
 2130 Fit      -0.000626
 2131 Fit       0.000388
 2132 Fit       0.001406
 2133 Fit       0.002085
 2134 Fit       0.002346
 2135 Fit       0.002391
 2136 Fit      -0.000599
 2137 Fit       0.000326
 2138 Fit       0.000902
 2139 Fit       0.001102
 2140 Fit       0.001338
 2141 Fit       0.000732
 2142 Fit       0.001074
 2143 Fit       0.001304
 2144 Fit       0.002811
 2145 Fit       0.002500
 2146 Fit       0.004529
 2147 Fit      -0.002039
 2148 Fit      -0.001662
 2149 Fit      -0.001877
 2150 Fit      -0.002326
 2151 Fit      -0.002436
 2152 Fit      -0.001472
 2153 Fit      -0.001120
 2154 Fit      -0.002430
 2155 Fit      -0.000476
 2156 Fit      -0.002208
 2157 Fit      -0.002094
 2158 Fit      -0.002312
 2159 Fit      -0.001819
 2160 Fit      -0.000325
 2161 Fit      -0.000237
 2162 Fit      -0.001272
 2163 Fit      -0.001421
 2164 Fit       0.000836
 2165 Fit       0.001220
 2166 Fit       0.000798
 2167 Fit      -0.001849
 2168 Fit      -0.000297
 2169 Fit       0.001353
 2170 Fit       0.002095
 2171 Fit      -0.001715
 2172 Fit      -0.000017
 2173 Fit       0.001411
 2174 Fit      -0.000794
 2175 Fit       0.001048
 2176 Fit      -0.000319
 2177 Fit       0.000923
 2178 Fit       0.002106
 2179 Fit       0.001701
 2180 Fit       0.000381
 2181 Fit      -0.000528
 2182 Fit      -0.001118
 2183 Fit       0.000278
 2184 Fit       0.002288
 2185 Fit       0.002932
 2186 Fit       0.002189
 2187 Fit       0.000959
 2188 Fit      -0.000424
 2189 Fit      -0.001520
 2190 Fit       0.002282
 2191 Fit       0.001133
 2192 Fit      -0.000647
 2193 Fit      -0.000348
 2194 Fit      -0.001026
 2195 Fit      -0.000211
 2196 Fit       0.000551
 2197 Fit       0.000886
 2198 Fit       0.000427
 2199 Fit      -0.000802
 2200 Fit       0.000553
 2201 Fit       0.001268
 2202 Fit       0.001525
 2203 Fit       0.000937
 2204 Fit      -0.000455
 2205 Fit       0.000475
 -----------------------------------------------------------------
 Leave Link  602 at Thu May 18 13:15:01 2017, MaxMem=   33554432 cpu:      21.3
 (Enter /scratch/michal/g09/l9999.exe)

 Test job not archived.
 1\1\GINC-RZEPICHA\SP\RHF\6-31G(d)\C27H46O2\MICHAL\18-May-2017\0\\#P HF
 /6-31G* SCF(Conver=6) NoSymm Test Pop=mk IOp(6/33=2) GFInput GFPrint\\
 MEP - Input generated by R.E.D.-III.x MOLECULE\\0,1\O,0,0.,0.,0.\H,0,-
 0.23027286,0.5848421,-0.73423009\O,0,-2.39199512,6.27596218,0.\H,0,-2.
 16413522,6.84771376,0.74656148\C,0,4.25093796,0.52857689,0.72291714\C,
 0,2.75165212,0.13807912,0.75148687\H,0,2.49034501,-0.10660245,-0.28752
 438\C,0,1.80750288,1.27486194,1.15818118\H,0,2.02046616,1.5691987,2.19
 600399\C,0,2.01046925,2.49940085,0.22557016\H,0,1.63317878,2.18689256,
 -0.76234274\C,0,4.86434467,-0.8428573,0.30023718\H,0,4.53502484,-0.971
 8793,-0.74094439\C,0,4.40813106,1.65639019,-0.31166385\H,0,4.14345828,
 1.26377658,-1.30399131\H,0,5.44988984,1.99837203,-0.37708518\C,0,1.127
 95794,3.7247663,0.65292944\C,0,2.71723989,-1.19454058,1.52235756\H,0,1
 .8488897,-1.79825858,1.24453451\H,0,2.65614619,-1.02312654,2.60476169\
 C,0,3.50452732,2.86135338,0.02330509\H,0,3.89415443,3.34773965,0.92295
 511\H,0,3.59473683,3.60105414,-0.7803503\C,0,4.06664242,-1.88401828,1.
 14724005\H,0,4.61479998,-2.16868415,2.049827\H,0,3.90334383,-2.8069005
 4,0.58130303\C,0,0.33210567,0.82314735,1.14311778\H,0,0.16654798,0.153
 65501,1.9951666\C,0,6.41319909,-0.99018865,0.26134311\H,0,6.81773639,0
 .,0.\C,0,4.77680018,0.99052833,2.09985897\H,0,4.25214526,1.87623638,2.
 46736298\H,0,4.66826173,0.21594233,2.86420236\H,0,5.83932804,1.2498074
 3,2.03753472\C,0,-0.29373285,3.26458426,1.00249028\C,0,1.04043229,4.71
 979474,-0.54569008\H,0,0.79578869,4.14693256,-1.45105494\H,0,2.0256391
 8,5.16567679,-0.71891452\C,0,-0.62002262,1.98051608,1.22408765\H,0,-1.
 65597971,1.72599433,1.44613124\C,0,1.72075858,4.45315961,1.89006659\H,
 0,2.65571492,4.96409252,1.64137574\H,0,1.03463135,5.21001723,2.2781579
 8\H,0,1.91988493,3.75109343,2.70527223\C,0,-1.35664536,4.34292539,1.10
 710921\H,0,-2.34149374,3.88991885,1.25729512\H,0,-1.16207145,4.9736413
 7,1.98925267\C,0,-0.00061707,5.83854326,-0.38744091\H,0,0.27490421,6.5
 059395,0.44243339\H,0,-0.02641143,6.45707391,-1.29172361\C,0,7.0830759
 1,-1.42119478,1.58954322\H,0,6.56223571,-0.9712147,2.43884451\H,0,6.97
 362048,-2.50886608,1.71027854\C,0,-1.39128187,5.26223621,-0.12324505\H
 ,0,-1.709161,4.67732204,-0.99517954\C,0,6.81337273,-1.95473221,-0.8742
 4822\H,0,6.36919721,-2.9454344,-0.71650045\H,0,7.89841527,-2.08599816,
 -0.9384187\H,0,6.4682217,-1.58650427,-1.84673025\C,0,8.57503012,-1.055
 76598,1.6743809\H,0,9.09274539,-1.41543901,0.7763535\H,0,8.67822012,0.
 03783754,1.65702505\C,0,9.30780717,-1.63486187,2.89841818\H,0,10.37799
 844,-1.39395511,2.81368676\H,0,9.24085117,-2.73164094,2.8560142\C,0,8.
 82070944,-1.17130425,4.28789445\H,0,7.75371861,-1.41982065,4.38024388\
 C,0,8.97110619,0.34545016,4.48589817\H,0,10.0211214,0.64888999,4.38240
 749\H,0,8.63637481,0.64490768,5.48563724\H,0,8.38621163,0.91747356,3.7
 5838835\C,0,9.5676217,-1.93489407,5.39327889\H,0,10.6442356,-1.7242881
 8,5.35500125\H,0,9.20856582,-1.64800584,6.38829736\H,0,9.43697597,-3.0
 1812727,5.2888463\\Version=EM64L-G09RevC.01\HF=-1198.9245309\RMSD=5.03
 1e-07\Dipole=0.5982346,0.7211232,0.3409927\Quadrupole=-5.159409,2.7442
 832,2.4151258,7.7906181,-2.5642377,5.4003007\PG=C01 [X(C27H46O2)]\\@


 IF I HAVE SEEN FARTHER, IT IS BY STANDING ON THE
 SHOULDERS OF GIANTS. -- SIR ISAAC NEWTON
 Job cpu time:  0 days  0 hours 42 minutes 57.0 seconds.
 File lengths (MBytes):  RWF=    151 Int=      0 D2E=      0 Chk=     11 Scr=      1
 Normal termination of Gaussian 09 at Thu May 18 13:15:01 2017.
