 Entering Gaussian System, Link 0=/scratch/michal/g09//g09
 Input=JOB2-gau_m1-12-4.com
 Output=JOB2-gau_m1-12-4.log
 Initial command:
 /scratch/michal/g09/l1.exe /scratch/michal/gauss_scratch/Gau-22825.inp -scrdir=/scratch/michal/gauss_scratch/
 Entering Link 1 = /scratch/michal/g09/l1.exe PID=     22827.
  
 Copyright (c) 1988,1990,1992,1993,1995,1998,2003,2009,2011,
            Gaussian, Inc.  All Rights Reserved.
  
 This is part of the Gaussian(R) 09 program.  It is based on
 the Gaussian(R) 03 system (copyright 2003, Gaussian, Inc.),
 the Gaussian(R) 98 system (copyright 1998, Gaussian, Inc.),
 the Gaussian(R) 94 system (copyright 1995, Gaussian, Inc.),
 the Gaussian 92(TM) system (copyright 1992, Gaussian, Inc.),
 the Gaussian 90(TM) system (copyright 1990, Gaussian, Inc.),
 the Gaussian 88(TM) system (copyright 1988, Gaussian, Inc.),
 the Gaussian 86(TM) system (copyright 1986, Carnegie Mellon
 University), and the Gaussian 82(TM) system (copyright 1983,
 Carnegie Mellon University). Gaussian is a federally registered
 trademark of Gaussian, Inc.
  
 This software contains proprietary and confidential information,
 including trade secrets, belonging to Gaussian, Inc.
  
 This software is provided under written license and may be
 used, copied, transmitted, or stored only in accord with that
 written license.
  
 The following legend is applicable only to US Government
 contracts under FAR:
  
                    RESTRICTED RIGHTS LEGEND
  
 Use, reproduction and disclosure by the US Government is
 subject to restrictions as set forth in subparagraphs (a)
 and (c) of the Commercial Computer Software - Restricted
 Rights clause in FAR 52.227-19.
  
 Gaussian, Inc.
 340 Quinnipiac St., Bldg. 40, Wallingford CT 06492
  
  
 ---------------------------------------------------------------
 Warning -- This program may not be used in any manner that
 competes with the business of Gaussian, Inc. or will provide
 assistance to any competitor of Gaussian, Inc.  The licensee
 of this program is prohibited from giving any competitor of
 Gaussian, Inc. access to this program.  By using this program,
 the user acknowledges that Gaussian, Inc. is engaged in the
 business of creating and licensing software in the field of
 computational chemistry and represents and warrants to the
 licensee that it is not a competitor of Gaussian, Inc. and that
 it will not use this program in any manner prohibited above.
 ---------------------------------------------------------------
  

 Cite this work as:
 Gaussian 09, Revision C.01,
 M. J. Frisch, G. W. Trucks, H. B. Schlegel, G. E. Scuseria, 
 M. A. Robb, J. R. Cheeseman, G. Scalmani, V. Barone, B. Mennucci, 
 G. A. Petersson, H. Nakatsuji, M. Caricato, X. Li, H. P. Hratchian, 
 A. F. Izmaylov, J. Bloino, G. Zheng, J. L. Sonnenberg, M. Hada, 
 M. Ehara, K. Toyota, R. Fukuda, J. Hasegawa, M. Ishida, T. Nakajima, 
 Y. Honda, O. Kitao, H. Nakai, T. Vreven, J. A. Montgomery, Jr., 
 J. E. Peralta, F. Ogliaro, M. Bearpark, J. J. Heyd, E. Brothers, 
 K. N. Kudin, V. N. Staroverov, T. Keith, R. Kobayashi, J. Normand, 
 K. Raghavachari, A. Rendell, J. C. Burant, S. S. Iyengar, J. Tomasi, 
 M. Cossi, N. Rega, J. M. Millam, M. Klene, J. E. Knox, J. B. Cross, 
 V. Bakken, C. Adamo, J. Jaramillo, R. Gomperts, R. E. Stratmann, 
 O. Yazyev, A. J. Austin, R. Cammi, C. Pomelli, J. W. Ochterski, 
 R. L. Martin, K. Morokuma, V. G. Zakrzewski, G. A. Voth, 
 P. Salvador, J. J. Dannenberg, S. Dapprich, A. D. Daniels, 
 O. Farkas, J. B. Foresman, J. V. Ortiz, J. Cioslowski, 
 and D. J. Fox, Gaussian, Inc., Wallingford CT, 2010.
 
 ******************************************
 Gaussian 09:  EM64L-G09RevC.01 23-Sep-2011
                18-May-2017 
 ******************************************
 %Mem=256MB
 %NProc=48
 Will use up to   48 processors via shared memory.
 ----------------------------------------------------------------------
 #P HF/6-31G* SCF(Conver=6) NoSymm Test Pop=mk IOp(6/33=2) GFInput GFPr
 int
 ----------------------------------------------------------------------
 1/38=1/1;
 2/12=2,15=1,17=6,18=5,40=1/2;
 3/5=1,6=6,7=1,11=9,16=1,24=110,25=1,30=1/1,2,3;
 4//1;
 5/5=2,6=6,38=5/2;
 6/7=2,8=2,9=2,10=2,15=8,20=1,28=1,33=2/1,2;
 99/5=1,9=1/99;
 Leave Link    1 at Thu May 18 13:24:46 2017, MaxMem=   33554432 cpu:       5.1
 (Enter /scratch/michal/g09/l101.exe)
 ----------------------------------------------
 MEP - Input generated by R.E.D.-III.x MOLECULE
 ----------------------------------------------
 Charge =  0 Multiplicity = 1
 Symbolic Z-Matrix:
 O                     0.        0.        0. 
 H                    -0.22987   0.58464  -0.73453 
 O                    -2.38471   6.2811    0. 
 H                    -2.1553    6.85206   0.74669 
 C                     4.25126   0.52643   0.72237 
 C                     2.75204   0.13605   0.75469 
 H                     2.48954  -0.11353  -0.28283 
 C                     1.80816   1.27451   1.15721 
 H                     2.02052   1.57204   2.19425 
 C                     2.01104   2.49682   0.22155 
 H                     1.63035   2.1832   -0.76472 
 C                     4.86359  -0.84765   0.30594 
 H                     4.52791  -0.98462  -0.73217 
 C                     4.40658   1.64903  -0.31802 
 H                     4.13893   1.25193  -1.30777 
 H                     5.44837   1.98997  -0.38788 
 C                     1.13121   3.7237    0.64982 
 C                     2.71829  -1.19255   1.53262 
 H                     1.8518   -1.79938   1.25567 
 H                     2.65379  -1.01539   2.6139 
 C                     3.50496   2.85639   0.01362 
 H                     3.89756   3.34714   0.90964 
 H                     3.5935    3.59192  -0.79404 
 C                     4.0703   -1.88153   1.16558 
 H                     4.61942  -2.15127   2.07208 
 H                     3.91116  -2.81261   0.61196 
 C                     0.33251   0.82365   1.1426 
 H                     0.16637   0.15494   1.99516 
 C                     6.41288  -0.99218   0.25868 
 H                     6.81413   0.        0. 
 C                     4.7789    0.99534   2.09626 
 H                     4.25125   1.88019   2.46132 
 H                     4.67549   0.22305   2.86362 
 H                     5.84027   1.25874   2.03062 
 C                    -0.29099   3.26559   1.00027 
 C                     1.0447    4.71937  -0.54827 
 H                     0.79872   4.14728  -1.45379 
 H                     2.03049   5.1638   -0.7217 
 C                    -0.61862   1.98199   1.22277 
 H                    -1.65473   1.72868   1.44551 
 C                     1.72619   4.45074   1.88678 
 H                     2.66178   4.96018   1.63741 
 H                     1.04172   5.20874   2.27562 
 H                     1.92488   3.74834   2.70182 
 C                    -1.35247   4.3454    1.10521 
 H                    -2.33795   3.89372   1.25519 
 H                    -1.15705   4.97528   1.98779 
 C                     0.00567   5.8397   -0.38869 
 H                     0.28258   6.5059    0.44173 
 H                    -0.01943   6.45911  -1.29239 
 C                     7.08663  -1.42544   1.58298 
 H                     6.60124  -0.93692   2.43457 
 H                     6.92953  -2.503     1.72336 
 C                    -1.38585   5.26568  -0.12449 
 H                    -1.7052    4.6821   -0.99678 
 C                     6.81191  -1.94988  -0.883 
 H                     6.38924  -2.94897  -0.7184 
 H                     7.89796  -2.05927  -0.96576 
 H                     6.44317  -1.58836  -1.8493 
 C                     8.59017  -1.10618   1.64997 
 H                     9.12621  -1.62648   0.84717 
 H                     8.72712  -0.03363   1.45174 
 C                     9.24918  -1.42547   3.00441 
 H                     8.73736  -0.84654   3.78692 
 H                     10.28598  -1.05775   2.9854 
 C                     9.27441  -2.90791   3.43447 
 H                     8.23835  -3.27373   3.47251 
 C                     9.86045  -3.03885   4.84953 
 H                     10.90166  -2.69223   4.87516 
 H                     9.849    -4.08034   5.19068 
 H                     9.29367  -2.44236   5.57371 
 C                     10.0507  -3.79263   2.44613 
 H                     11.08999  -3.45152   2.35185 
 H                     10.07307  -4.83378   2.78761 
 H                     9.60535  -3.78445   1.4461 
 
 NAtoms=     75 NQM=        0 NQMF=       0 NMMI=     75 NMMIF=      0
                NMic=       0 NMicF=      0.
                    Isotopes and Nuclear Properties:
 (Nuclear quadrupole moments (NQMom) in fm**2, nuclear magnetic moments (NMagM)
  in nuclear magnetons)

  Atom         1           2           3           4           5           6           7           8           9          10
 IAtWgt=          16           1          16           1          12          12           1          12           1          12
 AtmWgt=  15.9949146   1.0078250  15.9949146   1.0078250  12.0000000  12.0000000   1.0078250  12.0000000   1.0078250  12.0000000
 NucSpn=           0           1           0           1           0           0           1           0           1           0
 AtZEff=   0.0000000   0.0000000   0.0000000   0.0000000   0.0000000   0.0000000   0.0000000   0.0000000   0.0000000   0.0000000
 NQMom=    0.0000000   0.0000000   0.0000000   0.0000000   0.0000000   0.0000000   0.0000000   0.0000000   0.0000000   0.0000000
 NMagM=    0.0000000   2.7928460   0.0000000   2.7928460   0.0000000   0.0000000   2.7928460   0.0000000   2.7928460   0.0000000

  Atom        11          12          13          14          15          16          17          18          19          20
 IAtWgt=           1          12           1          12           1           1          12          12           1           1
 AtmWgt=   1.0078250  12.0000000   1.0078250  12.0000000   1.0078250   1.0078250  12.0000000  12.0000000   1.0078250   1.0078250
 NucSpn=           1           0           1           0           1           1           0           0           1           1
 AtZEff=   0.0000000   0.0000000   0.0000000   0.0000000   0.0000000   0.0000000   0.0000000   0.0000000   0.0000000   0.0000000
 NQMom=    0.0000000   0.0000000   0.0000000   0.0000000   0.0000000   0.0000000   0.0000000   0.0000000   0.0000000   0.0000000
 NMagM=    2.7928460   0.0000000   2.7928460   0.0000000   2.7928460   2.7928460   0.0000000   0.0000000   2.7928460   2.7928460

  Atom        21          22          23          24          25          26          27          28          29          30
 IAtWgt=          12           1           1          12           1           1          12           1          12           1
 AtmWgt=  12.0000000   1.0078250   1.0078250  12.0000000   1.0078250   1.0078250  12.0000000   1.0078250  12.0000000   1.0078250
 NucSpn=           0           1           1           0           1           1           0           1           0           1
 AtZEff=   0.0000000   0.0000000   0.0000000   0.0000000   0.0000000   0.0000000   0.0000000   0.0000000   0.0000000   0.0000000
 NQMom=    0.0000000   0.0000000   0.0000000   0.0000000   0.0000000   0.0000000   0.0000000   0.0000000   0.0000000   0.0000000
 NMagM=    0.0000000   2.7928460   2.7928460   0.0000000   2.7928460   2.7928460   0.0000000   2.7928460   0.0000000   2.7928460

  Atom        31          32          33          34          35          36          37          38          39          40
 IAtWgt=          12           1           1           1          12          12           1           1          12           1
 AtmWgt=  12.0000000   1.0078250   1.0078250   1.0078250  12.0000000  12.0000000   1.0078250   1.0078250  12.0000000   1.0078250
 NucSpn=           0           1           1           1           0           0           1           1           0           1
 AtZEff=   0.0000000   0.0000000   0.0000000   0.0000000   0.0000000   0.0000000   0.0000000   0.0000000   0.0000000   0.0000000
 NQMom=    0.0000000   0.0000000   0.0000000   0.0000000   0.0000000   0.0000000   0.0000000   0.0000000   0.0000000   0.0000000
 NMagM=    0.0000000   2.7928460   2.7928460   2.7928460   0.0000000   0.0000000   2.7928460   2.7928460   0.0000000   2.7928460

  Atom        41          42          43          44          45          46          47          48          49          50
 IAtWgt=          12           1           1           1          12           1           1          12           1           1
 AtmWgt=  12.0000000   1.0078250   1.0078250   1.0078250  12.0000000   1.0078250   1.0078250  12.0000000   1.0078250   1.0078250
 NucSpn=           0           1           1           1           0           1           1           0           1           1
 AtZEff=   0.0000000   0.0000000   0.0000000   0.0000000   0.0000000   0.0000000   0.0000000   0.0000000   0.0000000   0.0000000
 NQMom=    0.0000000   0.0000000   0.0000000   0.0000000   0.0000000   0.0000000   0.0000000   0.0000000   0.0000000   0.0000000
 NMagM=    0.0000000   2.7928460   2.7928460   2.7928460   0.0000000   2.7928460   2.7928460   0.0000000   2.7928460   2.7928460

  Atom        51          52          53          54          55          56          57          58          59          60
 IAtWgt=          12           1           1          12           1          12           1           1           1          12
 AtmWgt=  12.0000000   1.0078250   1.0078250  12.0000000   1.0078250  12.0000000   1.0078250   1.0078250   1.0078250  12.0000000
 NucSpn=           0           1           1           0           1           0           1           1           1           0
 AtZEff=   0.0000000   0.0000000   0.0000000   0.0000000   0.0000000   0.0000000   0.0000000   0.0000000   0.0000000   0.0000000
 NQMom=    0.0000000   0.0000000   0.0000000   0.0000000   0.0000000   0.0000000   0.0000000   0.0000000   0.0000000   0.0000000
 NMagM=    0.0000000   2.7928460   2.7928460   0.0000000   2.7928460   0.0000000   2.7928460   2.7928460   2.7928460   0.0000000

  Atom        61          62          63          64          65          66          67          68          69          70
 IAtWgt=           1           1          12           1           1          12           1          12           1           1
 AtmWgt=   1.0078250   1.0078250  12.0000000   1.0078250   1.0078250  12.0000000   1.0078250  12.0000000   1.0078250   1.0078250
 NucSpn=           1           1           0           1           1           0           1           0           1           1
 AtZEff=   0.0000000   0.0000000   0.0000000   0.0000000   0.0000000   0.0000000   0.0000000   0.0000000   0.0000000   0.0000000
 NQMom=    0.0000000   0.0000000   0.0000000   0.0000000   0.0000000   0.0000000   0.0000000   0.0000000   0.0000000   0.0000000
 NMagM=    2.7928460   2.7928460   0.0000000   2.7928460   2.7928460   0.0000000   2.7928460   0.0000000   2.7928460   2.7928460

  Atom        71          72          73          74          75
 IAtWgt=           1          12           1           1           1
 AtmWgt=   1.0078250  12.0000000   1.0078250   1.0078250   1.0078250
 NucSpn=           1           0           1           1           1
 AtZEff=   0.0000000   0.0000000   0.0000000   0.0000000   0.0000000
 NQMom=    0.0000000   0.0000000   0.0000000   0.0000000   0.0000000
 NMagM=    2.7928460   0.0000000   2.7928460   2.7928460   2.7928460
 Leave Link  101 at Thu May 18 13:24:46 2017, MaxMem=   33554432 cpu:       7.3
 (Enter /scratch/michal/g09/l202.exe)
 Symmetry turned off by external request.
 Stoichiometry    C27H46O2
 Framework group  C1[X(C27H46O2)]
 Deg. of freedom   219
 Full point group                 C1      NOp   1
                          Input orientation:                          
 ---------------------------------------------------------------------
 Center     Atomic      Atomic             Coordinates (Angstroms)
 Number     Number       Type             X           Y           Z
 ---------------------------------------------------------------------
      1          8           0        0.000000    0.000000    0.000000
      2          1           0       -0.229868    0.584641   -0.734532
      3          8           0       -2.384714    6.281097    0.000000
      4          1           0       -2.155299    6.852065    0.746686
      5          6           0        4.251261    0.526426    0.722368
      6          6           0        2.752037    0.136047    0.754685
      7          1           0        2.489535   -0.113528   -0.282826
      8          6           0        1.808161    1.274507    1.157214
      9          1           0        2.020515    1.572044    2.194251
     10          6           0        2.011041    2.496818    0.221547
     11          1           0        1.630351    2.183198   -0.764724
     12          6           0        4.863587   -0.847647    0.305941
     13          1           0        4.527914   -0.984616   -0.732169
     14          6           0        4.406580    1.649027   -0.318024
     15          1           0        4.138928    1.251931   -1.307769
     16          1           0        5.448369    1.989969   -0.387884
     17          6           0        1.131206    3.723699    0.649819
     18          6           0        2.718293   -1.192550    1.532617
     19          1           0        1.851803   -1.799384    1.255666
     20          1           0        2.653792   -1.015390    2.613904
     21          6           0        3.504959    2.856388    0.013620
     22          1           0        3.897563    3.347139    0.909638
     23          1           0        3.593495    3.591920   -0.794041
     24          6           0        4.070302   -1.881532    1.165582
     25          1           0        4.619419   -2.151268    2.072075
     26          1           0        3.911158   -2.812607    0.611957
     27          6           0        0.332509    0.823652    1.142603
     28          1           0        0.166367    0.154942    1.995155
     29          6           0        6.412883   -0.992175    0.258680
     30          1           0        6.814130    0.000000    0.000000
     31          6           0        4.778901    0.995343    2.096258
     32          1           0        4.251245    1.880186    2.461319
     33          1           0        4.675486    0.223052    2.863618
     34          1           0        5.840275    1.258745    2.030618
     35          6           0       -0.290989    3.265590    1.000269
     36          6           0        1.044696    4.719368   -0.548267
     37          1           0        0.798717    4.147279   -1.453786
     38          1           0        2.030493    5.163797   -0.721699
     39          6           0       -0.618625    1.981994    1.222771
     40          1           0       -1.654731    1.728681    1.445509
     41          6           0        1.726187    4.450742    1.886775
     42          1           0        2.661778    4.960184    1.637408
     43          1           0        1.041717    5.208738    2.275625
     44          1           0        1.924884    3.748343    2.701825
     45          6           0       -1.352466    4.345400    1.105207
     46          1           0       -2.337954    3.893715    1.255189
     47          1           0       -1.157051    4.975283    1.987794
     48          6           0        0.005666    5.839696   -0.388688
     49          1           0        0.282577    6.505902    0.441726
     50          1           0       -0.019431    6.459107   -1.292389
     51          6           0        7.086627   -1.425444    1.582980
     52          1           0        6.601242   -0.936920    2.434566
     53          1           0        6.929528   -2.503002    1.723358
     54          6           0       -1.385853    5.265675   -0.124492
     55          1           0       -1.705203    4.682104   -0.996776
     56          6           0        6.811907   -1.949885   -0.883000
     57          1           0        6.389238   -2.948967   -0.718395
     58          1           0        7.897963   -2.059272   -0.965764
     59          1           0        6.443167   -1.588357   -1.849303
     60          6           0        8.590165   -1.106183    1.649971
     61          1           0        9.126205   -1.626477    0.847167
     62          1           0        8.727115   -0.033634    1.451740
     63          6           0        9.249183   -1.425467    3.004413
     64          1           0        8.737360   -0.846542    3.786920
     65          1           0       10.285978   -1.057746    2.985401
     66          6           0        9.274411   -2.907907    3.434472
     67          1           0        8.238351   -3.273727    3.472515
     68          6           0        9.860448   -3.038854    4.849526
     69          1           0       10.901665   -2.692225    4.875161
     70          1           0        9.848998   -4.080343    5.190675
     71          1           0        9.293666   -2.442356    5.573711
     72          6           0       10.050700   -3.792627    2.446134
     73          1           0       11.089994   -3.451525    2.351854
     74          1           0       10.073074   -4.833779    2.787611
     75          1           0        9.605347   -3.784454    1.446102
 ---------------------------------------------------------------------
 Rotational constants (GHZ):      0.4309643      0.0572267      0.0556935
 Leave Link  202 at Thu May 18 13:24:46 2017, MaxMem=   33554432 cpu:       0.2
 (Enter /scratch/michal/g09/l301.exe)
 Standard basis: 6-31G(d) (6D, 7F)
 Ernie: Thresh=  0.10000D-02 Tol=  0.10000D-05 Strict=F.
 AO basis set in the form of general basis input (Overlap normalization):
      1 0
 S   6 1.00       0.000000000000
      0.5484671660D+04  0.1831074430D-02
      0.8252349460D+03  0.1395017220D-01
      0.1880469580D+03  0.6844507810D-01
      0.5296450000D+02  0.2327143360D+00
      0.1689757040D+02  0.4701928980D+00
      0.5799635340D+01  0.3585208530D+00
 SP   3 1.00       0.000000000000
      0.1553961625D+02 -0.1107775495D+00  0.7087426823D-01
      0.3599933586D+01 -0.1480262627D+00  0.3397528391D+00
      0.1013761750D+01  0.1130767015D+01  0.7271585773D+00
 SP   1 1.00       0.000000000000
      0.2700058226D+00  0.1000000000D+01  0.1000000000D+01
 D   1 1.00       0.000000000000
      0.8000000000D+00  0.1000000000D+01
 ****
      2 0
 S   3 1.00       0.000000000000
      0.1873113696D+02  0.3349460434D-01
      0.2825394365D+01  0.2347269535D+00
      0.6401216923D+00  0.8137573261D+00
 S   1 1.00       0.000000000000
      0.1612777588D+00  0.1000000000D+01
 ****
      3 0
 S   6 1.00       0.000000000000
      0.5484671660D+04  0.1831074430D-02
      0.8252349460D+03  0.1395017220D-01
      0.1880469580D+03  0.6844507810D-01
      0.5296450000D+02  0.2327143360D+00
      0.1689757040D+02  0.4701928980D+00
      0.5799635340D+01  0.3585208530D+00
 SP   3 1.00       0.000000000000
      0.1553961625D+02 -0.1107775495D+00  0.7087426823D-01
      0.3599933586D+01 -0.1480262627D+00  0.3397528391D+00
      0.1013761750D+01  0.1130767015D+01  0.7271585773D+00
 SP   1 1.00       0.000000000000
      0.2700058226D+00  0.1000000000D+01  0.1000000000D+01
 D   1 1.00       0.000000000000
      0.8000000000D+00  0.1000000000D+01
 ****
      4 0
 S   3 1.00       0.000000000000
      0.1873113696D+02  0.3349460434D-01
      0.2825394365D+01  0.2347269535D+00
      0.6401216923D+00  0.8137573261D+00
 S   1 1.00       0.000000000000
      0.1612777588D+00  0.1000000000D+01
 ****
      5 0
 S   6 1.00       0.000000000000
      0.3047524880D+04  0.1834737132D-02
      0.4573695180D+03  0.1403732281D-01
      0.1039486850D+03  0.6884262226D-01
      0.2921015530D+02  0.2321844432D+00
      0.9286662960D+01  0.4679413484D+00
      0.3163926960D+01  0.3623119853D+00
 SP   3 1.00       0.000000000000
      0.7868272350D+01 -0.1193324198D+00  0.6899906659D-01
      0.1881288540D+01 -0.1608541517D+00  0.3164239610D+00
      0.5442492580D+00  0.1143456438D+01  0.7443082909D+00
 SP   1 1.00       0.000000000000
      0.1687144782D+00  0.1000000000D+01  0.1000000000D+01
 D   1 1.00       0.000000000000
      0.8000000000D+00  0.1000000000D+01
 ****
      6 0
 S   6 1.00       0.000000000000
      0.3047524880D+04  0.1834737132D-02
      0.4573695180D+03  0.1403732281D-01
      0.1039486850D+03  0.6884262226D-01
      0.2921015530D+02  0.2321844432D+00
      0.9286662960D+01  0.4679413484D+00
      0.3163926960D+01  0.3623119853D+00
 SP   3 1.00       0.000000000000
      0.7868272350D+01 -0.1193324198D+00  0.6899906659D-01
      0.1881288540D+01 -0.1608541517D+00  0.3164239610D+00
      0.5442492580D+00  0.1143456438D+01  0.7443082909D+00
 SP   1 1.00       0.000000000000
      0.1687144782D+00  0.1000000000D+01  0.1000000000D+01
 D   1 1.00       0.000000000000
      0.8000000000D+00  0.1000000000D+01
 ****
      7 0
 S   3 1.00       0.000000000000
      0.1873113696D+02  0.3349460434D-01
      0.2825394365D+01  0.2347269535D+00
      0.6401216923D+00  0.8137573261D+00
 S   1 1.00       0.000000000000
      0.1612777588D+00  0.1000000000D+01
 ****
      8 0
 S   6 1.00       0.000000000000
      0.3047524880D+04  0.1834737132D-02
      0.4573695180D+03  0.1403732281D-01
      0.1039486850D+03  0.6884262226D-01
      0.2921015530D+02  0.2321844432D+00
      0.9286662960D+01  0.4679413484D+00
      0.3163926960D+01  0.3623119853D+00
 SP   3 1.00       0.000000000000
      0.7868272350D+01 -0.1193324198D+00  0.6899906659D-01
      0.1881288540D+01 -0.1608541517D+00  0.3164239610D+00
      0.5442492580D+00  0.1143456438D+01  0.7443082909D+00
 SP   1 1.00       0.000000000000
      0.1687144782D+00  0.1000000000D+01  0.1000000000D+01
 D   1 1.00       0.000000000000
      0.8000000000D+00  0.1000000000D+01
 ****
      9 0
 S   3 1.00       0.000000000000
      0.1873113696D+02  0.3349460434D-01
      0.2825394365D+01  0.2347269535D+00
      0.6401216923D+00  0.8137573261D+00
 S   1 1.00       0.000000000000
      0.1612777588D+00  0.1000000000D+01
 ****
     10 0
 S   6 1.00       0.000000000000
      0.3047524880D+04  0.1834737132D-02
      0.4573695180D+03  0.1403732281D-01
      0.1039486850D+03  0.6884262226D-01
      0.2921015530D+02  0.2321844432D+00
      0.9286662960D+01  0.4679413484D+00
      0.3163926960D+01  0.3623119853D+00
 SP   3 1.00       0.000000000000
      0.7868272350D+01 -0.1193324198D+00  0.6899906659D-01
      0.1881288540D+01 -0.1608541517D+00  0.3164239610D+00
      0.5442492580D+00  0.1143456438D+01  0.7443082909D+00
 SP   1 1.00       0.000000000000
      0.1687144782D+00  0.1000000000D+01  0.1000000000D+01
 D   1 1.00       0.000000000000
      0.8000000000D+00  0.1000000000D+01
 ****
     11 0
 S   3 1.00       0.000000000000
      0.1873113696D+02  0.3349460434D-01
      0.2825394365D+01  0.2347269535D+00
      0.6401216923D+00  0.8137573261D+00
 S   1 1.00       0.000000000000
      0.1612777588D+00  0.1000000000D+01
 ****
     12 0
 S   6 1.00       0.000000000000
      0.3047524880D+04  0.1834737132D-02
      0.4573695180D+03  0.1403732281D-01
      0.1039486850D+03  0.6884262226D-01
      0.2921015530D+02  0.2321844432D+00
      0.9286662960D+01  0.4679413484D+00
      0.3163926960D+01  0.3623119853D+00
 SP   3 1.00       0.000000000000
      0.7868272350D+01 -0.1193324198D+00  0.6899906659D-01
      0.1881288540D+01 -0.1608541517D+00  0.3164239610D+00
      0.5442492580D+00  0.1143456438D+01  0.7443082909D+00
 SP   1 1.00       0.000000000000
      0.1687144782D+00  0.1000000000D+01  0.1000000000D+01
 D   1 1.00       0.000000000000
      0.8000000000D+00  0.1000000000D+01
 ****
     13 0
 S   3 1.00       0.000000000000
      0.1873113696D+02  0.3349460434D-01
      0.2825394365D+01  0.2347269535D+00
      0.6401216923D+00  0.8137573261D+00
 S   1 1.00       0.000000000000
      0.1612777588D+00  0.1000000000D+01
 ****
     14 0
 S   6 1.00       0.000000000000
      0.3047524880D+04  0.1834737132D-02
      0.4573695180D+03  0.1403732281D-01
      0.1039486850D+03  0.6884262226D-01
      0.2921015530D+02  0.2321844432D+00
      0.9286662960D+01  0.4679413484D+00
      0.3163926960D+01  0.3623119853D+00
 SP   3 1.00       0.000000000000
      0.7868272350D+01 -0.1193324198D+00  0.6899906659D-01
      0.1881288540D+01 -0.1608541517D+00  0.3164239610D+00
      0.5442492580D+00  0.1143456438D+01  0.7443082909D+00
 SP   1 1.00       0.000000000000
      0.1687144782D+00  0.1000000000D+01  0.1000000000D+01
 D   1 1.00       0.000000000000
      0.8000000000D+00  0.1000000000D+01
 ****
     15 0
 S   3 1.00       0.000000000000
      0.1873113696D+02  0.3349460434D-01
      0.2825394365D+01  0.2347269535D+00
      0.6401216923D+00  0.8137573261D+00
 S   1 1.00       0.000000000000
      0.1612777588D+00  0.1000000000D+01
 ****
     16 0
 S   3 1.00       0.000000000000
      0.1873113696D+02  0.3349460434D-01
      0.2825394365D+01  0.2347269535D+00
      0.6401216923D+00  0.8137573261D+00
 S   1 1.00       0.000000000000
      0.1612777588D+00  0.1000000000D+01
 ****
     17 0
 S   6 1.00       0.000000000000
      0.3047524880D+04  0.1834737132D-02
      0.4573695180D+03  0.1403732281D-01
      0.1039486850D+03  0.6884262226D-01
      0.2921015530D+02  0.2321844432D+00
      0.9286662960D+01  0.4679413484D+00
      0.3163926960D+01  0.3623119853D+00
 SP   3 1.00       0.000000000000
      0.7868272350D+01 -0.1193324198D+00  0.6899906659D-01
      0.1881288540D+01 -0.1608541517D+00  0.3164239610D+00
      0.5442492580D+00  0.1143456438D+01  0.7443082909D+00
 SP   1 1.00       0.000000000000
      0.1687144782D+00  0.1000000000D+01  0.1000000000D+01
 D   1 1.00       0.000000000000
      0.8000000000D+00  0.1000000000D+01
 ****
     18 0
 S   6 1.00       0.000000000000
      0.3047524880D+04  0.1834737132D-02
      0.4573695180D+03  0.1403732281D-01
      0.1039486850D+03  0.6884262226D-01
      0.2921015530D+02  0.2321844432D+00
      0.9286662960D+01  0.4679413484D+00
      0.3163926960D+01  0.3623119853D+00
 SP   3 1.00       0.000000000000
      0.7868272350D+01 -0.1193324198D+00  0.6899906659D-01
      0.1881288540D+01 -0.1608541517D+00  0.3164239610D+00
      0.5442492580D+00  0.1143456438D+01  0.7443082909D+00
 SP   1 1.00       0.000000000000
      0.1687144782D+00  0.1000000000D+01  0.1000000000D+01
 D   1 1.00       0.000000000000
      0.8000000000D+00  0.1000000000D+01
 ****
     19 0
 S   3 1.00       0.000000000000
      0.1873113696D+02  0.3349460434D-01
      0.2825394365D+01  0.2347269535D+00
      0.6401216923D+00  0.8137573261D+00
 S   1 1.00       0.000000000000
      0.1612777588D+00  0.1000000000D+01
 ****
     20 0
 S   3 1.00       0.000000000000
      0.1873113696D+02  0.3349460434D-01
      0.2825394365D+01  0.2347269535D+00
      0.6401216923D+00  0.8137573261D+00
 S   1 1.00       0.000000000000
      0.1612777588D+00  0.1000000000D+01
 ****
     21 0
 S   6 1.00       0.000000000000
      0.3047524880D+04  0.1834737132D-02
      0.4573695180D+03  0.1403732281D-01
      0.1039486850D+03  0.6884262226D-01
      0.2921015530D+02  0.2321844432D+00
      0.9286662960D+01  0.4679413484D+00
      0.3163926960D+01  0.3623119853D+00
 SP   3 1.00       0.000000000000
      0.7868272350D+01 -0.1193324198D+00  0.6899906659D-01
      0.1881288540D+01 -0.1608541517D+00  0.3164239610D+00
      0.5442492580D+00  0.1143456438D+01  0.7443082909D+00
 SP   1 1.00       0.000000000000
      0.1687144782D+00  0.1000000000D+01  0.1000000000D+01
 D   1 1.00       0.000000000000
      0.8000000000D+00  0.1000000000D+01
 ****
     22 0
 S   3 1.00       0.000000000000
      0.1873113696D+02  0.3349460434D-01
      0.2825394365D+01  0.2347269535D+00
      0.6401216923D+00  0.8137573261D+00
 S   1 1.00       0.000000000000
      0.1612777588D+00  0.1000000000D+01
 ****
     23 0
 S   3 1.00       0.000000000000
      0.1873113696D+02  0.3349460434D-01
      0.2825394365D+01  0.2347269535D+00
      0.6401216923D+00  0.8137573261D+00
 S   1 1.00       0.000000000000
      0.1612777588D+00  0.1000000000D+01
 ****
     24 0
 S   6 1.00       0.000000000000
      0.3047524880D+04  0.1834737132D-02
      0.4573695180D+03  0.1403732281D-01
      0.1039486850D+03  0.6884262226D-01
      0.2921015530D+02  0.2321844432D+00
      0.9286662960D+01  0.4679413484D+00
      0.3163926960D+01  0.3623119853D+00
 SP   3 1.00       0.000000000000
      0.7868272350D+01 -0.1193324198D+00  0.6899906659D-01
      0.1881288540D+01 -0.1608541517D+00  0.3164239610D+00
      0.5442492580D+00  0.1143456438D+01  0.7443082909D+00
 SP   1 1.00       0.000000000000
      0.1687144782D+00  0.1000000000D+01  0.1000000000D+01
 D   1 1.00       0.000000000000
      0.8000000000D+00  0.1000000000D+01
 ****
     25 0
 S   3 1.00       0.000000000000
      0.1873113696D+02  0.3349460434D-01
      0.2825394365D+01  0.2347269535D+00
      0.6401216923D+00  0.8137573261D+00
 S   1 1.00       0.000000000000
      0.1612777588D+00  0.1000000000D+01
 ****
     26 0
 S   3 1.00       0.000000000000
      0.1873113696D+02  0.3349460434D-01
      0.2825394365D+01  0.2347269535D+00
      0.6401216923D+00  0.8137573261D+00
 S   1 1.00       0.000000000000
      0.1612777588D+00  0.1000000000D+01
 ****
     27 0
 S   6 1.00       0.000000000000
      0.3047524880D+04  0.1834737132D-02
      0.4573695180D+03  0.1403732281D-01
      0.1039486850D+03  0.6884262226D-01
      0.2921015530D+02  0.2321844432D+00
      0.9286662960D+01  0.4679413484D+00
      0.3163926960D+01  0.3623119853D+00
 SP   3 1.00       0.000000000000
      0.7868272350D+01 -0.1193324198D+00  0.6899906659D-01
      0.1881288540D+01 -0.1608541517D+00  0.3164239610D+00
      0.5442492580D+00  0.1143456438D+01  0.7443082909D+00
 SP   1 1.00       0.000000000000
      0.1687144782D+00  0.1000000000D+01  0.1000000000D+01
 D   1 1.00       0.000000000000
      0.8000000000D+00  0.1000000000D+01
 ****
     28 0
 S   3 1.00       0.000000000000
      0.1873113696D+02  0.3349460434D-01
      0.2825394365D+01  0.2347269535D+00
      0.6401216923D+00  0.8137573261D+00
 S   1 1.00       0.000000000000
      0.1612777588D+00  0.1000000000D+01
 ****
     29 0
 S   6 1.00       0.000000000000
      0.3047524880D+04  0.1834737132D-02
      0.4573695180D+03  0.1403732281D-01
      0.1039486850D+03  0.6884262226D-01
      0.2921015530D+02  0.2321844432D+00
      0.9286662960D+01  0.4679413484D+00
      0.3163926960D+01  0.3623119853D+00
 SP   3 1.00       0.000000000000
      0.7868272350D+01 -0.1193324198D+00  0.6899906659D-01
      0.1881288540D+01 -0.1608541517D+00  0.3164239610D+00
      0.5442492580D+00  0.1143456438D+01  0.7443082909D+00
 SP   1 1.00       0.000000000000
      0.1687144782D+00  0.1000000000D+01  0.1000000000D+01
 D   1 1.00       0.000000000000
      0.8000000000D+00  0.1000000000D+01
 ****
     30 0
 S   3 1.00       0.000000000000
      0.1873113696D+02  0.3349460434D-01
      0.2825394365D+01  0.2347269535D+00
      0.6401216923D+00  0.8137573261D+00
 S   1 1.00       0.000000000000
      0.1612777588D+00  0.1000000000D+01
 ****
     31 0
 S   6 1.00       0.000000000000
      0.3047524880D+04  0.1834737132D-02
      0.4573695180D+03  0.1403732281D-01
      0.1039486850D+03  0.6884262226D-01
      0.2921015530D+02  0.2321844432D+00
      0.9286662960D+01  0.4679413484D+00
      0.3163926960D+01  0.3623119853D+00
 SP   3 1.00       0.000000000000
      0.7868272350D+01 -0.1193324198D+00  0.6899906659D-01
      0.1881288540D+01 -0.1608541517D+00  0.3164239610D+00
      0.5442492580D+00  0.1143456438D+01  0.7443082909D+00
 SP   1 1.00       0.000000000000
      0.1687144782D+00  0.1000000000D+01  0.1000000000D+01
 D   1 1.00       0.000000000000
      0.8000000000D+00  0.1000000000D+01
 ****
     32 0
 S   3 1.00       0.000000000000
      0.1873113696D+02  0.3349460434D-01
      0.2825394365D+01  0.2347269535D+00
      0.6401216923D+00  0.8137573261D+00
 S   1 1.00       0.000000000000
      0.1612777588D+00  0.1000000000D+01
 ****
     33 0
 S   3 1.00       0.000000000000
      0.1873113696D+02  0.3349460434D-01
      0.2825394365D+01  0.2347269535D+00
      0.6401216923D+00  0.8137573261D+00
 S   1 1.00       0.000000000000
      0.1612777588D+00  0.1000000000D+01
 ****
     34 0
 S   3 1.00       0.000000000000
      0.1873113696D+02  0.3349460434D-01
      0.2825394365D+01  0.2347269535D+00
      0.6401216923D+00  0.8137573261D+00
 S   1 1.00       0.000000000000
      0.1612777588D+00  0.1000000000D+01
 ****
     35 0
 S   6 1.00       0.000000000000
      0.3047524880D+04  0.1834737132D-02
      0.4573695180D+03  0.1403732281D-01
      0.1039486850D+03  0.6884262226D-01
      0.2921015530D+02  0.2321844432D+00
      0.9286662960D+01  0.4679413484D+00
      0.3163926960D+01  0.3623119853D+00
 SP   3 1.00       0.000000000000
      0.7868272350D+01 -0.1193324198D+00  0.6899906659D-01
      0.1881288540D+01 -0.1608541517D+00  0.3164239610D+00
      0.5442492580D+00  0.1143456438D+01  0.7443082909D+00
 SP   1 1.00       0.000000000000
      0.1687144782D+00  0.1000000000D+01  0.1000000000D+01
 D   1 1.00       0.000000000000
      0.8000000000D+00  0.1000000000D+01
 ****
     36 0
 S   6 1.00       0.000000000000
      0.3047524880D+04  0.1834737132D-02
      0.4573695180D+03  0.1403732281D-01
      0.1039486850D+03  0.6884262226D-01
      0.2921015530D+02  0.2321844432D+00
      0.9286662960D+01  0.4679413484D+00
      0.3163926960D+01  0.3623119853D+00
 SP   3 1.00       0.000000000000
      0.7868272350D+01 -0.1193324198D+00  0.6899906659D-01
      0.1881288540D+01 -0.1608541517D+00  0.3164239610D+00
      0.5442492580D+00  0.1143456438D+01  0.7443082909D+00
 SP   1 1.00       0.000000000000
      0.1687144782D+00  0.1000000000D+01  0.1000000000D+01
 D   1 1.00       0.000000000000
      0.8000000000D+00  0.1000000000D+01
 ****
     37 0
 S   3 1.00       0.000000000000
      0.1873113696D+02  0.3349460434D-01
      0.2825394365D+01  0.2347269535D+00
      0.6401216923D+00  0.8137573261D+00
 S   1 1.00       0.000000000000
      0.1612777588D+00  0.1000000000D+01
 ****
     38 0
 S   3 1.00       0.000000000000
      0.1873113696D+02  0.3349460434D-01
      0.2825394365D+01  0.2347269535D+00
      0.6401216923D+00  0.8137573261D+00
 S   1 1.00       0.000000000000
      0.1612777588D+00  0.1000000000D+01
 ****
     39 0
 S   6 1.00       0.000000000000
      0.3047524880D+04  0.1834737132D-02
      0.4573695180D+03  0.1403732281D-01
      0.1039486850D+03  0.6884262226D-01
      0.2921015530D+02  0.2321844432D+00
      0.9286662960D+01  0.4679413484D+00
      0.3163926960D+01  0.3623119853D+00
 SP   3 1.00       0.000000000000
      0.7868272350D+01 -0.1193324198D+00  0.6899906659D-01
      0.1881288540D+01 -0.1608541517D+00  0.3164239610D+00
      0.5442492580D+00  0.1143456438D+01  0.7443082909D+00
 SP   1 1.00       0.000000000000
      0.1687144782D+00  0.1000000000D+01  0.1000000000D+01
 D   1 1.00       0.000000000000
      0.8000000000D+00  0.1000000000D+01
 ****
     40 0
 S   3 1.00       0.000000000000
      0.1873113696D+02  0.3349460434D-01
      0.2825394365D+01  0.2347269535D+00
      0.6401216923D+00  0.8137573261D+00
 S   1 1.00       0.000000000000
      0.1612777588D+00  0.1000000000D+01
 ****
     41 0
 S   6 1.00       0.000000000000
      0.3047524880D+04  0.1834737132D-02
      0.4573695180D+03  0.1403732281D-01
      0.1039486850D+03  0.6884262226D-01
      0.2921015530D+02  0.2321844432D+00
      0.9286662960D+01  0.4679413484D+00
      0.3163926960D+01  0.3623119853D+00
 SP   3 1.00       0.000000000000
      0.7868272350D+01 -0.1193324198D+00  0.6899906659D-01
      0.1881288540D+01 -0.1608541517D+00  0.3164239610D+00
      0.5442492580D+00  0.1143456438D+01  0.7443082909D+00
 SP   1 1.00       0.000000000000
      0.1687144782D+00  0.1000000000D+01  0.1000000000D+01
 D   1 1.00       0.000000000000
      0.8000000000D+00  0.1000000000D+01
 ****
     42 0
 S   3 1.00       0.000000000000
      0.1873113696D+02  0.3349460434D-01
      0.2825394365D+01  0.2347269535D+00
      0.6401216923D+00  0.8137573261D+00
 S   1 1.00       0.000000000000
      0.1612777588D+00  0.1000000000D+01
 ****
     43 0
 S   3 1.00       0.000000000000
      0.1873113696D+02  0.3349460434D-01
      0.2825394365D+01  0.2347269535D+00
      0.6401216923D+00  0.8137573261D+00
 S   1 1.00       0.000000000000
      0.1612777588D+00  0.1000000000D+01
 ****
     44 0
 S   3 1.00       0.000000000000
      0.1873113696D+02  0.3349460434D-01
      0.2825394365D+01  0.2347269535D+00
      0.6401216923D+00  0.8137573261D+00
 S   1 1.00       0.000000000000
      0.1612777588D+00  0.1000000000D+01
 ****
     45 0
 S   6 1.00       0.000000000000
      0.3047524880D+04  0.1834737132D-02
      0.4573695180D+03  0.1403732281D-01
      0.1039486850D+03  0.6884262226D-01
      0.2921015530D+02  0.2321844432D+00
      0.9286662960D+01  0.4679413484D+00
      0.3163926960D+01  0.3623119853D+00
 SP   3 1.00       0.000000000000
      0.7868272350D+01 -0.1193324198D+00  0.6899906659D-01
      0.1881288540D+01 -0.1608541517D+00  0.3164239610D+00
      0.5442492580D+00  0.1143456438D+01  0.7443082909D+00
 SP   1 1.00       0.000000000000
      0.1687144782D+00  0.1000000000D+01  0.1000000000D+01
 D   1 1.00       0.000000000000
      0.8000000000D+00  0.1000000000D+01
 ****
     46 0
 S   3 1.00       0.000000000000
      0.1873113696D+02  0.3349460434D-01
      0.2825394365D+01  0.2347269535D+00
      0.6401216923D+00  0.8137573261D+00
 S   1 1.00       0.000000000000
      0.1612777588D+00  0.1000000000D+01
 ****
     47 0
 S   3 1.00       0.000000000000
      0.1873113696D+02  0.3349460434D-01
      0.2825394365D+01  0.2347269535D+00
      0.6401216923D+00  0.8137573261D+00
 S   1 1.00       0.000000000000
      0.1612777588D+00  0.1000000000D+01
 ****
     48 0
 S   6 1.00       0.000000000000
      0.3047524880D+04  0.1834737132D-02
      0.4573695180D+03  0.1403732281D-01
      0.1039486850D+03  0.6884262226D-01
      0.2921015530D+02  0.2321844432D+00
      0.9286662960D+01  0.4679413484D+00
      0.3163926960D+01  0.3623119853D+00
 SP   3 1.00       0.000000000000
      0.7868272350D+01 -0.1193324198D+00  0.6899906659D-01
      0.1881288540D+01 -0.1608541517D+00  0.3164239610D+00
      0.5442492580D+00  0.1143456438D+01  0.7443082909D+00
 SP   1 1.00       0.000000000000
      0.1687144782D+00  0.1000000000D+01  0.1000000000D+01
 D   1 1.00       0.000000000000
      0.8000000000D+00  0.1000000000D+01
 ****
     49 0
 S   3 1.00       0.000000000000
      0.1873113696D+02  0.3349460434D-01
      0.2825394365D+01  0.2347269535D+00
      0.6401216923D+00  0.8137573261D+00
 S   1 1.00       0.000000000000
      0.1612777588D+00  0.1000000000D+01
 ****
     50 0
 S   3 1.00       0.000000000000
      0.1873113696D+02  0.3349460434D-01
      0.2825394365D+01  0.2347269535D+00
      0.6401216923D+00  0.8137573261D+00
 S   1 1.00       0.000000000000
      0.1612777588D+00  0.1000000000D+01
 ****
     51 0
 S   6 1.00       0.000000000000
      0.3047524880D+04  0.1834737132D-02
      0.4573695180D+03  0.1403732281D-01
      0.1039486850D+03  0.6884262226D-01
      0.2921015530D+02  0.2321844432D+00
      0.9286662960D+01  0.4679413484D+00
      0.3163926960D+01  0.3623119853D+00
 SP   3 1.00       0.000000000000
      0.7868272350D+01 -0.1193324198D+00  0.6899906659D-01
      0.1881288540D+01 -0.1608541517D+00  0.3164239610D+00
      0.5442492580D+00  0.1143456438D+01  0.7443082909D+00
 SP   1 1.00       0.000000000000
      0.1687144782D+00  0.1000000000D+01  0.1000000000D+01
 D   1 1.00       0.000000000000
      0.8000000000D+00  0.1000000000D+01
 ****
     52 0
 S   3 1.00       0.000000000000
      0.1873113696D+02  0.3349460434D-01
      0.2825394365D+01  0.2347269535D+00
      0.6401216923D+00  0.8137573261D+00
 S   1 1.00       0.000000000000
      0.1612777588D+00  0.1000000000D+01
 ****
     53 0
 S   3 1.00       0.000000000000
      0.1873113696D+02  0.3349460434D-01
      0.2825394365D+01  0.2347269535D+00
      0.6401216923D+00  0.8137573261D+00
 S   1 1.00       0.000000000000
      0.1612777588D+00  0.1000000000D+01
 ****
     54 0
 S   6 1.00       0.000000000000
      0.3047524880D+04  0.1834737132D-02
      0.4573695180D+03  0.1403732281D-01
      0.1039486850D+03  0.6884262226D-01
      0.2921015530D+02  0.2321844432D+00
      0.9286662960D+01  0.4679413484D+00
      0.3163926960D+01  0.3623119853D+00
 SP   3 1.00       0.000000000000
      0.7868272350D+01 -0.1193324198D+00  0.6899906659D-01
      0.1881288540D+01 -0.1608541517D+00  0.3164239610D+00
      0.5442492580D+00  0.1143456438D+01  0.7443082909D+00
 SP   1 1.00       0.000000000000
      0.1687144782D+00  0.1000000000D+01  0.1000000000D+01
 D   1 1.00       0.000000000000
      0.8000000000D+00  0.1000000000D+01
 ****
     55 0
 S   3 1.00       0.000000000000
      0.1873113696D+02  0.3349460434D-01
      0.2825394365D+01  0.2347269535D+00
      0.6401216923D+00  0.8137573261D+00
 S   1 1.00       0.000000000000
      0.1612777588D+00  0.1000000000D+01
 ****
     56 0
 S   6 1.00       0.000000000000
      0.3047524880D+04  0.1834737132D-02
      0.4573695180D+03  0.1403732281D-01
      0.1039486850D+03  0.6884262226D-01
      0.2921015530D+02  0.2321844432D+00
      0.9286662960D+01  0.4679413484D+00
      0.3163926960D+01  0.3623119853D+00
 SP   3 1.00       0.000000000000
      0.7868272350D+01 -0.1193324198D+00  0.6899906659D-01
      0.1881288540D+01 -0.1608541517D+00  0.3164239610D+00
      0.5442492580D+00  0.1143456438D+01  0.7443082909D+00
 SP   1 1.00       0.000000000000
      0.1687144782D+00  0.1000000000D+01  0.1000000000D+01
 D   1 1.00       0.000000000000
      0.8000000000D+00  0.1000000000D+01
 ****
     57 0
 S   3 1.00       0.000000000000
      0.1873113696D+02  0.3349460434D-01
      0.2825394365D+01  0.2347269535D+00
      0.6401216923D+00  0.8137573261D+00
 S   1 1.00       0.000000000000
      0.1612777588D+00  0.1000000000D+01
 ****
     58 0
 S   3 1.00       0.000000000000
      0.1873113696D+02  0.3349460434D-01
      0.2825394365D+01  0.2347269535D+00
      0.6401216923D+00  0.8137573261D+00
 S   1 1.00       0.000000000000
      0.1612777588D+00  0.1000000000D+01
 ****
     59 0
 S   3 1.00       0.000000000000
      0.1873113696D+02  0.3349460434D-01
      0.2825394365D+01  0.2347269535D+00
      0.6401216923D+00  0.8137573261D+00
 S   1 1.00       0.000000000000
      0.1612777588D+00  0.1000000000D+01
 ****
     60 0
 S   6 1.00       0.000000000000
      0.3047524880D+04  0.1834737132D-02
      0.4573695180D+03  0.1403732281D-01
      0.1039486850D+03  0.6884262226D-01
      0.2921015530D+02  0.2321844432D+00
      0.9286662960D+01  0.4679413484D+00
      0.3163926960D+01  0.3623119853D+00
 SP   3 1.00       0.000000000000
      0.7868272350D+01 -0.1193324198D+00  0.6899906659D-01
      0.1881288540D+01 -0.1608541517D+00  0.3164239610D+00
      0.5442492580D+00  0.1143456438D+01  0.7443082909D+00
 SP   1 1.00       0.000000000000
      0.1687144782D+00  0.1000000000D+01  0.1000000000D+01
 D   1 1.00       0.000000000000
      0.8000000000D+00  0.1000000000D+01
 ****
     61 0
 S   3 1.00       0.000000000000
      0.1873113696D+02  0.3349460434D-01
      0.2825394365D+01  0.2347269535D+00
      0.6401216923D+00  0.8137573261D+00
 S   1 1.00       0.000000000000
      0.1612777588D+00  0.1000000000D+01
 ****
     62 0
 S   3 1.00       0.000000000000
      0.1873113696D+02  0.3349460434D-01
      0.2825394365D+01  0.2347269535D+00
      0.6401216923D+00  0.8137573261D+00
 S   1 1.00       0.000000000000
      0.1612777588D+00  0.1000000000D+01
 ****
     63 0
 S   6 1.00       0.000000000000
      0.3047524880D+04  0.1834737132D-02
      0.4573695180D+03  0.1403732281D-01
      0.1039486850D+03  0.6884262226D-01
      0.2921015530D+02  0.2321844432D+00
      0.9286662960D+01  0.4679413484D+00
      0.3163926960D+01  0.3623119853D+00
 SP   3 1.00       0.000000000000
      0.7868272350D+01 -0.1193324198D+00  0.6899906659D-01
      0.1881288540D+01 -0.1608541517D+00  0.3164239610D+00
      0.5442492580D+00  0.1143456438D+01  0.7443082909D+00
 SP   1 1.00       0.000000000000
      0.1687144782D+00  0.1000000000D+01  0.1000000000D+01
 D   1 1.00       0.000000000000
      0.8000000000D+00  0.1000000000D+01
 ****
     64 0
 S   3 1.00       0.000000000000
      0.1873113696D+02  0.3349460434D-01
      0.2825394365D+01  0.2347269535D+00
      0.6401216923D+00  0.8137573261D+00
 S   1 1.00       0.000000000000
      0.1612777588D+00  0.1000000000D+01
 ****
     65 0
 S   3 1.00       0.000000000000
      0.1873113696D+02  0.3349460434D-01
      0.2825394365D+01  0.2347269535D+00
      0.6401216923D+00  0.8137573261D+00
 S   1 1.00       0.000000000000
      0.1612777588D+00  0.1000000000D+01
 ****
     66 0
 S   6 1.00       0.000000000000
      0.3047524880D+04  0.1834737132D-02
      0.4573695180D+03  0.1403732281D-01
      0.1039486850D+03  0.6884262226D-01
      0.2921015530D+02  0.2321844432D+00
      0.9286662960D+01  0.4679413484D+00
      0.3163926960D+01  0.3623119853D+00
 SP   3 1.00       0.000000000000
      0.7868272350D+01 -0.1193324198D+00  0.6899906659D-01
      0.1881288540D+01 -0.1608541517D+00  0.3164239610D+00
      0.5442492580D+00  0.1143456438D+01  0.7443082909D+00
 SP   1 1.00       0.000000000000
      0.1687144782D+00  0.1000000000D+01  0.1000000000D+01
 D   1 1.00       0.000000000000
      0.8000000000D+00  0.1000000000D+01
 ****
     67 0
 S   3 1.00       0.000000000000
      0.1873113696D+02  0.3349460434D-01
      0.2825394365D+01  0.2347269535D+00
      0.6401216923D+00  0.8137573261D+00
 S   1 1.00       0.000000000000
      0.1612777588D+00  0.1000000000D+01
 ****
     68 0
 S   6 1.00       0.000000000000
      0.3047524880D+04  0.1834737132D-02
      0.4573695180D+03  0.1403732281D-01
      0.1039486850D+03  0.6884262226D-01
      0.2921015530D+02  0.2321844432D+00
      0.9286662960D+01  0.4679413484D+00
      0.3163926960D+01  0.3623119853D+00
 SP   3 1.00       0.000000000000
      0.7868272350D+01 -0.1193324198D+00  0.6899906659D-01
      0.1881288540D+01 -0.1608541517D+00  0.3164239610D+00
      0.5442492580D+00  0.1143456438D+01  0.7443082909D+00
 SP   1 1.00       0.000000000000
      0.1687144782D+00  0.1000000000D+01  0.1000000000D+01
 D   1 1.00       0.000000000000
      0.8000000000D+00  0.1000000000D+01
 ****
     69 0
 S   3 1.00       0.000000000000
      0.1873113696D+02  0.3349460434D-01
      0.2825394365D+01  0.2347269535D+00
      0.6401216923D+00  0.8137573261D+00
 S   1 1.00       0.000000000000
      0.1612777588D+00  0.1000000000D+01
 ****
     70 0
 S   3 1.00       0.000000000000
      0.1873113696D+02  0.3349460434D-01
      0.2825394365D+01  0.2347269535D+00
      0.6401216923D+00  0.8137573261D+00
 S   1 1.00       0.000000000000
      0.1612777588D+00  0.1000000000D+01
 ****
     71 0
 S   3 1.00       0.000000000000
      0.1873113696D+02  0.3349460434D-01
      0.2825394365D+01  0.2347269535D+00
      0.6401216923D+00  0.8137573261D+00
 S   1 1.00       0.000000000000
      0.1612777588D+00  0.1000000000D+01
 ****
     72 0
 S   6 1.00       0.000000000000
      0.3047524880D+04  0.1834737132D-02
      0.4573695180D+03  0.1403732281D-01
      0.1039486850D+03  0.6884262226D-01
      0.2921015530D+02  0.2321844432D+00
      0.9286662960D+01  0.4679413484D+00
      0.3163926960D+01  0.3623119853D+00
 SP   3 1.00       0.000000000000
      0.7868272350D+01 -0.1193324198D+00  0.6899906659D-01
      0.1881288540D+01 -0.1608541517D+00  0.3164239610D+00
      0.5442492580D+00  0.1143456438D+01  0.7443082909D+00
 SP   1 1.00       0.000000000000
      0.1687144782D+00  0.1000000000D+01  0.1000000000D+01
 D   1 1.00       0.000000000000
      0.8000000000D+00  0.1000000000D+01
 ****
     73 0
 S   3 1.00       0.000000000000
      0.1873113696D+02  0.3349460434D-01
      0.2825394365D+01  0.2347269535D+00
      0.6401216923D+00  0.8137573261D+00
 S   1 1.00       0.000000000000
      0.1612777588D+00  0.1000000000D+01
 ****
     74 0
 S   3 1.00       0.000000000000
      0.1873113696D+02  0.3349460434D-01
      0.2825394365D+01  0.2347269535D+00
      0.6401216923D+00  0.8137573261D+00
 S   1 1.00       0.000000000000
      0.1612777588D+00  0.1000000000D+01
 ****
     75 0
 S   3 1.00       0.000000000000
      0.1873113696D+02  0.3349460434D-01
      0.2825394365D+01  0.2347269535D+00
      0.6401216923D+00  0.8137573261D+00
 S   1 1.00       0.000000000000
      0.1612777588D+00  0.1000000000D+01
 ****

 AO basis set (Overlap normalization):
 Atom O1       Shell     1 S   6     bf    1 -     1          0.000000000000          0.000000000000          0.000000000000
      0.5484671660D+04  0.1831074430D-02
      0.8252349460D+03  0.1395017220D-01
      0.1880469580D+03  0.6844507810D-01
      0.5296450000D+02  0.2327143360D+00
      0.1689757040D+02  0.4701928980D+00
      0.5799635340D+01  0.3585208530D+00
 Atom O1       Shell     2 SP   3    bf    2 -     5          0.000000000000          0.000000000000          0.000000000000
      0.1553961625D+02 -0.1107775495D+00  0.7087426823D-01
      0.3599933586D+01 -0.1480262627D+00  0.3397528391D+00
      0.1013761750D+01  0.1130767015D+01  0.7271585773D+00
 Atom O1       Shell     3 SP   1    bf    6 -     9          0.000000000000          0.000000000000          0.000000000000
      0.2700058226D+00  0.1000000000D+01  0.1000000000D+01
 Atom O1       Shell     4 D   1     bf   10 -    15          0.000000000000          0.000000000000          0.000000000000
      0.8000000000D+00  0.1000000000D+01
 Atom H2       Shell     5 S   3     bf   16 -    16         -0.434386924207          1.104810468988         -1.388064674889
      0.1873113696D+02  0.3349460434D-01
      0.2825394365D+01  0.2347269535D+00
      0.6401216923D+00  0.8137573261D+00
 Atom H2       Shell     6 S   1     bf   17 -    17         -0.434386924207          1.104810468988         -1.388064674889
      0.1612777588D+00  0.1000000000D+01
 Atom O3       Shell     7 S   6     bf   18 -    18         -4.506456743203         11.869553994466          0.000000000000
      0.5484671660D+04  0.1831074430D-02
      0.8252349460D+03  0.1395017220D-01
      0.1880469580D+03  0.6844507810D-01
      0.5296450000D+02  0.2327143360D+00
      0.1689757040D+02  0.4701928980D+00
      0.5799635340D+01  0.3585208530D+00
 Atom O3       Shell     8 SP   3    bf   19 -    22         -4.506456743203         11.869553994466          0.000000000000
      0.1553961625D+02 -0.1107775495D+00  0.7087426823D-01
      0.3599933586D+01 -0.1480262627D+00  0.3397528391D+00
      0.1013761750D+01  0.1130767015D+01  0.7271585773D+00
 Atom O3       Shell     9 SP   1    bf   23 -    26         -4.506456743203         11.869553994466          0.000000000000
      0.2700058226D+00  0.1000000000D+01  0.1000000000D+01
 Atom O3       Shell    10 D   1     bf   27 -    32         -4.506456743203         11.869553994466          0.000000000000
      0.8000000000D+00  0.1000000000D+01
 Atom H4       Shell    11 S   3     bf   33 -    33         -4.072924863380         12.948525444354          1.411032368513
      0.1873113696D+02  0.3349460434D-01
      0.2825394365D+01  0.2347269535D+00
      0.6401216923D+00  0.8137573261D+00
 Atom H4       Shell    12 S   1     bf   34 -    34         -4.072924863380         12.948525444354          1.411032368513
      0.1612777588D+00  0.1000000000D+01
 Atom C5       Shell    13 S   6     bf   35 -    35          8.033718820445          0.994801403867          1.365078272975
      0.3047524880D+04  0.1834737132D-02
      0.4573695180D+03  0.1403732281D-01
      0.1039486850D+03  0.6884262226D-01
      0.2921015530D+02  0.2321844432D+00
      0.9286662960D+01  0.4679413484D+00
      0.3163926960D+01  0.3623119853D+00
 Atom C5       Shell    14 SP   3    bf   36 -    39          8.033718820445          0.994801403867          1.365078272975
      0.7868272350D+01 -0.1193324198D+00  0.6899906659D-01
      0.1881288540D+01 -0.1608541517D+00  0.3164239610D+00
      0.5442492580D+00  0.1143456438D+01  0.7443082909D+00
 Atom C5       Shell    15 SP   1    bf   40 -    43          8.033718820445          0.994801403867          1.365078272975
      0.1687144782D+00  0.1000000000D+01  0.1000000000D+01
 Atom C5       Shell    16 D   1     bf   44 -    49          8.033718820445          0.994801403867          1.365078272975
      0.8000000000D+00  0.1000000000D+01
 Atom C6       Shell    17 S   6     bf   50 -    50          5.200595859623          0.257091930249          1.426148042186
      0.3047524880D+04  0.1834737132D-02
      0.4573695180D+03  0.1403732281D-01
      0.1039486850D+03  0.6884262226D-01
      0.2921015530D+02  0.2321844432D+00
      0.9286662960D+01  0.4679413484D+00
      0.3163926960D+01  0.3623119853D+00
 Atom C6       Shell    18 SP   3    bf   51 -    54          5.200595859623          0.257091930249          1.426148042186
      0.7868272350D+01 -0.1193324198D+00  0.6899906659D-01
      0.1881288540D+01 -0.1608541517D+00  0.3164239610D+00
      0.5442492580D+00  0.1143456438D+01  0.7443082909D+00
 Atom C6       Shell    19 SP   1    bf   55 -    58          5.200595859623          0.257091930249          1.426148042186
      0.1687144782D+00  0.1000000000D+01  0.1000000000D+01
 Atom C6       Shell    20 D   1     bf   59 -    64          5.200595859623          0.257091930249          1.426148042186
      0.8000000000D+00  0.1000000000D+01
 Atom H7       Shell    21 S   3     bf   65 -    65          4.704539386028         -0.214536563853         -0.534463475390
      0.1873113696D+02  0.3349460434D-01
      0.2825394365D+01  0.2347269535D+00
      0.6401216923D+00  0.8137573261D+00
 Atom H7       Shell    22 S   1     bf   66 -    66          4.704539386028         -0.214536563853         -0.534463475390
      0.1612777588D+00  0.1000000000D+01
 Atom C8       Shell    23 S   6     bf   67 -    67          3.416929415418          2.408468882090          2.186818293032
      0.3047524880D+04  0.1834737132D-02
      0.4573695180D+03  0.1403732281D-01
      0.1039486850D+03  0.6884262226D-01
      0.2921015530D+02  0.2321844432D+00
      0.9286662960D+01  0.4679413484D+00
      0.3163926960D+01  0.3623119853D+00
 Atom C8       Shell    24 SP   3    bf   68 -    71          3.416929415418          2.408468882090          2.186818293032
      0.7868272350D+01 -0.1193324198D+00  0.6899906659D-01
      0.1881288540D+01 -0.1608541517D+00  0.3164239610D+00
      0.5442492580D+00  0.1143456438D+01  0.7443082909D+00
 Atom C8       Shell    25 SP   1    bf   72 -    75          3.416929415418          2.408468882090          2.186818293032
      0.1687144782D+00  0.1000000000D+01  0.1000000000D+01
 Atom C8       Shell    26 D   1     bf   76 -    81          3.416929415418          2.408468882090          2.186818293032
      0.8000000000D+00  0.1000000000D+01
 Atom H9       Shell    27 S   3     bf   82 -    82          3.818220110771          2.970731797367          4.146534269393
      0.1873113696D+02  0.3349460434D-01
      0.2825394365D+01  0.2347269535D+00
      0.6401216923D+00  0.8137573261D+00
 Atom H9       Shell    28 S   1     bf   83 -    83          3.818220110771          2.970731797367          4.146534269393
      0.1612777588D+00  0.1000000000D+01
 Atom C10      Shell    29 S   6     bf   84 -    84          3.800315995011          4.718302809474          0.418662909898
      0.3047524880D+04  0.1834737132D-02
      0.4573695180D+03  0.1403732281D-01
      0.1039486850D+03  0.6884262226D-01
      0.2921015530D+02  0.2321844432D+00
      0.9286662960D+01  0.4679413484D+00
      0.3163926960D+01  0.3623119853D+00
 Atom C10      Shell    30 SP   3    bf   85 -    88          3.800315995011          4.718302809474          0.418662909898
      0.7868272350D+01 -0.1193324198D+00  0.6899906659D-01
      0.1881288540D+01 -0.1608541517D+00  0.3164239610D+00
      0.5442492580D+00  0.1143456438D+01  0.7443082909D+00
 Atom C10      Shell    31 SP   1    bf   89 -    92          3.800315995011          4.718302809474          0.418662909898
      0.1687144782D+00  0.1000000000D+01  0.1000000000D+01
 Atom C10      Shell    32 D   1     bf   93 -    98          3.800315995011          4.718302809474          0.418662909898
      0.8000000000D+00  0.1000000000D+01
 Atom H11      Shell    33 S   3     bf   99 -    99          3.080917816442          4.125646635117         -1.445119683135
      0.1873113696D+02  0.3349460434D-01
      0.2825394365D+01  0.2347269535D+00
      0.6401216923D+00  0.8137573261D+00
 Atom H11      Shell    34 S   1     bf  100 -   100          3.080917816442          4.125646635117         -1.445119683135
      0.1612777588D+00  0.1000000000D+01
 Atom C12      Shell    35 S   6     bf  101 -   101          9.190847642436         -1.601820498390          0.578145439814
      0.3047524880D+04  0.1834737132D-02
      0.4573695180D+03  0.1403732281D-01
      0.1039486850D+03  0.6884262226D-01
      0.2921015530D+02  0.2321844432D+00
      0.9286662960D+01  0.4679413484D+00
      0.3163926960D+01  0.3623119853D+00
 Atom C12      Shell    36 SP   3    bf  102 -   105          9.190847642436         -1.601820498390          0.578145439814
      0.7868272350D+01 -0.1193324198D+00  0.6899906659D-01
      0.1881288540D+01 -0.1608541517D+00  0.3164239610D+00
      0.5442492580D+00  0.1143456438D+01  0.7443082909D+00
 Atom C12      Shell    37 SP   1    bf  106 -   109          9.190847642436         -1.601820498390          0.578145439814
      0.1687144782D+00  0.1000000000D+01  0.1000000000D+01
 Atom C12      Shell    38 D   1     bf  110 -   115          9.190847642436         -1.601820498390          0.578145439814
      0.8000000000D+00  0.1000000000D+01
 Atom H13      Shell    39 S   3     bf  116 -   116          8.556517262081         -1.860655039592         -1.383598590633
      0.1873113696D+02  0.3349460434D-01
      0.2825394365D+01  0.2347269535D+00
      0.6401216923D+00  0.8137573261D+00
 Atom H13      Shell    40 S   1     bf  117 -   117          8.556517262081         -1.860655039592         -1.383598590633
      0.1612777588D+00  0.1000000000D+01
 Atom C14      Shell    41 S   6     bf  118 -   118          8.327229892877          3.116208962200         -0.600978490452
      0.3047524880D+04  0.1834737132D-02
      0.4573695180D+03  0.1403732281D-01
      0.1039486850D+03  0.6884262226D-01
      0.2921015530D+02  0.2321844432D+00
      0.9286662960D+01  0.4679413484D+00
      0.3163926960D+01  0.3623119853D+00
 Atom C14      Shell    42 SP   3    bf  119 -   122          8.327229892877          3.116208962200         -0.600978490452
      0.7868272350D+01 -0.1193324198D+00  0.6899906659D-01
      0.1881288540D+01 -0.1608541517D+00  0.3164239610D+00
      0.5442492580D+00  0.1143456438D+01  0.7443082909D+00
 Atom C14      Shell    43 SP   1    bf  123 -   126          8.327229892877          3.116208962200         -0.600978490452
      0.1687144782D+00  0.1000000000D+01  0.1000000000D+01
 Atom C14      Shell    44 D   1     bf  127 -   132          8.327229892877          3.116208962200         -0.600978490452
      0.8000000000D+00  0.1000000000D+01
 Atom H15      Shell    45 S   3     bf  133 -   133          7.821439704533          2.365806311530         -2.471325160591
      0.1873113696D+02  0.3349460434D-01
      0.2825394365D+01  0.2347269535D+00
      0.6401216923D+00  0.8137573261D+00
 Atom H15      Shell    46 S   1     bf  134 -   134          7.821439704533          2.365806311530         -2.471325160591
      0.1612777588D+00  0.1000000000D+01
 Atom H16      Shell    47 S   3     bf  135 -   135         10.295925394288          3.760496857569         -0.732994965965
      0.1873113696D+02  0.3349460434D-01
      0.2825394365D+01  0.2347269535D+00
      0.6401216923D+00  0.8137573261D+00
 Atom H16      Shell    48 S   1     bf  136 -   136         10.295925394288          3.760496857569         -0.732994965965
      0.1612777588D+00  0.1000000000D+01
 Atom C17      Shell    49 S   6     bf  137 -   137          2.137670182384          7.036770612101          1.227979511309
      0.3047524880D+04  0.1834737132D-02
      0.4573695180D+03  0.1403732281D-01
      0.1039486850D+03  0.6884262226D-01
      0.2921015530D+02  0.2321844432D+00
      0.9286662960D+01  0.4679413484D+00
      0.3163926960D+01  0.3623119853D+00
 Atom C17      Shell    50 SP   3    bf  138 -   141          2.137670182384          7.036770612101          1.227979511309
      0.7868272350D+01 -0.1193324198D+00  0.6899906659D-01
      0.1881288540D+01 -0.1608541517D+00  0.3164239610D+00
      0.5442492580D+00  0.1143456438D+01  0.7443082909D+00
 Atom C17      Shell    51 SP   1    bf  142 -   145          2.137670182384          7.036770612101          1.227979511309
      0.1687144782D+00  0.1000000000D+01  0.1000000000D+01
 Atom C17      Shell    52 D   1     bf  146 -   151          2.137670182384          7.036770612101          1.227979511309
      0.8000000000D+00  0.1000000000D+01
 Atom C18      Shell    53 S   6     bf  152 -   152          5.136828808714         -2.253593636766          2.896226812345
      0.3047524880D+04  0.1834737132D-02
      0.4573695180D+03  0.1403732281D-01
      0.1039486850D+03  0.6884262226D-01
      0.2921015530D+02  0.2321844432D+00
      0.9286662960D+01  0.4679413484D+00
      0.3163926960D+01  0.3623119853D+00
 Atom C18      Shell    54 SP   3    bf  153 -   156          5.136828808714         -2.253593636766          2.896226812345
      0.7868272350D+01 -0.1193324198D+00  0.6899906659D-01
      0.1881288540D+01 -0.1608541517D+00  0.3164239610D+00
      0.5442492580D+00  0.1143456438D+01  0.7443082909D+00
 Atom C18      Shell    55 SP   1    bf  157 -   160          5.136828808714         -2.253593636766          2.896226812345
      0.1687144782D+00  0.1000000000D+01  0.1000000000D+01
 Atom C18      Shell    56 D   1     bf  161 -   166          5.136828808714         -2.253593636766          2.896226812345
      0.8000000000D+00  0.1000000000D+01
 Atom H19      Shell    57 S   3     bf  167 -   167          3.499401429125         -3.400343383636          2.372864060691
      0.1873113696D+02  0.3349460434D-01
      0.2825394365D+01  0.2347269535D+00
      0.6401216923D+00  0.8137573261D+00
 Atom H19      Shell    58 S   1     bf  168 -   168          3.499401429125         -3.400343383636          2.372864060691
      0.1612777588D+00  0.1000000000D+01
 Atom H20      Shell    59 S   3     bf  169 -   169          5.014940755047         -1.918808847995          4.939563548031
      0.1873113696D+02  0.3349460434D-01
      0.2825394365D+01  0.2347269535D+00
      0.6401216923D+00  0.8137573261D+00
 Atom H20      Shell    60 S   1     bf  170 -   170          5.014940755047         -1.918808847995          4.939563548031
      0.1612777588D+00  0.1000000000D+01
 Atom C21      Shell    61 S   6     bf  171 -   171          6.623411804410          5.397790728008          0.025737843163
      0.3047524880D+04  0.1834737132D-02
      0.4573695180D+03  0.1403732281D-01
      0.1039486850D+03  0.6884262226D-01
      0.2921015530D+02  0.2321844432D+00
      0.9286662960D+01  0.4679413484D+00
      0.3163926960D+01  0.3623119853D+00
 Atom C21      Shell    62 SP   3    bf  172 -   175          6.623411804410          5.397790728008          0.025737843163
      0.7868272350D+01 -0.1193324198D+00  0.6899906659D-01
      0.1881288540D+01 -0.1608541517D+00  0.3164239610D+00
      0.5442492580D+00  0.1143456438D+01  0.7443082909D+00
 Atom C21      Shell    63 SP   1    bf  176 -   179          6.623411804410          5.397790728008          0.025737843163
      0.1687144782D+00  0.1000000000D+01  0.1000000000D+01
 Atom C21      Shell    64 D   1     bf  180 -   185          6.623411804410          5.397790728008          0.025737843163
      0.8000000000D+00  0.1000000000D+01
 Atom H22      Shell    65 S   3     bf  186 -   186          7.365326202134          6.325175566269          1.718966492196
      0.1873113696D+02  0.3349460434D-01
      0.2825394365D+01  0.2347269535D+00
      0.6401216923D+00  0.8137573261D+00
 Atom H22      Shell    66 S   1     bf  187 -   187          7.365326202134          6.325175566269          1.718966492196
      0.1612777588D+00  0.1000000000D+01
 Atom H23      Shell    67 S   3     bf  188 -   188          6.790721428791          6.787745525872         -1.500519782618
      0.1873113696D+02  0.3349460434D-01
      0.2825394365D+01  0.2347269535D+00
      0.6401216923D+00  0.8137573261D+00
 Atom H23      Shell    68 S   1     bf  189 -   189          6.790721428791          6.787745525872         -1.500519782618
      0.1612777588D+00  0.1000000000D+01
 Atom C24      Shell    69 S   6     bf  190 -   190          7.691755132171         -3.555579906802          2.202630481962
      0.3047524880D+04  0.1834737132D-02
      0.4573695180D+03  0.1403732281D-01
      0.1039486850D+03  0.6884262226D-01
      0.2921015530D+02  0.2321844432D+00
      0.9286662960D+01  0.4679413484D+00
      0.3163926960D+01  0.3623119853D+00
 Atom C24      Shell    70 SP   3    bf  191 -   194          7.691755132171         -3.555579906802          2.202630481962
      0.7868272350D+01 -0.1193324198D+00  0.6899906659D-01
      0.1881288540D+01 -0.1608541517D+00  0.3164239610D+00
      0.5442492580D+00  0.1143456438D+01  0.7443082909D+00
 Atom C24      Shell    71 SP   1    bf  195 -   198          7.691755132171         -3.555579906802          2.202630481962
      0.1687144782D+00  0.1000000000D+01  0.1000000000D+01
 Atom C24      Shell    72 D   1     bf  199 -   204          7.691755132171         -3.555579906802          2.202630481962
      0.8000000000D+00  0.1000000000D+01
 Atom H25      Shell    73 S   3     bf  205 -   205          8.729436141644         -4.065307018290          3.915654654744
      0.1873113696D+02  0.3349460434D-01
      0.2825394365D+01  0.2347269535D+00
      0.6401216923D+00  0.8137573261D+00
 Atom H25      Shell    74 S   1     bf  206 -   206          8.729436141644         -4.065307018290          3.915654654744
      0.1612777588D+00  0.1000000000D+01
 Atom H26      Shell    75 S   3     bf  207 -   207          7.391016764349         -5.315057025026          1.156430322520
      0.1873113696D+02  0.3349460434D-01
      0.2825394365D+01  0.2347269535D+00
      0.6401216923D+00  0.8137573261D+00
 Atom H26      Shell    76 S   1     bf  208 -   208          7.391016764349         -5.315057025026          1.156430322520
      0.1612777588D+00  0.1000000000D+01
 Atom C27      Shell    77 S   6     bf  209 -   209          0.628350833336          1.556477256824          2.159206880894
      0.3047524880D+04  0.1834737132D-02
      0.4573695180D+03  0.1403732281D-01
      0.1039486850D+03  0.6884262226D-01
      0.2921015530D+02  0.2321844432D+00
      0.9286662960D+01  0.4679413484D+00
      0.3163926960D+01  0.3623119853D+00
 Atom C27      Shell    78 SP   3    bf  210 -   213          0.628350833336          1.556477256824          2.159206880894
      0.7868272350D+01 -0.1193324198D+00  0.6899906659D-01
      0.1881288540D+01 -0.1608541517D+00  0.3164239610D+00
      0.5442492580D+00  0.1143456438D+01  0.7443082909D+00
 Atom C27      Shell    79 SP   1    bf  214 -   217          0.628350833336          1.556477256824          2.159206880894
      0.1687144782D+00  0.1000000000D+01  0.1000000000D+01
 Atom C27      Shell    80 D   1     bf  218 -   223          0.628350833336          1.556477256824          2.159206880894
      0.8000000000D+00  0.1000000000D+01
 Atom H28      Shell    81 S   3     bf  224 -   224          0.314387765194          0.292798437810          3.770296826116
      0.1873113696D+02  0.3349460434D-01
      0.2825394365D+01  0.2347269535D+00
      0.6401216923D+00  0.8137573261D+00
 Atom H28      Shell    82 S   1     bf  225 -   225          0.314387765194          0.292798437810          3.770296826116
      0.1612777588D+00  0.1000000000D+01
 Atom C29      Shell    83 S   6     bf  226 -   226         12.118593461512         -1.874939687300          0.488833411192
      0.3047524880D+04  0.1834737132D-02
      0.4573695180D+03  0.1403732281D-01
      0.1039486850D+03  0.6884262226D-01
      0.2921015530D+02  0.2321844432D+00
      0.9286662960D+01  0.4679413484D+00
      0.3163926960D+01  0.3623119853D+00
 Atom C29      Shell    84 SP   3    bf  227 -   230         12.118593461512         -1.874939687300          0.488833411192
      0.7868272350D+01 -0.1193324198D+00  0.6899906659D-01
      0.1881288540D+01 -0.1608541517D+00  0.3164239610D+00
      0.5442492580D+00  0.1143456438D+01  0.7443082909D+00
 Atom C29      Shell    85 SP   1    bf  231 -   234         12.118593461512         -1.874939687300          0.488833411192
      0.1687144782D+00  0.1000000000D+01  0.1000000000D+01
 Atom C29      Shell    86 D   1     bf  235 -   240         12.118593461512         -1.874939687300          0.488833411192
      0.8000000000D+00  0.1000000000D+01
 Atom H30      Shell    87 S   3     bf  241 -   241         12.876838966962          0.000000000000          0.000000000000
      0.1873113696D+02  0.3349460434D-01
      0.2825394365D+01  0.2347269535D+00
      0.6401216923D+00  0.8137573261D+00
 Atom H30      Shell    88 S   1     bf  242 -   242         12.876838966962          0.000000000000          0.000000000000
      0.1612777588D+00  0.1000000000D+01
 Atom C31      Shell    89 S   6     bf  243 -   243          9.030814125071          1.880925073572          3.961353693946
      0.3047524880D+04  0.1834737132D-02
      0.4573695180D+03  0.1403732281D-01
      0.1039486850D+03  0.6884262226D-01
      0.2921015530D+02  0.2321844432D+00
      0.9286662960D+01  0.4679413484D+00
      0.3163926960D+01  0.3623119853D+00
 Atom C31      Shell    90 SP   3    bf  244 -   247          9.030814125071          1.880925073572          3.961353693946
      0.7868272350D+01 -0.1193324198D+00  0.6899906659D-01
      0.1881288540D+01 -0.1608541517D+00  0.3164239610D+00
      0.5442492580D+00  0.1143456438D+01  0.7443082909D+00
 Atom C31      Shell    91 SP   1    bf  248 -   251          9.030814125071          1.880925073572          3.961353693946
      0.1687144782D+00  0.1000000000D+01  0.1000000000D+01
 Atom C31      Shell    92 D   1     bf  252 -   257          9.030814125071          1.880925073572          3.961353693946
      0.8000000000D+00  0.1000000000D+01
 Atom H32      Shell    93 S   3     bf  258 -   258          8.033688868286          3.553036127557          4.651218117572
      0.1873113696D+02  0.3349460434D-01
      0.2825394365D+01  0.2347269535D+00
      0.6401216923D+00  0.8137573261D+00
 Atom H32      Shell    94 S   1     bf  259 -   259          8.033688868286          3.553036127557          4.651218117572
      0.1612777588D+00  0.1000000000D+01
 Atom H33      Shell    95 S   3     bf  260 -   260          8.835388966312          0.421507892591          5.411453580229
      0.1873113696D+02  0.3349460434D-01
      0.2825394365D+01  0.2347269535D+00
      0.6401216923D+00  0.8137573261D+00
 Atom H33      Shell    96 S   1     bf  261 -   261          8.835388966312          0.421507892591          5.411453580229
      0.1612777588D+00  0.1000000000D+01
 Atom H34      Shell    97 S   3     bf  262 -   262         11.036519515951          2.378682905399          3.837312788679
      0.1873113696D+02  0.3349460434D-01
      0.2825394365D+01  0.2347269535D+00
      0.6401216923D+00  0.8137573261D+00
 Atom H34      Shell    98 S   1     bf  263 -   263         11.036519515951          2.378682905399          3.837312788679
      0.1612777588D+00  0.1000000000D+01
 Atom C35      Shell    99 S   6     bf  264 -   264         -0.549888818484          6.171070837879          1.890233599941
      0.3047524880D+04  0.1834737132D-02
      0.4573695180D+03  0.1403732281D-01
      0.1039486850D+03  0.6884262226D-01
      0.2921015530D+02  0.2321844432D+00
      0.9286662960D+01  0.4679413484D+00
      0.3163926960D+01  0.3623119853D+00
 Atom C35      Shell   100 SP   3    bf  265 -   268         -0.549888818484          6.171070837879          1.890233599941
      0.7868272350D+01 -0.1193324198D+00  0.6899906659D-01
      0.1881288540D+01 -0.1608541517D+00  0.3164239610D+00
      0.5442492580D+00  0.1143456438D+01  0.7443082909D+00
 Atom C35      Shell   101 SP   1    bf  269 -   272         -0.549888818484          6.171070837879          1.890233599941
      0.1687144782D+00  0.1000000000D+01  0.1000000000D+01
 Atom C35      Shell   102 D   1     bf  273 -   278         -0.549888818484          6.171070837879          1.890233599941
      0.8000000000D+00  0.1000000000D+01
 Atom C36      Shell   103 S   6     bf  279 -   279          1.974189899039          8.918313815092         -1.036074931233
      0.3047524880D+04  0.1834737132D-02
      0.4573695180D+03  0.1403732281D-01
      0.1039486850D+03  0.6884262226D-01
      0.2921015530D+02  0.2321844432D+00
      0.9286662960D+01  0.4679413484D+00
      0.3163926960D+01  0.3623119853D+00
 Atom C36      Shell   104 SP   3    bf  280 -   283          1.974189899039          8.918313815092         -1.036074931233
      0.7868272350D+01 -0.1193324198D+00  0.6899906659D-01
      0.1881288540D+01 -0.1608541517D+00  0.3164239610D+00
      0.5442492580D+00  0.1143456438D+01  0.7443082909D+00
 Atom C36      Shell   105 SP   1    bf  284 -   287          1.974189899039          8.918313815092         -1.036074931233
      0.1687144782D+00  0.1000000000D+01  0.1000000000D+01
 Atom C36      Shell   106 D   1     bf  288 -   293          1.974189899039          8.918313815092         -1.036074931233
      0.8000000000D+00  0.1000000000D+01
 Atom H37      Shell   107 S   3     bf  294 -   294          1.509357124673          7.837222073586         -2.747257225748
      0.1873113696D+02  0.3349460434D-01
      0.2825394365D+01  0.2347269535D+00
      0.6401216923D+00  0.8137573261D+00
 Atom H37      Shell   108 S   1     bf  295 -   295          1.509357124673          7.837222073586         -2.747257225748
      0.1612777588D+00  0.1000000000D+01
 Atom H38      Shell   109 S   3     bf  296 -   296          3.837075231207          9.758161701179         -1.363813895014
      0.1873113696D+02  0.3349460434D-01
      0.2825394365D+01  0.2347269535D+00
      0.6401216923D+00  0.8137573261D+00
 Atom H38      Shell   110 S   1     bf  297 -   297          3.837075231207          9.758161701179         -1.363813895014
      0.1612777588D+00  0.1000000000D+01
 Atom C39      Shell   111 S   6     bf  298 -   298         -1.169030978580          3.745425195618          2.310702218748
      0.3047524880D+04  0.1834737132D-02
      0.4573695180D+03  0.1403732281D-01
      0.1039486850D+03  0.6884262226D-01
      0.2921015530D+02  0.2321844432D+00
      0.9286662960D+01  0.4679413484D+00
      0.3163926960D+01  0.3623119853D+00
 Atom C39      Shell   112 SP   3    bf  299 -   302         -1.169030978580          3.745425195618          2.310702218748
      0.7868272350D+01 -0.1193324198D+00  0.6899906659D-01
      0.1881288540D+01 -0.1608541517D+00  0.3164239610D+00
      0.5442492580D+00  0.1143456438D+01  0.7443082909D+00
 Atom C39      Shell   113 SP   1    bf  303 -   306         -1.169030978580          3.745425195618          2.310702218748
      0.1687144782D+00  0.1000000000D+01  0.1000000000D+01
 Atom C39      Shell   114 D   1     bf  307 -   312         -1.169030978580          3.745425195618          2.310702218748
      0.8000000000D+00  0.1000000000D+01
 Atom H40      Shell   115 S   3     bf  313 -   313         -3.126988753747          3.266733774506          2.731615735779
[...]
 1560 Fit      -0.001579
 1561 Fit       0.001440
 1562 Fit       0.001963
 1563 Fit       0.000982
 1564 Fit      -0.000454
 1565 Fit       0.002178
 1566 Fit       0.002807
 1567 Fit      -0.002619
 1568 Fit      -0.000428
 1569 Fit      -0.000617
 1570 Fit      -0.001410
 1571 Fit       0.000609
 1572 Fit       0.001592
 1573 Fit       0.000931
 1574 Fit      -0.001167
 1575 Fit       0.000721
 1576 Fit       0.002073
 1577 Fit       0.002185
 1578 Fit       0.000602
 1579 Fit      -0.001980
 1580 Fit      -0.000443
 1581 Fit      -0.002632
 1582 Fit      -0.000294
 1583 Fit       0.001673
 1584 Fit       0.000959
 1585 Fit      -0.001529
 1586 Fit      -0.000785
 1587 Fit       0.001663
 1588 Fit       0.002900
 1589 Fit       0.002254
 1590 Fit       0.000237
 1591 Fit       0.001993
 1592 Fit       0.000090
 1593 Fit      -0.002871
 1594 Fit      -0.002321
 1595 Fit      -0.003227
 1596 Fit      -0.003184
 1597 Fit      -0.003148
 1598 Fit       0.000908
 1599 Fit       0.002711
 1600 Fit      -0.001629
 1601 Fit       0.001357
 1602 Fit       0.002394
 1603 Fit       0.002660
 1604 Fit      -0.000650
 1605 Fit       0.000670
 1606 Fit       0.001369
 1607 Fit       0.000656
 1608 Fit      -0.001304
 1609 Fit      -0.000976
 1610 Fit      -0.000610
 1611 Fit       0.001650
 1612 Fit       0.002212
 1613 Fit       0.001385
 1614 Fit      -0.000838
 1615 Fit      -0.000001
 1616 Fit       0.001017
 1617 Fit       0.001124
 1618 Fit       0.000007
 1619 Fit      -0.002056
 1620 Fit      -0.001621
 1621 Fit      -0.000806
 1622 Fit      -0.001262
 1623 Fit      -0.002960
 1624 Fit      -0.000069
 1625 Fit      -0.000572
 1626 Fit      -0.001702
 1627 Fit      -0.002726
 1628 Fit       0.000032
 1629 Fit       0.000456
 1630 Fit      -0.000291
 1631 Fit       0.002122
 1632 Fit      -0.012499
 1633 Fit      -0.019289
 1634 Fit      -0.021821
 1635 Fit      -0.013775
 1636 Fit      -0.020244
 1637 Fit      -0.023920
 1638 Fit      -0.024863
 1639 Fit      -0.010166
 1640 Fit      -0.017601
 1641 Fit      -0.021943
 1642 Fit      -0.023344
 1643 Fit      -0.022056
 1644 Fit      -0.008138
 1645 Fit      -0.014711
 1646 Fit      -0.017269
 1647 Fit      -0.015883
 1648 Fit      -0.004068
 1649 Fit      -0.006057
 1650 Fit       0.006023
 1651 Fit       0.000743
 1652 Fit       0.014147
 1653 Fit       0.009472
 1654 Fit       0.003040
 1655 Fit       0.009249
 1656 Fit       0.015638
 1657 Fit       0.015187
 1658 Fit       0.010048
 1659 Fit       0.003719
 1660 Fit       0.002485
 1661 Fit       0.010921
 1662 Fit      -0.005780
 1663 Fit      -0.006301
 1664 Fit      -0.013424
 1665 Fit      -0.016051
 1666 Fit      -0.003463
 1667 Fit      -0.010299
 1668 Fit      -0.016450
 1669 Fit      -0.020627
 1670 Fit      -0.021530
 1671 Fit      -0.018000
 1672 Fit      -0.006531
 1673 Fit      -0.011679
 1674 Fit      -0.016873
 1675 Fit      -0.021409
 1676 Fit      -0.024028
 1677 Fit      -0.023237
 1678 Fit      -0.017873
 1679 Fit      -0.016570
 1680 Fit      -0.021132
 1681 Fit      -0.023794
 1682 Fit      -0.023362
 1683 Fit      -0.018390
 1684 Fit      -0.019759
 1685 Fit      -0.019478
 1686 Fit      -0.012704
 1687 Fit       0.019907
 1688 Fit       0.022784
 1689 Fit       0.017837
 1690 Fit       0.012312
 1691 Fit       0.024943
 1692 Fit       0.021514
 1693 Fit       0.017553
 1694 Fit       0.012144
 1695 Fit       0.005413
 1696 Fit       0.018792
 1697 Fit       0.015628
 1698 Fit       0.011424
 1699 Fit       0.005529
 1700 Fit       0.007148
 1701 Fit       0.002174
 1702 Fit      -0.008525
 1703 Fit      -0.000077
 1704 Fit      -0.004746
 1705 Fit       0.001547
 1706 Fit       0.006129
 1707 Fit       0.004956
 1708 Fit       0.004960
 1709 Fit       0.004740
 1710 Fit       0.013904
 1711 Fit       0.011029
 1712 Fit       0.006857
 1713 Fit       0.009224
 1714 Fit      -0.003466
 1715 Fit      -0.003102
 1716 Fit      -0.002746
 1717 Fit       0.000710
 1718 Fit      -0.000549
 1719 Fit       0.000671
 1720 Fit       0.001740
 1721 Fit       0.003437
 1722 Fit       0.004925
 1723 Fit       0.002076
 1724 Fit       0.002023
 1725 Fit       0.002865
 1726 Fit       0.004492
 1727 Fit       0.004646
 1728 Fit       0.003204
 1729 Fit       0.002613
 1730 Fit       0.003355
 1731 Fit       0.004912
 1732 Fit       0.004749
 1733 Fit       0.004218
 1734 Fit       0.004341
 1735 Fit       0.002381
 1736 Fit       0.003166
 1737 Fit       0.003572
 1738 Fit       0.001160
 1739 Fit      -0.003444
 1740 Fit      -0.005750
 1741 Fit      -0.005191
 1742 Fit      -0.006575
 1743 Fit      -0.006382
 1744 Fit      -0.011945
 1745 Fit      -0.008167
 1746 Fit      -0.006420
 1747 Fit      -0.020221
 1748 Fit      -0.011193
 1749 Fit      -0.007399
 1750 Fit      -0.015771
 1751 Fit      -0.008934
 1752 Fit      -0.016139
 1753 Fit       0.002526
 1754 Fit       0.003585
 1755 Fit       0.003851
 1756 Fit       0.003594
 1757 Fit       0.001794
 1758 Fit       0.000298
 1759 Fit       0.001281
 1760 Fit      -0.000511
 1761 Fit      -0.002538
 1762 Fit      -0.002503
 1763 Fit      -0.000860
 1764 Fit       0.005046
 1765 Fit       0.006319
 1766 Fit       0.005449
 1767 Fit       0.007297
 1768 Fit       0.006719
 1769 Fit       0.004966
 1770 Fit       0.006837
 1771 Fit       0.005615
 1772 Fit       0.007645
 1773 Fit       0.004611
 1774 Fit       0.006517
 1775 Fit       0.007195
 1776 Fit       0.006055
 1777 Fit       0.005861
 1778 Fit      -0.005155
 1779 Fit      -0.003777
 1780 Fit      -0.005808
 1781 Fit      -0.001457
 1782 Fit       0.002364
 1783 Fit      -0.000003
 1784 Fit       0.001212
 1785 Fit      -0.003034
 1786 Fit      -0.001438
 1787 Fit       0.000402
 1788 Fit      -0.001418
 1789 Fit      -0.004655
 1790 Fit      -0.002965
 1791 Fit      -0.001988
 1792 Fit      -0.001129
 1793 Fit      -0.004093
 1794 Fit      -0.002090
 1795 Fit      -0.000921
 1796 Fit      -0.007962
 1797 Fit      -0.003943
 1798 Fit      -0.001705
 1799 Fit      -0.005312
 1800 Fit      -0.003035
 1801 Fit      -0.010920
 1802 Fit       0.003453
 1803 Fit       0.004508
 1804 Fit       0.004687
 1805 Fit       0.002409
 1806 Fit       0.002378
 1807 Fit       0.001702
 1808 Fit       0.002255
 1809 Fit       0.000557
 1810 Fit      -0.001251
 1811 Fit      -0.001949
 1812 Fit      -0.004652
 1813 Fit      -0.007524
 1814 Fit      -0.007827
 1815 Fit       0.003448
 1816 Fit       0.001042
 1817 Fit       0.002703
 1818 Fit       0.000532
 1819 Fit       0.001477
 1820 Fit       0.001439
 1821 Fit       0.002667
 1822 Fit       0.001591
 1823 Fit       0.001119
 1824 Fit       0.001907
 1825 Fit       0.003660
 1826 Fit       0.003231
 1827 Fit       0.005651
 1828 Fit       0.005217
 1829 Fit       0.004421
 1830 Fit       0.006810
 1831 Fit       0.004006
 1832 Fit       0.007117
 1833 Fit       0.002918
 1834 Fit       0.002579
 1835 Fit       0.003403
 1836 Fit       0.003674
 1837 Fit       0.003559
 1838 Fit       0.002475
 1839 Fit       0.002166
 1840 Fit       0.003738
 1841 Fit       0.003585
 1842 Fit       0.003441
 1843 Fit       0.004990
 1844 Fit       0.004571
 1845 Fit       0.004365
 1846 Fit      -0.000018
 1847 Fit       0.006815
 1848 Fit       0.006137
 1849 Fit       0.012730
 1850 Fit       0.013759
 1851 Fit       0.007653
 1852 Fit       0.006783
 1853 Fit       0.006280
 1854 Fit       0.006463
 1855 Fit       0.007677
 1856 Fit       0.009312
 1857 Fit       0.008368
 1858 Fit       0.007249
 1859 Fit       0.010009
 1860 Fit       0.009739
 1861 Fit       0.009107
 1862 Fit       0.009258
 1863 Fit       0.008794
 1864 Fit       0.008022
 1865 Fit       0.008308
 1866 Fit       0.007646
 1867 Fit       0.007325
 1868 Fit       0.006883
 1869 Fit      -0.000174
 1870 Fit       0.002381
 1871 Fit      -0.000453
 1872 Fit      -0.000982
 1873 Fit      -0.000055
 1874 Fit       0.001221
 1875 Fit       0.001808
 1876 Fit       0.004115
 1877 Fit       0.002368
 1878 Fit       0.001809
 1879 Fit       0.004374
 1880 Fit       0.003256
 1881 Fit       0.001456
 1882 Fit       0.004110
 1883 Fit       0.002034
 1884 Fit      -0.001483
 1885 Fit       0.002950
 1886 Fit       0.000299
 1887 Fit      -0.005561
 1888 Fit       0.000068
 1889 Fit      -0.006314
 1890 Fit       0.005501
 1891 Fit       0.006485
 1892 Fit       0.005477
 1893 Fit       0.005315
 1894 Fit       0.006070
 1895 Fit       0.003583
 1896 Fit       0.006625
 1897 Fit       0.007410
 1898 Fit       0.006844
 1899 Fit       0.006797
 1900 Fit       0.006872
 1901 Fit       0.008052
 1902 Fit       0.008094
 1903 Fit       0.008305
 1904 Fit       0.008801
 1905 Fit       0.009170
 1906 Fit       0.009396
 1907 Fit       0.009999
 1908 Fit       0.007391
 1909 Fit       0.009826
 1910 Fit       0.008598
 1911 Fit       0.008669
 1912 Fit       0.012214
 1913 Fit       0.015417
 1914 Fit       0.011451
 1915 Fit       0.016737
 1916 Fit       0.005965
 1917 Fit       0.006342
 1918 Fit       0.005585
 1919 Fit       0.005597
 1920 Fit       0.005001
 1921 Fit       0.005917
 1922 Fit       0.006992
 1923 Fit       0.006610
 1924 Fit       0.001786
 1925 Fit       0.003816
 1926 Fit       0.001685
 1927 Fit       0.004014
 1928 Fit       0.003818
 1929 Fit       0.002986
 1930 Fit       0.002932
 1931 Fit       0.000723
 1932 Fit       0.002669
 1933 Fit       0.004826
 1934 Fit      -0.006653
 1935 Fit      -0.001336
 1936 Fit       0.002405
 1937 Fit      -0.005409
 1938 Fit       0.000442
 1939 Fit      -0.003367
 1940 Fit       0.001352
 1941 Fit       0.007998
 1942 Fit       0.012508
 1943 Fit       0.011104
 1944 Fit       0.006726
 1945 Fit       0.004029
 1946 Fit       0.004297
 1947 Fit       0.018380
 1948 Fit       0.013801
 1949 Fit       0.006826
 1950 Fit       0.007288
 1951 Fit       0.005687
 1952 Fit       0.022710
 1953 Fit       0.011351
 1954 Fit       0.013253
 1955 Fit       0.017645
 1956 Fit       0.009923
 1957 Fit       0.009832
 1958 Fit       0.010785
 1959 Fit       0.014162
 1960 Fit       0.007566
 1961 Fit       0.007067
 1962 Fit       0.007124
 1963 Fit       0.005424
 1964 Fit       0.003543
 1965 Fit      -0.000278
 1966 Fit      -0.009600
 1967 Fit       0.005956
 1968 Fit       0.004301
 1969 Fit       0.001206
 1970 Fit      -0.004514
 1971 Fit      -0.010120
 1972 Fit       0.005774
 1973 Fit       0.004313
 1974 Fit       0.001196
 1975 Fit      -0.000024
 1976 Fit       0.004421
 1977 Fit       0.006301
 1978 Fit       0.003957
 1979 Fit       0.002136
 1980 Fit       0.000643
 1981 Fit       0.000339
 1982 Fit      -0.005847
 1983 Fit      -0.006626
 1984 Fit      -0.004306
 1985 Fit       0.001798
 1986 Fit       0.006729
 1987 Fit      -0.012388
 1988 Fit      -0.003953
 1989 Fit       0.002376
 1990 Fit       0.008016
 1991 Fit      -0.004489
 1992 Fit      -0.002039
 1993 Fit       0.003872
 1994 Fit       0.008090
 1995 Fit       0.002877
 1996 Fit      -0.000777
 1997 Fit      -0.000592
 1998 Fit      -0.001932
 1999 Fit      -0.000963
 2000 Fit      -0.000186
 2001 Fit      -0.002948
 2002 Fit      -0.002756
 2003 Fit      -0.001464
 2004 Fit      -0.002771
 2005 Fit      -0.003066
 2006 Fit      -0.002919
 2007 Fit      -0.002185
 2008 Fit      -0.002313
 2009 Fit       0.000196
 2010 Fit       0.000017
 2011 Fit      -0.000327
 2012 Fit      -0.000746
 2013 Fit      -0.000775
 2014 Fit      -0.000608
 2015 Fit      -0.001054
 2016 Fit      -0.001813
 2017 Fit      -0.002895
 2018 Fit      -0.002065
 2019 Fit      -0.001856
 2020 Fit      -0.002490
 2021 Fit       0.001996
 2022 Fit       0.001048
 2023 Fit      -0.000275
 2024 Fit       0.000277
 2025 Fit       0.001648
 2026 Fit       0.000553
 2027 Fit      -0.000082
 2028 Fit      -0.001714
 2029 Fit      -0.000028
 2030 Fit      -0.001218
 2031 Fit       0.000258
 2032 Fit      -0.000929
 2033 Fit       0.000441
 2034 Fit       0.001528
 2035 Fit       0.002362
 2036 Fit       0.001638
 2037 Fit      -0.000411
 2038 Fit      -0.002004
 2039 Fit      -0.000710
 2040 Fit       0.000663
 2041 Fit       0.001615
 2042 Fit       0.000841
 2043 Fit      -0.000712
 2044 Fit      -0.001327
 2045 Fit       0.000391
 2046 Fit      -0.000725
 2047 Fit      -0.000658
 2048 Fit       0.000077
 2049 Fit      -0.000475
 2050 Fit       0.000968
 2051 Fit       0.000002
 2052 Fit       0.001571
 2053 Fit       0.000914
 2054 Fit       0.002399
 2055 Fit       0.001477
 2056 Fit       0.002797
 2057 Fit       0.004208
 2058 Fit       0.000349
 2059 Fit       0.001753
 2060 Fit       0.003181
 2061 Fit       0.004685
 2062 Fit       0.000308
 2063 Fit       0.001992
 2064 Fit       0.003704
 2065 Fit       0.000519
 2066 Fit      -0.001064
 2067 Fit       0.000069
 2068 Fit       0.000625
 2069 Fit       0.002273
 2070 Fit       0.000038
 2071 Fit       0.001657
 2072 Fit       0.002553
 2073 Fit       0.002897
 2074 Fit       0.002368
 2075 Fit       0.000311
 2076 Fit       0.001722
 2077 Fit       0.002201
 2078 Fit       0.000261
 2079 Fit      -0.000859
 2080 Fit       0.002130
 2081 Fit       0.001435
 2082 Fit       0.000633
 2083 Fit      -0.000286
 2084 Fit       0.001989
 2085 Fit       0.001548
 2086 Fit       0.000962
 2087 Fit       0.000413
 2088 Fit       0.001057
 2089 Fit       0.000752
 2090 Fit       0.000203
 2091 Fit       0.001032
 2092 Fit       0.000554
 2093 Fit       0.000056
 2094 Fit       0.001263
 2095 Fit       0.000871
 2096 Fit       0.000492
 2097 Fit       0.000311
 2098 Fit       0.000517
 2099 Fit      -0.001890
 2100 Fit      -0.002478
 2101 Fit      -0.001920
 2102 Fit      -0.002261
 2103 Fit      -0.002300
 2104 Fit      -0.002089
 2105 Fit      -0.002376
 2106 Fit      -0.001645
 2107 Fit      -0.000720
 2108 Fit      -0.001156
 2109 Fit      -0.002136
 2110 Fit      -0.000549
 2111 Fit      -0.002433
 2112 Fit      -0.001928
 2113 Fit      -0.000431
 2114 Fit      -0.000226
 2115 Fit      -0.001119
 2116 Fit      -0.001623
 2117 Fit       0.000674
 2118 Fit       0.001073
 2119 Fit       0.000475
 2120 Fit      -0.001100
 2121 Fit      -0.000583
 2122 Fit       0.001340
 2123 Fit       0.001877
 2124 Fit       0.001516
 2125 Fit      -0.000184
 2126 Fit      -0.000704
 2127 Fit      -0.000876
 2128 Fit      -0.001199
 2129 Fit       0.000116
 2130 Fit       0.000775
 2131 Fit       0.000308
 2132 Fit      -0.001130
 2133 Fit      -0.000380
 2134 Fit       0.000785
 2135 Fit       0.001491
 2136 Fit       0.001279
 2137 Fit       0.000084
 2138 Fit      -0.001609
 2139 Fit       0.001045
 2140 Fit       0.001990
 2141 Fit       0.001791
 2142 Fit       0.000005
 2143 Fit      -0.000463
 2144 Fit      -0.000290
 2145 Fit       0.001078
 2146 Fit       0.000584
 2147 Fit      -0.001119
 2148 Fit      -0.000402
 2149 Fit       0.001318
 2150 Fit       0.002188
 2151 Fit       0.001726
 2152 Fit       0.000259
 2153 Fit      -0.000464
 2154 Fit       0.001721
 2155 Fit       0.002827
 2156 Fit       0.002413
 2157 Fit       0.001142
 2158 Fit      -0.002231
 2159 Fit      -0.000752
 2160 Fit      -0.002337
 2161 Fit      -0.001847
 2162 Fit      -0.002013
 2163 Fit      -0.002283
 2164 Fit      -0.002596
 2165 Fit      -0.001475
 2166 Fit      -0.002295
 2167 Fit      -0.002262
 2168 Fit       0.000513
 2169 Fit      -0.001663
 2170 Fit       0.000927
 2171 Fit       0.001970
 2172 Fit      -0.000631
 2173 Fit       0.000834
 2174 Fit       0.001593
 2175 Fit       0.001707
 2176 Fit      -0.000567
 2177 Fit       0.000097
 2178 Fit       0.000665
 2179 Fit       0.000241
 2180 Fit      -0.001331
 2181 Fit      -0.000969
 2182 Fit      -0.000418
 2183 Fit       0.001571
 2184 Fit       0.001837
 2185 Fit       0.001079
 2186 Fit      -0.000712
 2187 Fit       0.000045
 2188 Fit       0.000709
 2189 Fit       0.001189
 2190 Fit       0.000974
 2191 Fit      -0.000038
 2192 Fit      -0.001572
 2193 Fit      -0.000440
 2194 Fit       0.000104
 2195 Fit      -0.000014
 2196 Fit      -0.000898
 2197 Fit      -0.001386
 2198 Fit      -0.001722
 2199 Fit      -0.000103
 2200 Fit      -0.001316
 2201 Fit      -0.000545
 2202 Fit      -0.001151
 2203 Fit      -0.001803
 2204 Fit       0.000290
 2205 Fit       0.000062
 2206 Fit      -0.000202
 2207 Fit       0.001531
 -----------------------------------------------------------------
 Leave Link  602 at Thu May 18 13:26:02 2017, MaxMem=   33554432 cpu:      19.7
 (Enter /scratch/michal/g09/l9999.exe)

 Test job not archived.
 1\1\GINC-RZEPICHA\SP\RHF\6-31G(d)\C27H46O2\MICHAL\18-May-2017\0\\#P HF
 /6-31G* SCF(Conver=6) NoSymm Test Pop=mk IOp(6/33=2) GFInput GFPrint\\
 MEP - Input generated by R.E.D.-III.x MOLECULE\\0,1\O,0,0.,0.,0.\H,0,-
 0.22986766,0.58464052,-0.73453219\O,0,-2.3847142,6.28109745,0.\H,0,-2.
 15529901,6.85206455,0.74668617\C,0,4.2512609,0.52642623,0.72236831\C,0
 ,2.7520368,0.13604719,0.75468504\H,0,2.48953502,-0.11352786,-0.2828258
 9\C,0,1.80816117,1.27450684,1.1572144\H,0,2.02051506,1.57204356,2.1942
 5143\C,0,2.01104061,2.49681831,0.22154687\H,0,1.63035149,2.18319817,-0
 .7647244\C,0,4.8635871,-0.8476469,0.30594139\H,0,4.52791392,-0.9846162
 4,-0.73216884\C,0,4.40658027,1.64902676,-0.31802412\H,0,4.13892763,1.2
 5193078,-1.30776895\H,0,5.44836906,1.98996923,-0.38788423\C,0,1.131206
 34,3.72369863,0.64981877\C,0,2.71829273,-1.19255039,1.53261722\H,0,1.8
 5180348,-1.79938422,1.25566558\H,0,2.65379235,-1.01538991,2.61390445\C
 ,0,3.50495857,2.85638783,0.01361988\H,0,3.89756276,3.34713875,0.909637
 89\H,0,3.59349501,3.59192023,-0.79404087\C,0,4.07030151,-1.88153185,1.
 16558185\H,0,4.61941865,-2.15126782,2.0720752\H,0,3.91115762,-2.812607
 04,0.61195657\C,0,0.33250894,0.82365229,1.14260307\H,0,0.16636684,0.15
 494226,1.99515515\C,0,6.41288346,-0.99217535,0.2586795\H,0,6.8141297,0
 .,0.\C,0,4.77890101,0.99534268,2.09625809\H,0,4.25124505,1.88018574,2.
 46131862\H,0,4.67548647,0.22305237,2.8636179\H,0,5.84027459,1.25874478
 ,2.03061847\C,0,-0.29098863,3.26559004,1.00026854\C,0,1.0446963,4.7193
 6841,-0.54826724\H,0,0.79871739,4.1472793,-1.45378591\H,0,2.03049276,5
 .16379677,-0.72169923\C,0,-0.61862455,1.98199365,1.22277095\H,0,-1.654
 73118,1.72868106,1.44550879\C,0,1.72618667,4.450742,1.8867754\H,0,2.66
 177828,4.96018365,1.63740843\H,0,1.04171666,5.2087375,2.27562454\H,0,1
 .92488425,3.74834297,2.7018245\C,0,-1.35246563,4.34539981,1.10520674\H
 ,0,-2.33795389,3.89371508,1.25518915\H,0,-1.15705059,4.97528259,1.9877
 9357\C,0,0.00566608,5.83969582,-0.38868842\H,0,0.28257689,6.50590223,0
 .441726\H,0,-0.01943067,6.45910744,-1.29238895\C,0,7.08662693,-1.42544
 411,1.58298\H,0,6.601242,-0.93691975,2.43456561\H,0,6.92952783,-2.5030
 0187,1.72335766\C,0,-1.38585335,5.26567518,-0.12449212\H,0,-1.70520263
 ,4.68210446,-0.99677606\C,0,6.81190652,-1.94988483,-0.8829999\H,0,6.38
 923799,-2.94896709,-0.71839525\H,0,7.89796318,-2.05927173,-0.96576359\
 H,0,6.44316698,-1.58835699,-1.84930323\C,0,8.59016516,-1.10618279,1.64
 997115\H,0,9.12620502,-1.62647687,0.84716686\H,0,8.72711543,-0.0336338
 ,1.45174006\C,0,9.24918332,-1.42546658,3.00441301\H,0,8.73735967,-0.84
 654156,3.78691951\H,0,10.28597794,-1.05774567,2.98540107\C,0,9.2744108
 1,-2.90790729,3.43447228\H,0,8.23835097,-3.27372696,3.4725146\C,0,9.86
 044831,-3.03885436,4.84952577\H,0,10.90166463,-2.69222523,4.87516143\H
 ,0,9.84899791,-4.08034278,5.19067521\H,0,9.29366558,-2.44235567,5.5737
 1067\C,0,10.05069951,-3.79262728,2.44613355\H,0,11.08999382,-3.4515247
 1,2.35185367\H,0,10.07307444,-4.83377946,2.78761113\H,0,9.60534676,-3.
 78445395,1.4461023\\Version=EM64L-G09RevC.01\HF=-1198.9245873\RMSD=4.9
 41e-07\Dipole=0.596749,0.7367969,0.3505744\Quadrupole=-5.334945,2.8587
 396,2.4762054,8.2741293,-2.3207014,5.4364153\PG=C01 [X(C27H46O2)]\\@


 SCIENCE AT ITS BEST PROVIDES US WITH BETTER QUESTIONS, 
 NOT ABSOLUTE ANSWERS

                                    -- NORMAN COUSINS, 1976
 Job cpu time:  0 days  0 hours 38 minutes 18.1 seconds.
 File lengths (MBytes):  RWF=    151 Int=      0 D2E=      0 Chk=     11 Scr=      1
 Normal termination of Gaussian 09 at Thu May 18 13:26:02 2017.
