 Entering Gaussian System, Link 0=/scratch/michal/g09//g09
 Input=JOB2-gau_m1-8-1.com
 Output=JOB2-gau_m1-8-1.log
 Initial command:
 /scratch/michal/g09/l1.exe /scratch/michal/gauss_scratch/Gau-12929.inp -scrdir=/scratch/michal/gauss_scratch/
 Entering Link 1 = /scratch/michal/g09/l1.exe PID=     12931.
  
 Copyright (c) 1988,1990,1992,1993,1995,1998,2003,2009,2011,
            Gaussian, Inc.  All Rights Reserved.
  
 This is part of the Gaussian(R) 09 program.  It is based on
 the Gaussian(R) 03 system (copyright 2003, Gaussian, Inc.),
 the Gaussian(R) 98 system (copyright 1998, Gaussian, Inc.),
 the Gaussian(R) 94 system (copyright 1995, Gaussian, Inc.),
 the Gaussian 92(TM) system (copyright 1992, Gaussian, Inc.),
 the Gaussian 90(TM) system (copyright 1990, Gaussian, Inc.),
 the Gaussian 88(TM) system (copyright 1988, Gaussian, Inc.),
 the Gaussian 86(TM) system (copyright 1986, Carnegie Mellon
 University), and the Gaussian 82(TM) system (copyright 1983,
 Carnegie Mellon University). Gaussian is a federally registered
 trademark of Gaussian, Inc.
  
 This software contains proprietary and confidential information,
 including trade secrets, belonging to Gaussian, Inc.
  
 This software is provided under written license and may be
 used, copied, transmitted, or stored only in accord with that
 written license.
  
 The following legend is applicable only to US Government
 contracts under FAR:
  
                    RESTRICTED RIGHTS LEGEND
  
 Use, reproduction and disclosure by the US Government is
 subject to restrictions as set forth in subparagraphs (a)
 and (c) of the Commercial Computer Software - Restricted
 Rights clause in FAR 52.227-19.
  
 Gaussian, Inc.
 340 Quinnipiac St., Bldg. 40, Wallingford CT 06492
  
  
 ---------------------------------------------------------------
 Warning -- This program may not be used in any manner that
 competes with the business of Gaussian, Inc. or will provide
 assistance to any competitor of Gaussian, Inc.  The licensee
 of this program is prohibited from giving any competitor of
 Gaussian, Inc. access to this program.  By using this program,
 the user acknowledges that Gaussian, Inc. is engaged in the
 business of creating and licensing software in the field of
 computational chemistry and represents and warrants to the
 licensee that it is not a competitor of Gaussian, Inc. and that
 it will not use this program in any manner prohibited above.
 ---------------------------------------------------------------
  

 Cite this work as:
 Gaussian 09, Revision C.01,
 M. J. Frisch, G. W. Trucks, H. B. Schlegel, G. E. Scuseria, 
 M. A. Robb, J. R. Cheeseman, G. Scalmani, V. Barone, B. Mennucci, 
 G. A. Petersson, H. Nakatsuji, M. Caricato, X. Li, H. P. Hratchian, 
 A. F. Izmaylov, J. Bloino, G. Zheng, J. L. Sonnenberg, M. Hada, 
 M. Ehara, K. Toyota, R. Fukuda, J. Hasegawa, M. Ishida, T. Nakajima, 
 Y. Honda, O. Kitao, H. Nakai, T. Vreven, J. A. Montgomery, Jr., 
 J. E. Peralta, F. Ogliaro, M. Bearpark, J. J. Heyd, E. Brothers, 
 K. N. Kudin, V. N. Staroverov, T. Keith, R. Kobayashi, J. Normand, 
 K. Raghavachari, A. Rendell, J. C. Burant, S. S. Iyengar, J. Tomasi, 
 M. Cossi, N. Rega, J. M. Millam, M. Klene, J. E. Knox, J. B. Cross, 
 V. Bakken, C. Adamo, J. Jaramillo, R. Gomperts, R. E. Stratmann, 
 O. Yazyev, A. J. Austin, R. Cammi, C. Pomelli, J. W. Ochterski, 
 R. L. Martin, K. Morokuma, V. G. Zakrzewski, G. A. Voth, 
 P. Salvador, J. J. Dannenberg, S. Dapprich, A. D. Daniels, 
 O. Farkas, J. B. Foresman, J. V. Ortiz, J. Cioslowski, 
 and D. J. Fox, Gaussian, Inc., Wallingford CT, 2010.
 
 ******************************************
 Gaussian 09:  EM64L-G09RevC.01 23-Sep-2011
                18-May-2017 
 ******************************************
 %Mem=256MB
 %NProc=48
 Will use up to   48 processors via shared memory.
 ----------------------------------------------------------------------
 #P HF/6-31G* SCF(Conver=6) NoSymm Test Pop=mk IOp(6/33=2) GFInput GFPr
 int
 ----------------------------------------------------------------------
 1/38=1/1;
 2/12=2,15=1,17=6,18=5,40=1/2;
 3/5=1,6=6,7=1,11=9,16=1,24=110,25=1,30=1/1,2,3;
 4//1;
 5/5=2,6=6,38=5/2;
 6/7=2,8=2,9=2,10=2,15=8,20=1,28=1,33=2/1,2;
 99/5=1,9=1/99;
 Leave Link    1 at Thu May 18 12:59:14 2017, MaxMem=   33554432 cpu:       6.8
 (Enter /scratch/michal/g09/l101.exe)
 ----------------------------------------------
 MEP - Input generated by R.E.D.-III.x MOLECULE
 ----------------------------------------------
 Charge =  0 Multiplicity = 1
 Symbolic Z-Matrix:
 O                     0.        0.        0. 
 H                     0.96652   0.        0. 
 O                     4.36466  -1.38575  -4.91454 
 H                     4.08871  -1.21585  -5.82622 
 C                    -1.24259   4.07354  -0.86056 
 C                    -1.14468   2.55398  -0.57443 
 H                    -0.44325   2.45631   0.26588 
 C                    -0.53827   1.73137  -1.71651 
 H                    -1.19753   1.78969  -2.59455 
 C                     0.86381   2.28377  -2.09037 
 H                     1.51414   2.05145  -1.23064 
 C                    -1.90243   4.54306   0.47385 
 H                    -1.11456   4.39563   1.22665 
 C                     0.18968   4.58576  -1.09173 
 H                     0.7655    4.45278  -0.16455 
 H                     0.2       5.66095  -1.31607 
 C                     1.4902    1.53136  -3.31693 
 C                    -2.53009   2.17834  -0.01688 
 H                    -2.47882   1.29764   0.62924 
 H                    -3.23098   1.94139  -0.82763 
 C                     0.8833    3.82682  -2.24228 
 H                     0.40605   4.11377  -3.18447 
 H                     1.92082   4.1726   -2.31455 
 C                    -2.98828   3.45664   0.75328 
 H                    -3.97406   3.77896   0.40622 
 H                    -3.08563   3.26669   1.82713 
 C                    -0.44939   0.23381  -1.35569 
 H                    -1.4625   -0.18471  -1.36339 
 C                    -2.32885   6.03363   0.61251 
 H                    -1.62665   6.6202    0. 
 C                    -2.12937   4.3988   -2.08289 
 H                    -1.74312   3.95498  -3.00407 
 H                    -3.15319   4.03516  -1.95826 
 H                    -2.17839   5.48124  -2.24424 
 C                     1.28341   0.017    -3.17823 
 C                     3.02398   1.81584  -3.3479 
 H                     3.42325   1.65911  -2.3361 
 H                     3.19162   2.87156  -3.58622 
 C                     0.41572  -0.53309  -2.31284 
 H                     0.33908  -1.61844  -2.25434 
 C                     0.85018   1.98871  -4.65623 
 H                     1.12628   3.01937  -4.8982 
 H                     1.17609   1.36431  -5.49178 
 H                    -0.24139   1.92675  -4.61504 
 C                     2.10843  -0.87327  -4.08945 
 H                     1.95382  -1.92551  -3.83137 
 H                     1.77314  -0.752    -5.13189 
 C                     3.82757   0.94301  -4.32403 
 H                     3.53516   1.15815  -5.36246 
 H                     4.89522   1.17691  -4.2442 
 C                    -3.7566    6.3724    0.12043 
 H                    -3.99929   5.79328  -0.77623 
 H                    -4.48341   6.06234   0.88486 
 C                     3.60796  -0.54298  -4.04191 
 H                     3.99266  -0.77937  -3.04213 
 C                    -2.14455   6.49389   2.07334 
 H                    -2.76697   5.89582   2.7506 
 H                    -2.42219   7.54399   2.21027 
 H                    -1.10289   6.38386   2.3948 
 C                    -3.97272   7.86059  -0.20258 
 H                    -3.73708   8.4705    0.67769 
 H                    -3.25887   8.15781  -0.98285 
 C                    -5.40777   8.1573   -0.66658 
 H                    -6.10419   7.83804   0.12228 
 H                    -5.63212   7.52784  -1.54004 
 C                    -5.72921   9.62546  -1.03179 
 H                    -6.78711   9.63587  -1.33351 
 C                    -4.91294   10.12972  -2.23353 
 H                    -3.84629   10.20839  -1.99361 
 H                    -5.25151   11.12451  -2.54502 
 H                    -5.01363   9.45812  -3.09436 
 C                    -5.59311   10.57847   0.1673 
 H                    -4.55046   10.67448   0.49152 
 H                    -5.9482    11.58274  -0.09077 
 H                    -6.17913   10.22727   1.0248 
 
 NAtoms=     75 NQM=        0 NQMF=       0 NMMI=     75 NMMIF=      0
                NMic=       0 NMicF=      0.
                    Isotopes and Nuclear Properties:
 (Nuclear quadrupole moments (NQMom) in fm**2, nuclear magnetic moments (NMagM)
  in nuclear magnetons)

  Atom         1           2           3           4           5           6           7           8           9          10
 IAtWgt=          16           1          16           1          12          12           1          12           1          12
 AtmWgt=  15.9949146   1.0078250  15.9949146   1.0078250  12.0000000  12.0000000   1.0078250  12.0000000   1.0078250  12.0000000
 NucSpn=           0           1           0           1           0           0           1           0           1           0
 AtZEff=   0.0000000   0.0000000   0.0000000   0.0000000   0.0000000   0.0000000   0.0000000   0.0000000   0.0000000   0.0000000
 NQMom=    0.0000000   0.0000000   0.0000000   0.0000000   0.0000000   0.0000000   0.0000000   0.0000000   0.0000000   0.0000000
 NMagM=    0.0000000   2.7928460   0.0000000   2.7928460   0.0000000   0.0000000   2.7928460   0.0000000   2.7928460   0.0000000

  Atom        11          12          13          14          15          16          17          18          19          20
 IAtWgt=           1          12           1          12           1           1          12          12           1           1
 AtmWgt=   1.0078250  12.0000000   1.0078250  12.0000000   1.0078250   1.0078250  12.0000000  12.0000000   1.0078250   1.0078250
 NucSpn=           1           0           1           0           1           1           0           0           1           1
 AtZEff=   0.0000000   0.0000000   0.0000000   0.0000000   0.0000000   0.0000000   0.0000000   0.0000000   0.0000000   0.0000000
 NQMom=    0.0000000   0.0000000   0.0000000   0.0000000   0.0000000   0.0000000   0.0000000   0.0000000   0.0000000   0.0000000
 NMagM=    2.7928460   0.0000000   2.7928460   0.0000000   2.7928460   2.7928460   0.0000000   0.0000000   2.7928460   2.7928460

  Atom        21          22          23          24          25          26          27          28          29          30
 IAtWgt=          12           1           1          12           1           1          12           1          12           1
 AtmWgt=  12.0000000   1.0078250   1.0078250  12.0000000   1.0078250   1.0078250  12.0000000   1.0078250  12.0000000   1.0078250
 NucSpn=           0           1           1           0           1           1           0           1           0           1
 AtZEff=   0.0000000   0.0000000   0.0000000   0.0000000   0.0000000   0.0000000   0.0000000   0.0000000   0.0000000   0.0000000
 NQMom=    0.0000000   0.0000000   0.0000000   0.0000000   0.0000000   0.0000000   0.0000000   0.0000000   0.0000000   0.0000000
 NMagM=    0.0000000   2.7928460   2.7928460   0.0000000   2.7928460   2.7928460   0.0000000   2.7928460   0.0000000   2.7928460

  Atom        31          32          33          34          35          36          37          38          39          40
 IAtWgt=          12           1           1           1          12          12           1           1          12           1
 AtmWgt=  12.0000000   1.0078250   1.0078250   1.0078250  12.0000000  12.0000000   1.0078250   1.0078250  12.0000000   1.0078250
 NucSpn=           0           1           1           1           0           0           1           1           0           1
 AtZEff=   0.0000000   0.0000000   0.0000000   0.0000000   0.0000000   0.0000000   0.0000000   0.0000000   0.0000000   0.0000000
 NQMom=    0.0000000   0.0000000   0.0000000   0.0000000   0.0000000   0.0000000   0.0000000   0.0000000   0.0000000   0.0000000
 NMagM=    0.0000000   2.7928460   2.7928460   2.7928460   0.0000000   0.0000000   2.7928460   2.7928460   0.0000000   2.7928460

  Atom        41          42          43          44          45          46          47          48          49          50
 IAtWgt=          12           1           1           1          12           1           1          12           1           1
 AtmWgt=  12.0000000   1.0078250   1.0078250   1.0078250  12.0000000   1.0078250   1.0078250  12.0000000   1.0078250   1.0078250
 NucSpn=           0           1           1           1           0           1           1           0           1           1
 AtZEff=   0.0000000   0.0000000   0.0000000   0.0000000   0.0000000   0.0000000   0.0000000   0.0000000   0.0000000   0.0000000
 NQMom=    0.0000000   0.0000000   0.0000000   0.0000000   0.0000000   0.0000000   0.0000000   0.0000000   0.0000000   0.0000000
 NMagM=    0.0000000   2.7928460   2.7928460   2.7928460   0.0000000   2.7928460   2.7928460   0.0000000   2.7928460   2.7928460

  Atom        51          52          53          54          55          56          57          58          59          60
 IAtWgt=          12           1           1          12           1          12           1           1           1          12
 AtmWgt=  12.0000000   1.0078250   1.0078250  12.0000000   1.0078250  12.0000000   1.0078250   1.0078250   1.0078250  12.0000000
 NucSpn=           0           1           1           0           1           0           1           1           1           0
 AtZEff=   0.0000000   0.0000000   0.0000000   0.0000000   0.0000000   0.0000000   0.0000000   0.0000000   0.0000000   0.0000000
 NQMom=    0.0000000   0.0000000   0.0000000   0.0000000   0.0000000   0.0000000   0.0000000   0.0000000   0.0000000   0.0000000
 NMagM=    0.0000000   2.7928460   2.7928460   0.0000000   2.7928460   0.0000000   2.7928460   2.7928460   2.7928460   0.0000000

  Atom        61          62          63          64          65          66          67          68          69          70
 IAtWgt=           1           1          12           1           1          12           1          12           1           1
 AtmWgt=   1.0078250   1.0078250  12.0000000   1.0078250   1.0078250  12.0000000   1.0078250  12.0000000   1.0078250   1.0078250
 NucSpn=           1           1           0           1           1           0           1           0           1           1
 AtZEff=   0.0000000   0.0000000   0.0000000   0.0000000   0.0000000   0.0000000   0.0000000   0.0000000   0.0000000   0.0000000
 NQMom=    0.0000000   0.0000000   0.0000000   0.0000000   0.0000000   0.0000000   0.0000000   0.0000000   0.0000000   0.0000000
 NMagM=    2.7928460   2.7928460   0.0000000   2.7928460   2.7928460   0.0000000   2.7928460   0.0000000   2.7928460   2.7928460

  Atom        71          72          73          74          75
 IAtWgt=           1          12           1           1           1
 AtmWgt=   1.0078250  12.0000000   1.0078250   1.0078250   1.0078250
 NucSpn=           1           0           1           1           1
 AtZEff=   0.0000000   0.0000000   0.0000000   0.0000000   0.0000000
 NQMom=    0.0000000   0.0000000   0.0000000   0.0000000   0.0000000
 NMagM=    2.7928460   0.0000000   2.7928460   2.7928460   2.7928460
 Leave Link  101 at Thu May 18 12:59:14 2017, MaxMem=   33554432 cpu:       9.0
 (Enter /scratch/michal/g09/l202.exe)
 Symmetry turned off by external request.
 Stoichiometry    C27H46O2
 Framework group  C1[X(C27H46O2)]
 Deg. of freedom   219
 Full point group                 C1      NOp   1
                          Input orientation:                          
 ---------------------------------------------------------------------
 Center     Atomic      Atomic             Coordinates (Angstroms)
 Number     Number       Type             X           Y           Z
 ---------------------------------------------------------------------
      1          8           0        0.000000    0.000000    0.000000
      2          1           0        0.966519    0.000000    0.000000
      3          8           0        4.364664   -1.385748   -4.914542
      4          1           0        4.088714   -1.215850   -5.826219
      5          6           0       -1.242590    4.073538   -0.860558
      6          6           0       -1.144683    2.553979   -0.574431
      7          1           0       -0.443250    2.456309    0.265878
      8          6           0       -0.538274    1.731367   -1.716508
      9          1           0       -1.197531    1.789694   -2.594546
     10          6           0        0.863813    2.283775   -2.090369
     11          1           0        1.514138    2.051455   -1.230637
     12          6           0       -1.902435    4.543055    0.473853
     13          1           0       -1.114557    4.395630    1.226653
     14          6           0        0.189680    4.585756   -1.091732
     15          1           0        0.765504    4.452775   -0.164547
     16          1           0        0.200004    5.660950   -1.316074
     17          6           0        1.490197    1.531360   -3.316928
     18          6           0       -2.530095    2.178342   -0.016881
     19          1           0       -2.478820    1.297638    0.629238
     20          1           0       -3.230978    1.941394   -0.827625
     21          6           0        0.883295    3.826818   -2.242285
     22          1           0        0.406048    4.113769   -3.184470
     23          1           0        1.920816    4.172599   -2.314553
     24          6           0       -2.988280    3.456641    0.753281
     25          1           0       -3.974060    3.778965    0.406221
     26          1           0       -3.085632    3.266688    1.827127
     27          6           0       -0.449391    0.233806   -1.355693
     28          1           0       -1.462502   -0.184710   -1.363387
     29          6           0       -2.328851    6.033630    0.612513
     30          1           0       -1.626653    6.620197    0.000000
     31          6           0       -2.129365    4.398805   -2.082885
     32          1           0       -1.743115    3.954983   -3.004075
     33          1           0       -3.153188    4.035161   -1.958265
     34          1           0       -2.178386    5.481238   -2.244236
     35          6           0        1.283412    0.016997   -3.178235
     36          6           0        3.023978    1.815837   -3.347902
     37          1           0        3.423255    1.659107   -2.336103
     38          1           0        3.191621    2.871556   -3.586219
     39          6           0        0.415718   -0.533088   -2.312835
     40          1           0        0.339082   -1.618441   -2.254336
     41          6           0        0.850177    1.988713   -4.656228
     42          1           0        1.126285    3.019375   -4.898203
     43          1           0        1.176085    1.364305   -5.491776
     44          1           0       -0.241395    1.926748   -4.615044
     45          6           0        2.108429   -0.873270   -4.089452
     46          1           0        1.953821   -1.925506   -3.831370
     47          1           0        1.773135   -0.752000   -5.131891
     48          6           0        3.827569    0.943010   -4.324028
     49          1           0        3.535160    1.158155   -5.362457
     50          1           0        4.895225    1.176912   -4.244201
     51          6           0       -3.756604    6.372400    0.120432
     52          1           0       -3.999293    5.793280   -0.776231
     53          1           0       -4.483413    6.062341    0.884859
     54          6           0        3.607964   -0.542982   -4.041912
     55          1           0        3.992655   -0.779374   -3.042130
     56          6           0       -2.144549    6.493890    2.073341
     57          1           0       -2.766967    5.895823    2.750600
     58          1           0       -2.422187    7.543990    2.210271
     59          1           0       -1.102890    6.383857    2.394804
     60          6           0       -3.972722    7.860592   -0.202581
     61          1           0       -3.737076    8.470505    0.677685
     62          1           0       -3.258868    8.157807   -0.982853
     63          6           0       -5.407769    8.157305   -0.666582
     64          1           0       -6.104186    7.838042    0.122279
     65          1           0       -5.632123    7.527838   -1.540041
     66          6           0       -5.729210    9.625464   -1.031792
     67          1           0       -6.787112    9.635873   -1.333514
     68          6           0       -4.912937   10.129716   -2.233533
     69          1           0       -3.846294   10.208391   -1.993607
     70          1           0       -5.251513   11.124508   -2.545024
     71          1           0       -5.013634    9.458120   -3.094359
     72          6           0       -5.593109   10.578468    0.167300
     73          1           0       -4.550459   10.674480    0.491519
     74          1           0       -5.948204   11.582743   -0.090774
     75          1           0       -6.179128   10.227275    1.024799
 ---------------------------------------------------------------------
 Rotational constants (GHZ):      0.3783383      0.0588526      0.0548648
 Leave Link  202 at Thu May 18 12:59:14 2017, MaxMem=   33554432 cpu:       2.1
 (Enter /scratch/michal/g09/l301.exe)
 Standard basis: 6-31G(d) (6D, 7F)
 Ernie: Thresh=  0.10000D-02 Tol=  0.10000D-05 Strict=F.
 AO basis set in the form of general basis input (Overlap normalization):
      1 0
 S   6 1.00       0.000000000000
      0.5484671660D+04  0.1831074430D-02
      0.8252349460D+03  0.1395017220D-01
      0.1880469580D+03  0.6844507810D-01
      0.5296450000D+02  0.2327143360D+00
      0.1689757040D+02  0.4701928980D+00
      0.5799635340D+01  0.3585208530D+00
 SP   3 1.00       0.000000000000
      0.1553961625D+02 -0.1107775495D+00  0.7087426823D-01
      0.3599933586D+01 -0.1480262627D+00  0.3397528391D+00
      0.1013761750D+01  0.1130767015D+01  0.7271585773D+00
 SP   1 1.00       0.000000000000
      0.2700058226D+00  0.1000000000D+01  0.1000000000D+01
 D   1 1.00       0.000000000000
      0.8000000000D+00  0.1000000000D+01
 ****
      2 0
 S   3 1.00       0.000000000000
      0.1873113696D+02  0.3349460434D-01
      0.2825394365D+01  0.2347269535D+00
      0.6401216923D+00  0.8137573261D+00
 S   1 1.00       0.000000000000
      0.1612777588D+00  0.1000000000D+01
 ****
      3 0
 S   6 1.00       0.000000000000
      0.5484671660D+04  0.1831074430D-02
      0.8252349460D+03  0.1395017220D-01
      0.1880469580D+03  0.6844507810D-01
      0.5296450000D+02  0.2327143360D+00
      0.1689757040D+02  0.4701928980D+00
      0.5799635340D+01  0.3585208530D+00
 SP   3 1.00       0.000000000000
      0.1553961625D+02 -0.1107775495D+00  0.7087426823D-01
      0.3599933586D+01 -0.1480262627D+00  0.3397528391D+00
      0.1013761750D+01  0.1130767015D+01  0.7271585773D+00
 SP   1 1.00       0.000000000000
      0.2700058226D+00  0.1000000000D+01  0.1000000000D+01
 D   1 1.00       0.000000000000
      0.8000000000D+00  0.1000000000D+01
 ****
      4 0
 S   3 1.00       0.000000000000
      0.1873113696D+02  0.3349460434D-01
      0.2825394365D+01  0.2347269535D+00
      0.6401216923D+00  0.8137573261D+00
 S   1 1.00       0.000000000000
      0.1612777588D+00  0.1000000000D+01
 ****
      5 0
 S   6 1.00       0.000000000000
      0.3047524880D+04  0.1834737132D-02
      0.4573695180D+03  0.1403732281D-01
      0.1039486850D+03  0.6884262226D-01
      0.2921015530D+02  0.2321844432D+00
      0.9286662960D+01  0.4679413484D+00
      0.3163926960D+01  0.3623119853D+00
 SP   3 1.00       0.000000000000
      0.7868272350D+01 -0.1193324198D+00  0.6899906659D-01
      0.1881288540D+01 -0.1608541517D+00  0.3164239610D+00
      0.5442492580D+00  0.1143456438D+01  0.7443082909D+00
 SP   1 1.00       0.000000000000
      0.1687144782D+00  0.1000000000D+01  0.1000000000D+01
 D   1 1.00       0.000000000000
      0.8000000000D+00  0.1000000000D+01
 ****
      6 0
 S   6 1.00       0.000000000000
      0.3047524880D+04  0.1834737132D-02
      0.4573695180D+03  0.1403732281D-01
      0.1039486850D+03  0.6884262226D-01
      0.2921015530D+02  0.2321844432D+00
      0.9286662960D+01  0.4679413484D+00
      0.3163926960D+01  0.3623119853D+00
 SP   3 1.00       0.000000000000
      0.7868272350D+01 -0.1193324198D+00  0.6899906659D-01
      0.1881288540D+01 -0.1608541517D+00  0.3164239610D+00
      0.5442492580D+00  0.1143456438D+01  0.7443082909D+00
 SP   1 1.00       0.000000000000
      0.1687144782D+00  0.1000000000D+01  0.1000000000D+01
 D   1 1.00       0.000000000000
      0.8000000000D+00  0.1000000000D+01
 ****
      7 0
 S   3 1.00       0.000000000000
      0.1873113696D+02  0.3349460434D-01
      0.2825394365D+01  0.2347269535D+00
      0.6401216923D+00  0.8137573261D+00
 S   1 1.00       0.000000000000
      0.1612777588D+00  0.1000000000D+01
 ****
      8 0
 S   6 1.00       0.000000000000
      0.3047524880D+04  0.1834737132D-02
      0.4573695180D+03  0.1403732281D-01
      0.1039486850D+03  0.6884262226D-01
      0.2921015530D+02  0.2321844432D+00
      0.9286662960D+01  0.4679413484D+00
      0.3163926960D+01  0.3623119853D+00
 SP   3 1.00       0.000000000000
      0.7868272350D+01 -0.1193324198D+00  0.6899906659D-01
      0.1881288540D+01 -0.1608541517D+00  0.3164239610D+00
      0.5442492580D+00  0.1143456438D+01  0.7443082909D+00
 SP   1 1.00       0.000000000000
      0.1687144782D+00  0.1000000000D+01  0.1000000000D+01
 D   1 1.00       0.000000000000
      0.8000000000D+00  0.1000000000D+01
 ****
      9 0
 S   3 1.00       0.000000000000
      0.1873113696D+02  0.3349460434D-01
      0.2825394365D+01  0.2347269535D+00
      0.6401216923D+00  0.8137573261D+00
 S   1 1.00       0.000000000000
      0.1612777588D+00  0.1000000000D+01
 ****
     10 0
 S   6 1.00       0.000000000000
      0.3047524880D+04  0.1834737132D-02
      0.4573695180D+03  0.1403732281D-01
      0.1039486850D+03  0.6884262226D-01
      0.2921015530D+02  0.2321844432D+00
      0.9286662960D+01  0.4679413484D+00
      0.3163926960D+01  0.3623119853D+00
 SP   3 1.00       0.000000000000
      0.7868272350D+01 -0.1193324198D+00  0.6899906659D-01
      0.1881288540D+01 -0.1608541517D+00  0.3164239610D+00
      0.5442492580D+00  0.1143456438D+01  0.7443082909D+00
 SP   1 1.00       0.000000000000
      0.1687144782D+00  0.1000000000D+01  0.1000000000D+01
 D   1 1.00       0.000000000000
      0.8000000000D+00  0.1000000000D+01
 ****
     11 0
 S   3 1.00       0.000000000000
      0.1873113696D+02  0.3349460434D-01
      0.2825394365D+01  0.2347269535D+00
      0.6401216923D+00  0.8137573261D+00
 S   1 1.00       0.000000000000
      0.1612777588D+00  0.1000000000D+01
 ****
     12 0
 S   6 1.00       0.000000000000
      0.3047524880D+04  0.1834737132D-02
      0.4573695180D+03  0.1403732281D-01
      0.1039486850D+03  0.6884262226D-01
      0.2921015530D+02  0.2321844432D+00
      0.9286662960D+01  0.4679413484D+00
      0.3163926960D+01  0.3623119853D+00
 SP   3 1.00       0.000000000000
      0.7868272350D+01 -0.1193324198D+00  0.6899906659D-01
      0.1881288540D+01 -0.1608541517D+00  0.3164239610D+00
      0.5442492580D+00  0.1143456438D+01  0.7443082909D+00
 SP   1 1.00       0.000000000000
      0.1687144782D+00  0.1000000000D+01  0.1000000000D+01
 D   1 1.00       0.000000000000
      0.8000000000D+00  0.1000000000D+01
 ****
     13 0
 S   3 1.00       0.000000000000
      0.1873113696D+02  0.3349460434D-01
      0.2825394365D+01  0.2347269535D+00
      0.6401216923D+00  0.8137573261D+00
 S   1 1.00       0.000000000000
      0.1612777588D+00  0.1000000000D+01
 ****
     14 0
 S   6 1.00       0.000000000000
      0.3047524880D+04  0.1834737132D-02
      0.4573695180D+03  0.1403732281D-01
      0.1039486850D+03  0.6884262226D-01
      0.2921015530D+02  0.2321844432D+00
      0.9286662960D+01  0.4679413484D+00
      0.3163926960D+01  0.3623119853D+00
 SP   3 1.00       0.000000000000
      0.7868272350D+01 -0.1193324198D+00  0.6899906659D-01
      0.1881288540D+01 -0.1608541517D+00  0.3164239610D+00
      0.5442492580D+00  0.1143456438D+01  0.7443082909D+00
 SP   1 1.00       0.000000000000
      0.1687144782D+00  0.1000000000D+01  0.1000000000D+01
 D   1 1.00       0.000000000000
      0.8000000000D+00  0.1000000000D+01
 ****
     15 0
 S   3 1.00       0.000000000000
      0.1873113696D+02  0.3349460434D-01
      0.2825394365D+01  0.2347269535D+00
      0.6401216923D+00  0.8137573261D+00
 S   1 1.00       0.000000000000
      0.1612777588D+00  0.1000000000D+01
 ****
     16 0
 S   3 1.00       0.000000000000
      0.1873113696D+02  0.3349460434D-01
      0.2825394365D+01  0.2347269535D+00
      0.6401216923D+00  0.8137573261D+00
 S   1 1.00       0.000000000000
      0.1612777588D+00  0.1000000000D+01
 ****
     17 0
 S   6 1.00       0.000000000000
      0.3047524880D+04  0.1834737132D-02
      0.4573695180D+03  0.1403732281D-01
      0.1039486850D+03  0.6884262226D-01
      0.2921015530D+02  0.2321844432D+00
      0.9286662960D+01  0.4679413484D+00
      0.3163926960D+01  0.3623119853D+00
 SP   3 1.00       0.000000000000
      0.7868272350D+01 -0.1193324198D+00  0.6899906659D-01
      0.1881288540D+01 -0.1608541517D+00  0.3164239610D+00
      0.5442492580D+00  0.1143456438D+01  0.7443082909D+00
 SP   1 1.00       0.000000000000
      0.1687144782D+00  0.1000000000D+01  0.1000000000D+01
 D   1 1.00       0.000000000000
      0.8000000000D+00  0.1000000000D+01
 ****
     18 0
 S   6 1.00       0.000000000000
      0.3047524880D+04  0.1834737132D-02
      0.4573695180D+03  0.1403732281D-01
      0.1039486850D+03  0.6884262226D-01
      0.2921015530D+02  0.2321844432D+00
      0.9286662960D+01  0.4679413484D+00
      0.3163926960D+01  0.3623119853D+00
 SP   3 1.00       0.000000000000
      0.7868272350D+01 -0.1193324198D+00  0.6899906659D-01
      0.1881288540D+01 -0.1608541517D+00  0.3164239610D+00
      0.5442492580D+00  0.1143456438D+01  0.7443082909D+00
 SP   1 1.00       0.000000000000
      0.1687144782D+00  0.1000000000D+01  0.1000000000D+01
 D   1 1.00       0.000000000000
      0.8000000000D+00  0.1000000000D+01
 ****
     19 0
 S   3 1.00       0.000000000000
      0.1873113696D+02  0.3349460434D-01
      0.2825394365D+01  0.2347269535D+00
      0.6401216923D+00  0.8137573261D+00
 S   1 1.00       0.000000000000
      0.1612777588D+00  0.1000000000D+01
 ****
     20 0
 S   3 1.00       0.000000000000
      0.1873113696D+02  0.3349460434D-01
      0.2825394365D+01  0.2347269535D+00
      0.6401216923D+00  0.8137573261D+00
 S   1 1.00       0.000000000000
      0.1612777588D+00  0.1000000000D+01
 ****
     21 0
 S   6 1.00       0.000000000000
      0.3047524880D+04  0.1834737132D-02
      0.4573695180D+03  0.1403732281D-01
      0.1039486850D+03  0.6884262226D-01
      0.2921015530D+02  0.2321844432D+00
      0.9286662960D+01  0.4679413484D+00
      0.3163926960D+01  0.3623119853D+00
 SP   3 1.00       0.000000000000
      0.7868272350D+01 -0.1193324198D+00  0.6899906659D-01
      0.1881288540D+01 -0.1608541517D+00  0.3164239610D+00
      0.5442492580D+00  0.1143456438D+01  0.7443082909D+00
 SP   1 1.00       0.000000000000
      0.1687144782D+00  0.1000000000D+01  0.1000000000D+01
 D   1 1.00       0.000000000000
      0.8000000000D+00  0.1000000000D+01
 ****
     22 0
 S   3 1.00       0.000000000000
      0.1873113696D+02  0.3349460434D-01
      0.2825394365D+01  0.2347269535D+00
      0.6401216923D+00  0.8137573261D+00
 S   1 1.00       0.000000000000
      0.1612777588D+00  0.1000000000D+01
 ****
     23 0
 S   3 1.00       0.000000000000
      0.1873113696D+02  0.3349460434D-01
      0.2825394365D+01  0.2347269535D+00
      0.6401216923D+00  0.8137573261D+00
 S   1 1.00       0.000000000000
      0.1612777588D+00  0.1000000000D+01
 ****
     24 0
 S   6 1.00       0.000000000000
      0.3047524880D+04  0.1834737132D-02
      0.4573695180D+03  0.1403732281D-01
      0.1039486850D+03  0.6884262226D-01
      0.2921015530D+02  0.2321844432D+00
      0.9286662960D+01  0.4679413484D+00
      0.3163926960D+01  0.3623119853D+00
 SP   3 1.00       0.000000000000
      0.7868272350D+01 -0.1193324198D+00  0.6899906659D-01
      0.1881288540D+01 -0.1608541517D+00  0.3164239610D+00
      0.5442492580D+00  0.1143456438D+01  0.7443082909D+00
 SP   1 1.00       0.000000000000
      0.1687144782D+00  0.1000000000D+01  0.1000000000D+01
 D   1 1.00       0.000000000000
      0.8000000000D+00  0.1000000000D+01
 ****
     25 0
 S   3 1.00       0.000000000000
      0.1873113696D+02  0.3349460434D-01
      0.2825394365D+01  0.2347269535D+00
      0.6401216923D+00  0.8137573261D+00
 S   1 1.00       0.000000000000
      0.1612777588D+00  0.1000000000D+01
 ****
     26 0
 S   3 1.00       0.000000000000
      0.1873113696D+02  0.3349460434D-01
      0.2825394365D+01  0.2347269535D+00
      0.6401216923D+00  0.8137573261D+00
 S   1 1.00       0.000000000000
      0.1612777588D+00  0.1000000000D+01
 ****
     27 0
 S   6 1.00       0.000000000000
      0.3047524880D+04  0.1834737132D-02
      0.4573695180D+03  0.1403732281D-01
      0.1039486850D+03  0.6884262226D-01
      0.2921015530D+02  0.2321844432D+00
      0.9286662960D+01  0.4679413484D+00
      0.3163926960D+01  0.3623119853D+00
 SP   3 1.00       0.000000000000
      0.7868272350D+01 -0.1193324198D+00  0.6899906659D-01
      0.1881288540D+01 -0.1608541517D+00  0.3164239610D+00
      0.5442492580D+00  0.1143456438D+01  0.7443082909D+00
 SP   1 1.00       0.000000000000
      0.1687144782D+00  0.1000000000D+01  0.1000000000D+01
 D   1 1.00       0.000000000000
      0.8000000000D+00  0.1000000000D+01
 ****
     28 0
 S   3 1.00       0.000000000000
      0.1873113696D+02  0.3349460434D-01
      0.2825394365D+01  0.2347269535D+00
      0.6401216923D+00  0.8137573261D+00
 S   1 1.00       0.000000000000
      0.1612777588D+00  0.1000000000D+01
 ****
     29 0
 S   6 1.00       0.000000000000
      0.3047524880D+04  0.1834737132D-02
      0.4573695180D+03  0.1403732281D-01
      0.1039486850D+03  0.6884262226D-01
      0.2921015530D+02  0.2321844432D+00
      0.9286662960D+01  0.4679413484D+00
      0.3163926960D+01  0.3623119853D+00
 SP   3 1.00       0.000000000000
      0.7868272350D+01 -0.1193324198D+00  0.6899906659D-01
      0.1881288540D+01 -0.1608541517D+00  0.3164239610D+00
      0.5442492580D+00  0.1143456438D+01  0.7443082909D+00
 SP   1 1.00       0.000000000000
      0.1687144782D+00  0.1000000000D+01  0.1000000000D+01
 D   1 1.00       0.000000000000
      0.8000000000D+00  0.1000000000D+01
 ****
     30 0
 S   3 1.00       0.000000000000
      0.1873113696D+02  0.3349460434D-01
      0.2825394365D+01  0.2347269535D+00
      0.6401216923D+00  0.8137573261D+00
 S   1 1.00       0.000000000000
      0.1612777588D+00  0.1000000000D+01
 ****
     31 0
 S   6 1.00       0.000000000000
      0.3047524880D+04  0.1834737132D-02
      0.4573695180D+03  0.1403732281D-01
      0.1039486850D+03  0.6884262226D-01
      0.2921015530D+02  0.2321844432D+00
      0.9286662960D+01  0.4679413484D+00
      0.3163926960D+01  0.3623119853D+00
 SP   3 1.00       0.000000000000
      0.7868272350D+01 -0.1193324198D+00  0.6899906659D-01
      0.1881288540D+01 -0.1608541517D+00  0.3164239610D+00
      0.5442492580D+00  0.1143456438D+01  0.7443082909D+00
 SP   1 1.00       0.000000000000
      0.1687144782D+00  0.1000000000D+01  0.1000000000D+01
 D   1 1.00       0.000000000000
      0.8000000000D+00  0.1000000000D+01
 ****
     32 0
 S   3 1.00       0.000000000000
      0.1873113696D+02  0.3349460434D-01
      0.2825394365D+01  0.2347269535D+00
      0.6401216923D+00  0.8137573261D+00
 S   1 1.00       0.000000000000
      0.1612777588D+00  0.1000000000D+01
 ****
     33 0
 S   3 1.00       0.000000000000
      0.1873113696D+02  0.3349460434D-01
      0.2825394365D+01  0.2347269535D+00
      0.6401216923D+00  0.8137573261D+00
 S   1 1.00       0.000000000000
      0.1612777588D+00  0.1000000000D+01
 ****
     34 0
 S   3 1.00       0.000000000000
      0.1873113696D+02  0.3349460434D-01
      0.2825394365D+01  0.2347269535D+00
      0.6401216923D+00  0.8137573261D+00
 S   1 1.00       0.000000000000
      0.1612777588D+00  0.1000000000D+01
 ****
     35 0
 S   6 1.00       0.000000000000
      0.3047524880D+04  0.1834737132D-02
      0.4573695180D+03  0.1403732281D-01
      0.1039486850D+03  0.6884262226D-01
      0.2921015530D+02  0.2321844432D+00
      0.9286662960D+01  0.4679413484D+00
      0.3163926960D+01  0.3623119853D+00
 SP   3 1.00       0.000000000000
      0.7868272350D+01 -0.1193324198D+00  0.6899906659D-01
      0.1881288540D+01 -0.1608541517D+00  0.3164239610D+00
      0.5442492580D+00  0.1143456438D+01  0.7443082909D+00
 SP   1 1.00       0.000000000000
      0.1687144782D+00  0.1000000000D+01  0.1000000000D+01
 D   1 1.00       0.000000000000
      0.8000000000D+00  0.1000000000D+01
 ****
     36 0
 S   6 1.00       0.000000000000
      0.3047524880D+04  0.1834737132D-02
      0.4573695180D+03  0.1403732281D-01
      0.1039486850D+03  0.6884262226D-01
      0.2921015530D+02  0.2321844432D+00
      0.9286662960D+01  0.4679413484D+00
      0.3163926960D+01  0.3623119853D+00
 SP   3 1.00       0.000000000000
      0.7868272350D+01 -0.1193324198D+00  0.6899906659D-01
      0.1881288540D+01 -0.1608541517D+00  0.3164239610D+00
      0.5442492580D+00  0.1143456438D+01  0.7443082909D+00
 SP   1 1.00       0.000000000000
      0.1687144782D+00  0.1000000000D+01  0.1000000000D+01
 D   1 1.00       0.000000000000
      0.8000000000D+00  0.1000000000D+01
 ****
     37 0
 S   3 1.00       0.000000000000
      0.1873113696D+02  0.3349460434D-01
      0.2825394365D+01  0.2347269535D+00
      0.6401216923D+00  0.8137573261D+00
 S   1 1.00       0.000000000000
      0.1612777588D+00  0.1000000000D+01
 ****
     38 0
 S   3 1.00       0.000000000000
      0.1873113696D+02  0.3349460434D-01
      0.2825394365D+01  0.2347269535D+00
      0.6401216923D+00  0.8137573261D+00
 S   1 1.00       0.000000000000
      0.1612777588D+00  0.1000000000D+01
 ****
     39 0
 S   6 1.00       0.000000000000
      0.3047524880D+04  0.1834737132D-02
      0.4573695180D+03  0.1403732281D-01
      0.1039486850D+03  0.6884262226D-01
      0.2921015530D+02  0.2321844432D+00
      0.9286662960D+01  0.4679413484D+00
      0.3163926960D+01  0.3623119853D+00
 SP   3 1.00       0.000000000000
      0.7868272350D+01 -0.1193324198D+00  0.6899906659D-01
      0.1881288540D+01 -0.1608541517D+00  0.3164239610D+00
      0.5442492580D+00  0.1143456438D+01  0.7443082909D+00
 SP   1 1.00       0.000000000000
      0.1687144782D+00  0.1000000000D+01  0.1000000000D+01
 D   1 1.00       0.000000000000
      0.8000000000D+00  0.1000000000D+01
 ****
     40 0
 S   3 1.00       0.000000000000
      0.1873113696D+02  0.3349460434D-01
      0.2825394365D+01  0.2347269535D+00
      0.6401216923D+00  0.8137573261D+00
 S   1 1.00       0.000000000000
      0.1612777588D+00  0.1000000000D+01
 ****
     41 0
 S   6 1.00       0.000000000000
      0.3047524880D+04  0.1834737132D-02
      0.4573695180D+03  0.1403732281D-01
      0.1039486850D+03  0.6884262226D-01
      0.2921015530D+02  0.2321844432D+00
      0.9286662960D+01  0.4679413484D+00
      0.3163926960D+01  0.3623119853D+00
 SP   3 1.00       0.000000000000
      0.7868272350D+01 -0.1193324198D+00  0.6899906659D-01
      0.1881288540D+01 -0.1608541517D+00  0.3164239610D+00
      0.5442492580D+00  0.1143456438D+01  0.7443082909D+00
 SP   1 1.00       0.000000000000
      0.1687144782D+00  0.1000000000D+01  0.1000000000D+01
 D   1 1.00       0.000000000000
      0.8000000000D+00  0.1000000000D+01
 ****
     42 0
 S   3 1.00       0.000000000000
      0.1873113696D+02  0.3349460434D-01
      0.2825394365D+01  0.2347269535D+00
      0.6401216923D+00  0.8137573261D+00
 S   1 1.00       0.000000000000
      0.1612777588D+00  0.1000000000D+01
 ****
     43 0
 S   3 1.00       0.000000000000
      0.1873113696D+02  0.3349460434D-01
      0.2825394365D+01  0.2347269535D+00
      0.6401216923D+00  0.8137573261D+00
 S   1 1.00       0.000000000000
      0.1612777588D+00  0.1000000000D+01
 ****
     44 0
 S   3 1.00       0.000000000000
      0.1873113696D+02  0.3349460434D-01
      0.2825394365D+01  0.2347269535D+00
      0.6401216923D+00  0.8137573261D+00
 S   1 1.00       0.000000000000
      0.1612777588D+00  0.1000000000D+01
 ****
     45 0
 S   6 1.00       0.000000000000
      0.3047524880D+04  0.1834737132D-02
      0.4573695180D+03  0.1403732281D-01
      0.1039486850D+03  0.6884262226D-01
      0.2921015530D+02  0.2321844432D+00
      0.9286662960D+01  0.4679413484D+00
      0.3163926960D+01  0.3623119853D+00
 SP   3 1.00       0.000000000000
      0.7868272350D+01 -0.1193324198D+00  0.6899906659D-01
      0.1881288540D+01 -0.1608541517D+00  0.3164239610D+00
      0.5442492580D+00  0.1143456438D+01  0.7443082909D+00
 SP   1 1.00       0.000000000000
      0.1687144782D+00  0.1000000000D+01  0.1000000000D+01
 D   1 1.00       0.000000000000
      0.8000000000D+00  0.1000000000D+01
 ****
     46 0
 S   3 1.00       0.000000000000
      0.1873113696D+02  0.3349460434D-01
      0.2825394365D+01  0.2347269535D+00
      0.6401216923D+00  0.8137573261D+00
 S   1 1.00       0.000000000000
      0.1612777588D+00  0.1000000000D+01
 ****
     47 0
 S   3 1.00       0.000000000000
      0.1873113696D+02  0.3349460434D-01
      0.2825394365D+01  0.2347269535D+00
      0.6401216923D+00  0.8137573261D+00
 S   1 1.00       0.000000000000
      0.1612777588D+00  0.1000000000D+01
 ****
     48 0
 S   6 1.00       0.000000000000
      0.3047524880D+04  0.1834737132D-02
      0.4573695180D+03  0.1403732281D-01
      0.1039486850D+03  0.6884262226D-01
      0.2921015530D+02  0.2321844432D+00
      0.9286662960D+01  0.4679413484D+00
      0.3163926960D+01  0.3623119853D+00
 SP   3 1.00       0.000000000000
      0.7868272350D+01 -0.1193324198D+00  0.6899906659D-01
      0.1881288540D+01 -0.1608541517D+00  0.3164239610D+00
      0.5442492580D+00  0.1143456438D+01  0.7443082909D+00
 SP   1 1.00       0.000000000000
      0.1687144782D+00  0.1000000000D+01  0.1000000000D+01
 D   1 1.00       0.000000000000
      0.8000000000D+00  0.1000000000D+01
 ****
     49 0
 S   3 1.00       0.000000000000
      0.1873113696D+02  0.3349460434D-01
      0.2825394365D+01  0.2347269535D+00
      0.6401216923D+00  0.8137573261D+00
 S   1 1.00       0.000000000000
      0.1612777588D+00  0.1000000000D+01
 ****
     50 0
 S   3 1.00       0.000000000000
      0.1873113696D+02  0.3349460434D-01
      0.2825394365D+01  0.2347269535D+00
      0.6401216923D+00  0.8137573261D+00
 S   1 1.00       0.000000000000
      0.1612777588D+00  0.1000000000D+01
 ****
     51 0
 S   6 1.00       0.000000000000
      0.3047524880D+04  0.1834737132D-02
      0.4573695180D+03  0.1403732281D-01
      0.1039486850D+03  0.6884262226D-01
      0.2921015530D+02  0.2321844432D+00
      0.9286662960D+01  0.4679413484D+00
      0.3163926960D+01  0.3623119853D+00
 SP   3 1.00       0.000000000000
      0.7868272350D+01 -0.1193324198D+00  0.6899906659D-01
      0.1881288540D+01 -0.1608541517D+00  0.3164239610D+00
      0.5442492580D+00  0.1143456438D+01  0.7443082909D+00
 SP   1 1.00       0.000000000000
      0.1687144782D+00  0.1000000000D+01  0.1000000000D+01
 D   1 1.00       0.000000000000
      0.8000000000D+00  0.1000000000D+01
 ****
     52 0
 S   3 1.00       0.000000000000
      0.1873113696D+02  0.3349460434D-01
      0.2825394365D+01  0.2347269535D+00
      0.6401216923D+00  0.8137573261D+00
 S   1 1.00       0.000000000000
      0.1612777588D+00  0.1000000000D+01
 ****
     53 0
 S   3 1.00       0.000000000000
      0.1873113696D+02  0.3349460434D-01
      0.2825394365D+01  0.2347269535D+00
      0.6401216923D+00  0.8137573261D+00
 S   1 1.00       0.000000000000
      0.1612777588D+00  0.1000000000D+01
 ****
     54 0
 S   6 1.00       0.000000000000
      0.3047524880D+04  0.1834737132D-02
      0.4573695180D+03  0.1403732281D-01
      0.1039486850D+03  0.6884262226D-01
      0.2921015530D+02  0.2321844432D+00
      0.9286662960D+01  0.4679413484D+00
      0.3163926960D+01  0.3623119853D+00
 SP   3 1.00       0.000000000000
      0.7868272350D+01 -0.1193324198D+00  0.6899906659D-01
      0.1881288540D+01 -0.1608541517D+00  0.3164239610D+00
      0.5442492580D+00  0.1143456438D+01  0.7443082909D+00
 SP   1 1.00       0.000000000000
      0.1687144782D+00  0.1000000000D+01  0.1000000000D+01
 D   1 1.00       0.000000000000
      0.8000000000D+00  0.1000000000D+01
 ****
     55 0
 S   3 1.00       0.000000000000
      0.1873113696D+02  0.3349460434D-01
      0.2825394365D+01  0.2347269535D+00
      0.6401216923D+00  0.8137573261D+00
 S   1 1.00       0.000000000000
      0.1612777588D+00  0.1000000000D+01
 ****
     56 0
 S   6 1.00       0.000000000000
      0.3047524880D+04  0.1834737132D-02
      0.4573695180D+03  0.1403732281D-01
      0.1039486850D+03  0.6884262226D-01
      0.2921015530D+02  0.2321844432D+00
      0.9286662960D+01  0.4679413484D+00
      0.3163926960D+01  0.3623119853D+00
 SP   3 1.00       0.000000000000
      0.7868272350D+01 -0.1193324198D+00  0.6899906659D-01
      0.1881288540D+01 -0.1608541517D+00  0.3164239610D+00
      0.5442492580D+00  0.1143456438D+01  0.7443082909D+00
 SP   1 1.00       0.000000000000
      0.1687144782D+00  0.1000000000D+01  0.1000000000D+01
 D   1 1.00       0.000000000000
      0.8000000000D+00  0.1000000000D+01
 ****
     57 0
 S   3 1.00       0.000000000000
      0.1873113696D+02  0.3349460434D-01
      0.2825394365D+01  0.2347269535D+00
      0.6401216923D+00  0.8137573261D+00
 S   1 1.00       0.000000000000
      0.1612777588D+00  0.1000000000D+01
 ****
     58 0
 S   3 1.00       0.000000000000
      0.1873113696D+02  0.3349460434D-01
      0.2825394365D+01  0.2347269535D+00
      0.6401216923D+00  0.8137573261D+00
 S   1 1.00       0.000000000000
      0.1612777588D+00  0.1000000000D+01
 ****
     59 0
 S   3 1.00       0.000000000000
      0.1873113696D+02  0.3349460434D-01
      0.2825394365D+01  0.2347269535D+00
      0.6401216923D+00  0.8137573261D+00
 S   1 1.00       0.000000000000
      0.1612777588D+00  0.1000000000D+01
 ****
     60 0
 S   6 1.00       0.000000000000
      0.3047524880D+04  0.1834737132D-02
      0.4573695180D+03  0.1403732281D-01
      0.1039486850D+03  0.6884262226D-01
      0.2921015530D+02  0.2321844432D+00
      0.9286662960D+01  0.4679413484D+00
      0.3163926960D+01  0.3623119853D+00
 SP   3 1.00       0.000000000000
      0.7868272350D+01 -0.1193324198D+00  0.6899906659D-01
      0.1881288540D+01 -0.1608541517D+00  0.3164239610D+00
      0.5442492580D+00  0.1143456438D+01  0.7443082909D+00
 SP   1 1.00       0.000000000000
      0.1687144782D+00  0.1000000000D+01  0.1000000000D+01
 D   1 1.00       0.000000000000
      0.8000000000D+00  0.1000000000D+01
 ****
     61 0
 S   3 1.00       0.000000000000
      0.1873113696D+02  0.3349460434D-01
      0.2825394365D+01  0.2347269535D+00
      0.6401216923D+00  0.8137573261D+00
 S   1 1.00       0.000000000000
      0.1612777588D+00  0.1000000000D+01
 ****
     62 0
 S   3 1.00       0.000000000000
      0.1873113696D+02  0.3349460434D-01
      0.2825394365D+01  0.2347269535D+00
      0.6401216923D+00  0.8137573261D+00
 S   1 1.00       0.000000000000
      0.1612777588D+00  0.1000000000D+01
 ****
     63 0
 S   6 1.00       0.000000000000
      0.3047524880D+04  0.1834737132D-02
      0.4573695180D+03  0.1403732281D-01
      0.1039486850D+03  0.6884262226D-01
      0.2921015530D+02  0.2321844432D+00
      0.9286662960D+01  0.4679413484D+00
      0.3163926960D+01  0.3623119853D+00
 SP   3 1.00       0.000000000000
      0.7868272350D+01 -0.1193324198D+00  0.6899906659D-01
      0.1881288540D+01 -0.1608541517D+00  0.3164239610D+00
      0.5442492580D+00  0.1143456438D+01  0.7443082909D+00
 SP   1 1.00       0.000000000000
      0.1687144782D+00  0.1000000000D+01  0.1000000000D+01
 D   1 1.00       0.000000000000
      0.8000000000D+00  0.1000000000D+01
 ****
     64 0
 S   3 1.00       0.000000000000
      0.1873113696D+02  0.3349460434D-01
      0.2825394365D+01  0.2347269535D+00
      0.6401216923D+00  0.8137573261D+00
 S   1 1.00       0.000000000000
      0.1612777588D+00  0.1000000000D+01
 ****
     65 0
 S   3 1.00       0.000000000000
      0.1873113696D+02  0.3349460434D-01
      0.2825394365D+01  0.2347269535D+00
      0.6401216923D+00  0.8137573261D+00
 S   1 1.00       0.000000000000
      0.1612777588D+00  0.1000000000D+01
 ****
     66 0
 S   6 1.00       0.000000000000
      0.3047524880D+04  0.1834737132D-02
      0.4573695180D+03  0.1403732281D-01
      0.1039486850D+03  0.6884262226D-01
      0.2921015530D+02  0.2321844432D+00
      0.9286662960D+01  0.4679413484D+00
      0.3163926960D+01  0.3623119853D+00
 SP   3 1.00       0.000000000000
      0.7868272350D+01 -0.1193324198D+00  0.6899906659D-01
      0.1881288540D+01 -0.1608541517D+00  0.3164239610D+00
      0.5442492580D+00  0.1143456438D+01  0.7443082909D+00
 SP   1 1.00       0.000000000000
      0.1687144782D+00  0.1000000000D+01  0.1000000000D+01
 D   1 1.00       0.000000000000
      0.8000000000D+00  0.1000000000D+01
 ****
     67 0
 S   3 1.00       0.000000000000
      0.1873113696D+02  0.3349460434D-01
      0.2825394365D+01  0.2347269535D+00
      0.6401216923D+00  0.8137573261D+00
 S   1 1.00       0.000000000000
      0.1612777588D+00  0.1000000000D+01
 ****
     68 0
 S   6 1.00       0.000000000000
      0.3047524880D+04  0.1834737132D-02
      0.4573695180D+03  0.1403732281D-01
      0.1039486850D+03  0.6884262226D-01
      0.2921015530D+02  0.2321844432D+00
      0.9286662960D+01  0.4679413484D+00
      0.3163926960D+01  0.3623119853D+00
 SP   3 1.00       0.000000000000
      0.7868272350D+01 -0.1193324198D+00  0.6899906659D-01
      0.1881288540D+01 -0.1608541517D+00  0.3164239610D+00
      0.5442492580D+00  0.1143456438D+01  0.7443082909D+00
 SP   1 1.00       0.000000000000
      0.1687144782D+00  0.1000000000D+01  0.1000000000D+01
 D   1 1.00       0.000000000000
      0.8000000000D+00  0.1000000000D+01
 ****
     69 0
 S   3 1.00       0.000000000000
      0.1873113696D+02  0.3349460434D-01
      0.2825394365D+01  0.2347269535D+00
      0.6401216923D+00  0.8137573261D+00
 S   1 1.00       0.000000000000
      0.1612777588D+00  0.1000000000D+01
 ****
     70 0
 S   3 1.00       0.000000000000
      0.1873113696D+02  0.3349460434D-01
      0.2825394365D+01  0.2347269535D+00
      0.6401216923D+00  0.8137573261D+00
 S   1 1.00       0.000000000000
      0.1612777588D+00  0.1000000000D+01
 ****
     71 0
 S   3 1.00       0.000000000000
      0.1873113696D+02  0.3349460434D-01
      0.2825394365D+01  0.2347269535D+00
      0.6401216923D+00  0.8137573261D+00
 S   1 1.00       0.000000000000
      0.1612777588D+00  0.1000000000D+01
 ****
     72 0
 S   6 1.00       0.000000000000
      0.3047524880D+04  0.1834737132D-02
      0.4573695180D+03  0.1403732281D-01
      0.1039486850D+03  0.6884262226D-01
      0.2921015530D+02  0.2321844432D+00
      0.9286662960D+01  0.4679413484D+00
      0.3163926960D+01  0.3623119853D+00
 SP   3 1.00       0.000000000000
      0.7868272350D+01 -0.1193324198D+00  0.6899906659D-01
      0.1881288540D+01 -0.1608541517D+00  0.3164239610D+00
      0.5442492580D+00  0.1143456438D+01  0.7443082909D+00
 SP   1 1.00       0.000000000000
      0.1687144782D+00  0.1000000000D+01  0.1000000000D+01
 D   1 1.00       0.000000000000
      0.8000000000D+00  0.1000000000D+01
 ****
     73 0
 S   3 1.00       0.000000000000
      0.1873113696D+02  0.3349460434D-01
      0.2825394365D+01  0.2347269535D+00
      0.6401216923D+00  0.8137573261D+00
 S   1 1.00       0.000000000000
      0.1612777588D+00  0.1000000000D+01
 ****
     74 0
 S   3 1.00       0.000000000000
      0.1873113696D+02  0.3349460434D-01
      0.2825394365D+01  0.2347269535D+00
      0.6401216923D+00  0.8137573261D+00
 S   1 1.00       0.000000000000
      0.1612777588D+00  0.1000000000D+01
 ****
     75 0
 S   3 1.00       0.000000000000
      0.1873113696D+02  0.3349460434D-01
      0.2825394365D+01  0.2347269535D+00
      0.6401216923D+00  0.8137573261D+00
 S   1 1.00       0.000000000000
      0.1612777588D+00  0.1000000000D+01
 ****

 AO basis set (Overlap normalization):
 Atom O1       Shell     1 S   6     bf    1 -     1          0.000000000000          0.000000000000          0.000000000000
      0.5484671660D+04  0.1831074430D-02
      0.8252349460D+03  0.1395017220D-01
      0.1880469580D+03  0.6844507810D-01
      0.5296450000D+02  0.2327143360D+00
      0.1689757040D+02  0.4701928980D+00
      0.5799635340D+01  0.3585208530D+00
 Atom O1       Shell     2 SP   3    bf    2 -     5          0.000000000000          0.000000000000          0.000000000000
      0.1553961625D+02 -0.1107775495D+00  0.7087426823D-01
      0.3599933586D+01 -0.1480262627D+00  0.3397528391D+00
      0.1013761750D+01  0.1130767015D+01  0.7271585773D+00
 Atom O1       Shell     3 SP   1    bf    6 -     9          0.000000000000          0.000000000000          0.000000000000
      0.2700058226D+00  0.1000000000D+01  0.1000000000D+01
 Atom O1       Shell     4 D   1     bf   10 -    15          0.000000000000          0.000000000000          0.000000000000
      0.8000000000D+00  0.1000000000D+01
 Atom H2       Shell     5 S   3     bf   16 -    16          1.826457138196          0.000000000000          0.000000000000
      0.1873113696D+02  0.3349460434D-01
      0.2825394365D+01  0.2347269535D+00
      0.6401216923D+00  0.8137573261D+00
 Atom H2       Shell     6 S   1     bf   17 -    17          1.826457138196          0.000000000000          0.000000000000
      0.1612777588D+00  0.1000000000D+01
 Atom O3       Shell     7 S   6     bf   18 -    18          8.248020302367         -2.618683717865         -9.287138599742
      0.5484671660D+04  0.1831074430D-02
      0.8252349460D+03  0.1395017220D-01
      0.1880469580D+03  0.6844507810D-01
      0.5296450000D+02  0.2327143360D+00
      0.1689757040D+02  0.4701928980D+00
      0.5799635340D+01  0.3585208530D+00
 Atom O3       Shell     8 SP   3    bf   19 -    22          8.248020302367         -2.618683717865         -9.287138599742
      0.1553961625D+02 -0.1107775495D+00  0.7087426823D-01
      0.3599933586D+01 -0.1480262627D+00  0.3397528391D+00
      0.1013761750D+01  0.1130767015D+01  0.7271585773D+00
 Atom O3       Shell     9 SP   1    bf   23 -    26          8.248020302367         -2.618683717865         -9.287138599742
      0.2700058226D+00  0.1000000000D+01  0.1000000000D+01
 Atom O3       Shell    10 D   1     bf   27 -    32          8.248020302367         -2.618683717865         -9.287138599742
      0.8000000000D+00  0.1000000000D+01
 Atom H4       Shell    11 S   3     bf   33 -    33          7.726549223264         -2.297623084032        -11.009957544324
      0.1873113696D+02  0.3349460434D-01
      0.2825394365D+01  0.2347269535D+00
      0.6401216923D+00  0.8137573261D+00
 Atom H4       Shell    12 S   1     bf   34 -    34          7.726549223264         -2.297623084032        -11.009957544324
      0.1612777588D+00  0.1000000000D+01
 Atom C5       Shell    13 S   6     bf   35 -    35         -2.348155608045          7.697870399320         -1.626218355649
      0.3047524880D+04  0.1834737132D-02
      0.4573695180D+03  0.1403732281D-01
      0.1039486850D+03  0.6884262226D-01
      0.2921015530D+02  0.2321844432D+00
      0.9286662960D+01  0.4679413484D+00
      0.3163926960D+01  0.3623119853D+00
 Atom C5       Shell    14 SP   3    bf   36 -    39         -2.348155608045          7.697870399320         -1.626218355649
      0.7868272350D+01 -0.1193324198D+00  0.6899906659D-01
      0.1881288540D+01 -0.1608541517D+00  0.3164239610D+00
      0.5442492580D+00  0.1143456438D+01  0.7443082909D+00
 Atom C5       Shell    15 SP   1    bf   40 -    43         -2.348155608045          7.697870399320         -1.626218355649
      0.1687144782D+00  0.1000000000D+01  0.1000000000D+01
 Atom C5       Shell    16 D   1     bf   44 -    49         -2.348155608045          7.697870399320         -1.626218355649
      0.8000000000D+00  0.1000000000D+01
 Atom C6       Shell    17 S   6     bf   50 -    50         -2.163136434107          4.826320745758         -1.085517801363
      0.3047524880D+04  0.1834737132D-02
      0.4573695180D+03  0.1403732281D-01
      0.1039486850D+03  0.6884262226D-01
      0.2921015530D+02  0.2321844432D+00
      0.9286662960D+01  0.4679413484D+00
      0.3163926960D+01  0.3623119853D+00
 Atom C6       Shell    18 SP   3    bf   51 -    54         -2.163136434107          4.826320745758         -1.085517801363
      0.7868272350D+01 -0.1193324198D+00  0.6899906659D-01
      0.1881288540D+01 -0.1608541517D+00  0.3164239610D+00
      0.5442492580D+00  0.1143456438D+01  0.7443082909D+00
 Atom C6       Shell    19 SP   1    bf   55 -    58         -2.163136434107          4.826320745758         -1.085517801363
      0.1687144782D+00  0.1000000000D+01  0.1000000000D+01
 Atom C6       Shell    20 D   1     bf   59 -    64         -2.163136434107          4.826320745758         -1.085517801363
      0.8000000000D+00  0.1000000000D+01
 Atom H7       Shell    21 S   3     bf   65 -    65         -0.837621391860          4.641751855763          0.502435659896
      0.1873113696D+02  0.3349460434D-01
      0.2825394365D+01  0.2347269535D+00
      0.6401216923D+00  0.8137573261D+00
 Atom H7       Shell    22 S   1     bf   66 -    66         -0.837621391860          4.641751855763          0.502435659896
      0.1612777588D+00  0.1000000000D+01
 Atom C8       Shell    23 S   6     bf   67 -    67         -1.017190406658          3.271810353687         -3.243729476887
      0.3047524880D+04  0.1834737132D-02
      0.4573695180D+03  0.1403732281D-01
      0.1039486850D+03  0.6884262226D-01
      0.2921015530D+02  0.2321844432D+00
      0.9286662960D+01  0.4679413484D+00
      0.3163926960D+01  0.3623119853D+00
 Atom C8       Shell    24 SP   3    bf   68 -    71         -1.017190406658          3.271810353687         -3.243729476887
      0.7868272350D+01 -0.1193324198D+00  0.6899906659D-01
      0.1881288540D+01 -0.1608541517D+00  0.3164239610D+00
      0.5442492580D+00  0.1143456438D+01  0.7443082909D+00
 Atom C8       Shell    25 SP   1    bf   72 -    75         -1.017190406658          3.271810353687         -3.243729476887
      0.1687144782D+00  0.1000000000D+01  0.1000000000D+01
 Atom C8       Shell    26 D   1     bf   76 -    81         -1.017190406658          3.271810353687         -3.243729476887
      0.8000000000D+00  0.1000000000D+01
 Atom H9       Shell    27 S   3     bf   82 -    82         -2.263006532709          3.382032390943         -4.902981643736
      0.1873113696D+02  0.3349460434D-01
      0.2825394365D+01  0.2347269535D+00
      0.6401216923D+00  0.8137573261D+00
 Atom H9       Shell    28 S   1     bf   83 -    83         -2.263006532709          3.382032390943         -4.902981643736
      0.1612777588D+00  0.1000000000D+01
 Atom C10      Shell    29 S   6     bf   84 -    84          1.632370888198          4.315708675521         -3.950224378653
      0.3047524880D+04  0.1834737132D-02
      0.4573695180D+03  0.1403732281D-01
      0.1039486850D+03  0.6884262226D-01
      0.2921015530D+02  0.2321844432D+00
      0.9286662960D+01  0.4679413484D+00
      0.3163926960D+01  0.3623119853D+00
 Atom C10      Shell    30 SP   3    bf   85 -    88          1.632370888198          4.315708675521         -3.950224378653
      0.7868272350D+01 -0.1193324198D+00  0.6899906659D-01
      0.1881288540D+01 -0.1608541517D+00  0.3164239610D+00
      0.5442492580D+00  0.1143456438D+01  0.7443082909D+00
 Atom C10      Shell    31 SP   1    bf   89 -    92          1.632370888198          4.315708675521         -3.950224378653
      0.1687144782D+00  0.1000000000D+01  0.1000000000D+01
 Atom C10      Shell    32 D   1     bf   93 -    98          1.632370888198          4.315708675521         -3.950224378653
      0.8000000000D+00  0.1000000000D+01
 Atom H11      Shell    33 S   3     bf   99 -    99          2.861306449751          3.876687443638         -2.325566898996
      0.1873113696D+02  0.3349460434D-01
      0.2825394365D+01  0.2347269535D+00
      0.6401216923D+00  0.8137573261D+00
 Atom H11      Shell    34 S   1     bf  100 -   100          2.861306449751          3.876687443638         -2.325566898996
      0.1612777588D+00  0.1000000000D+01
 Atom C12      Shell    35 S   6     bf  101 -   101         -3.595080398623          8.585129926712          0.895452737397
      0.3047524880D+04  0.1834737132D-02
      0.4573695180D+03  0.1403732281D-01
      0.1039486850D+03  0.6884262226D-01
      0.2921015530D+02  0.2321844432D+00
      0.9286662960D+01  0.4679413484D+00
      0.3163926960D+01  0.3623119853D+00
 Atom C12      Shell    36 SP   3    bf  102 -   105         -3.595080398623          8.585129926712          0.895452737397
      0.7868272350D+01 -0.1193324198D+00  0.6899906659D-01
      0.1881288540D+01 -0.1608541517D+00  0.3164239610D+00
      0.5442492580D+00  0.1143456438D+01  0.7443082909D+00
 Atom C12      Shell    37 SP   1    bf  106 -   109         -3.595080398623          8.585129926712          0.895452737397
      0.1687144782D+00  0.1000000000D+01  0.1000000000D+01
 Atom C12      Shell    38 D   1     bf  110 -   115         -3.595080398623          8.585129926712          0.895452737397
      0.8000000000D+00  0.1000000000D+01
 Atom H13      Shell    39 S   3     bf  116 -   116         -2.106206752497          8.306536881496          2.318037549781
      0.1873113696D+02  0.3349460434D-01
      0.2825394365D+01  0.2347269535D+00
      0.6401216923D+00  0.8137573261D+00
 Atom H13      Shell    40 S   1     bf  117 -   117         -2.106206752497          8.306536881496          2.318037549781
      0.1612777588D+00  0.1000000000D+01
 Atom C14      Shell    41 S   6     bf  118 -   118          0.358442308023          8.665822196347         -2.063074660583
      0.3047524880D+04  0.1834737132D-02
      0.4573695180D+03  0.1403732281D-01
      0.1039486850D+03  0.6884262226D-01
      0.2921015530D+02  0.2321844432D+00
      0.9286662960D+01  0.4679413484D+00
      0.3163926960D+01  0.3623119853D+00
 Atom C14      Shell    42 SP   3    bf  119 -   122          0.358442308023          8.665822196347         -2.063074660583
      0.7868272350D+01 -0.1193324198D+00  0.6899906659D-01
      0.1881288540D+01 -0.1608541517D+00  0.3164239610D+00
      0.5442492580D+00  0.1143456438D+01  0.7443082909D+00
 Atom C14      Shell    43 SP   1    bf  123 -   126          0.358442308023          8.665822196347         -2.063074660583
      0.1687144782D+00  0.1000000000D+01  0.1000000000D+01
 Atom C14      Shell    44 D   1     bf  127 -   132          0.358442308023          8.665822196347         -2.063074660583
      0.8000000000D+00  0.1000000000D+01
 Atom H15      Shell    45 S   3     bf  133 -   133          1.446592233327          8.414525470332         -0.310949125036
      0.1873113696D+02  0.3349460434D-01
      0.2825394365D+01  0.2347269535D+00
      0.6401216923D+00  0.8137573261D+00
 Atom H15      Shell    46 S   1     bf  134 -   134          1.446592233327          8.414525470332         -0.310949125036
      0.1612777588D+00  0.1000000000D+01
 Atom H16      Shell    47 S   3     bf  135 -   135          0.377952350845         10.697645775569         -2.487018995974
      0.1873113696D+02  0.3349460434D-01
      0.2825394365D+01  0.2347269535D+00
      0.6401216923D+00  0.8137573261D+00
 Atom H16      Shell    48 S   1     bf  136 -   136          0.377952350845         10.697645775569         -2.487018995974
      0.1612777588D+00  0.1000000000D+01
 Atom C17      Shell    49 S   6     bf  137 -   137          2.816064195151          2.893851010856         -6.268085730370
      0.3047524880D+04  0.1834737132D-02
      0.4573695180D+03  0.1403732281D-01
      0.1039486850D+03  0.6884262226D-01
      0.2921015530D+02  0.2321844432D+00
      0.9286662960D+01  0.4679413484D+00
      0.3163926960D+01  0.3623119853D+00
 Atom C17      Shell    50 SP   3    bf  138 -   141          2.816064195151          2.893851010856         -6.268085730370
      0.7868272350D+01 -0.1193324198D+00  0.6899906659D-01
      0.1881288540D+01 -0.1608541517D+00  0.3164239610D+00
      0.5442492580D+00  0.1143456438D+01  0.7443082909D+00
 Atom C17      Shell    51 SP   1    bf  142 -   145          2.816064195151          2.893851010856         -6.268085730370
      0.1687144782D+00  0.1000000000D+01  0.1000000000D+01
 Atom C17      Shell    52 D   1     bf  146 -   151          2.816064195151          2.893851010856         -6.268085730370
      0.8000000000D+00  0.1000000000D+01
 Atom C18      Shell    53 S   6     bf  152 -   152         -4.781186470108          4.116469860454         -0.031900410157
      0.3047524880D+04  0.1834737132D-02
      0.4573695180D+03  0.1403732281D-01
      0.1039486850D+03  0.6884262226D-01
      0.2921015530D+02  0.2321844432D+00
      0.9286662960D+01  0.4679413484D+00
      0.3163926960D+01  0.3623119853D+00
 Atom C18      Shell    54 SP   3    bf  153 -   156         -4.781186470108          4.116469860454         -0.031900410157
      0.7868272350D+01 -0.1193324198D+00  0.6899906659D-01
      0.1881288540D+01 -0.1608541517D+00  0.3164239610D+00
      0.5442492580D+00  0.1143456438D+01  0.7443082909D+00
 Atom C18      Shell    55 SP   1    bf  157 -   160         -4.781186470108          4.116469860454         -0.031900410157
      0.1687144782D+00  0.1000000000D+01  0.1000000000D+01
 Atom C18      Shell    56 D   1     bf  161 -   166         -4.781186470108          4.116469860454         -0.031900410157
      0.8000000000D+00  0.1000000000D+01
 Atom H19      Shell    57 S   3     bf  167 -   167         -4.684291046103          2.452180779776          1.189088078220
      0.1873113696D+02  0.3349460434D-01
      0.2825394365D+01  0.2347269535D+00
      0.6401216923D+00  0.8137573261D+00
 Atom H19      Shell    58 S   1     bf  168 -   168         -4.684291046103          2.452180779776          1.189088078220
      0.1612777588D+00  0.1000000000D+01
 Atom H20      Shell    59 S   3     bf  169 -   169         -6.105664317269          3.668703675226         -1.563985365517
      0.1873113696D+02  0.3349460434D-01
      0.2825394365D+01  0.2347269535D+00
      0.6401216923D+00  0.8137573261D+00
 Atom H20      Shell    60 S   1     bf  170 -   170         -6.105664317269          3.668703675226         -1.563985365517
      0.1612777588D+00  0.1000000000D+01
 Atom C21      Shell    61 S   6     bf  171 -   171          1.669186532719          7.231638887466         -4.237303957165
      0.3047524880D+04  0.1834737132D-02
      0.4573695180D+03  0.1403732281D-01
      0.1039486850D+03  0.6884262226D-01
      0.2921015530D+02  0.2321844432D+00
      0.9286662960D+01  0.4679413484D+00
      0.3163926960D+01  0.3623119853D+00
 Atom C21      Shell    62 SP   3    bf  172 -   175          1.669186532719          7.231638887466         -4.237303957165
      0.7868272350D+01 -0.1193324198D+00  0.6899906659D-01
      0.1881288540D+01 -0.1608541517D+00  0.3164239610D+00
      0.5442492580D+00  0.1143456438D+01  0.7443082909D+00
 Atom C21      Shell    63 SP   1    bf  176 -   179          1.669186532719          7.231638887466         -4.237303957165
      0.1687144782D+00  0.1000000000D+01  0.1000000000D+01
 Atom C21      Shell    64 D   1     bf  180 -   185          1.669186532719          7.231638887466         -4.237303957165
      0.8000000000D+00  0.1000000000D+01
 Atom H22      Shell    65 S   3     bf  186 -   186          0.767319516806          7.773897067414         -6.017776178390
      0.1873113696D+02  0.3349460434D-01
      0.2825394365D+01  0.2347269535D+00
      0.6401216923D+00  0.8137573261D+00
 Atom H22      Shell    66 S   1     bf  187 -   187          0.767319516806          7.773897067414         -6.017776178390
      0.1612777588D+00  0.1000000000D+01
 Atom H23      Shell    67 S   3     bf  188 -   188          3.629816682994          7.885069032202         -4.373870477467
      0.1873113696D+02  0.3349460434D-01
      0.2825394365D+01  0.2347269535D+00
      0.6401216923D+00  0.8137573261D+00
 Atom H23      Shell    68 S   1     bf  189 -   189          3.629816682994          7.885069032202         -4.373870477467
      0.1612777588D+00  0.1000000000D+01
 Atom C24      Shell    69 S   6     bf  190 -   190         -5.647030808380          6.532105075368          1.423495244641
      0.3047524880D+04  0.1834737132D-02
      0.4573695180D+03  0.1403732281D-01
      0.1039486850D+03  0.6884262226D-01
      0.2921015530D+02  0.2321844432D+00
      0.9286662960D+01  0.4679413484D+00
      0.3163926960D+01  0.3623119853D+00
 Atom C24      Shell    70 SP   3    bf  191 -   194         -5.647030808380          6.532105075368          1.423495244641
      0.7868272350D+01 -0.1193324198D+00  0.6899906659D-01
      0.1881288540D+01 -0.1608541517D+00  0.3164239610D+00
      0.5442492580D+00  0.1143456438D+01  0.7443082909D+00
 Atom C24      Shell    71 SP   1    bf  195 -   198         -5.647030808380          6.532105075368          1.423495244641
      0.1687144782D+00  0.1000000000D+01  0.1000000000D+01
 Atom C24      Shell    72 D   1     bf  199 -   204         -5.647030808380          6.532105075368          1.423495244641
      0.8000000000D+00  0.1000000000D+01
 Atom H25      Shell    73 S   3     bf  205 -   205         -7.509885697060          7.141208424431          0.767645570153
      0.1873113696D+02  0.3349460434D-01
      0.2825394365D+01  0.2347269535D+00
      0.6401216923D+00  0.8137573261D+00
 Atom H25      Shell    74 S   1     bf  206 -   206         -7.509885697060          7.141208424431          0.767645570153
      0.1612777588D+00  0.1000000000D+01
 Atom H26      Shell    75 S   3     bf  207 -   207         -5.830999710327          6.173145983940          3.452768714035
      0.1873113696D+02  0.3349460434D-01
      0.2825394365D+01  0.2347269535D+00
      0.6401216923D+00  0.8137573261D+00
 Atom H26      Shell    76 S   1     bf  208 -   208         -5.830999710327          6.173145983940          3.452768714035
      0.1612777588D+00  0.1000000000D+01
 Atom C27      Shell    77 S   6     bf  209 -   209         -0.849226748063          0.441829213739         -2.561888868215
      0.3047524880D+04  0.1834737132D-02
      0.4573695180D+03  0.1403732281D-01
      0.1039486850D+03  0.6884262226D-01
      0.2921015530D+02  0.2321844432D+00
      0.9286662960D+01  0.4679413484D+00
      0.3163926960D+01  0.3623119853D+00
 Atom C27      Shell    78 SP   3    bf  210 -   213         -0.849226748063          0.441829213739         -2.561888868215
      0.7868272350D+01 -0.1193324198D+00  0.6899906659D-01
      0.1881288540D+01 -0.1608541517D+00  0.3164239610D+00
      0.5442492580D+00  0.1143456438D+01  0.7443082909D+00
 Atom C27      Shell    79 SP   1    bf  214 -   217         -0.849226748063          0.441829213739         -2.561888868215
      0.1687144782D+00  0.1000000000D+01  0.1000000000D+01
 Atom C27      Shell    80 D   1     bf  218 -   223         -0.849226748063          0.441829213739         -2.561888868215
      0.8000000000D+00  0.1000000000D+01
 Atom H28      Shell    81 S   3     bf  224 -   224         -2.763728777921         -0.349050803779         -2.576428307698
      0.1873113696D+02  0.3349460434D-01
      0.2825394365D+01  0.2347269535D+00
      0.6401216923D+00  0.8137573261D+00
 Atom H28      Shell    82 S   1     bf  225 -   225         -2.763728777921         -0.349050803779         -2.576428307698
      0.1612777588D+00  0.1000000000D+01
 Atom C29      Shell    83 S   6     bf  226 -   226         -4.400891180112         11.401907569067          1.157482616517
      0.3047524880D+04  0.1834737132D-02
      0.4573695180D+03  0.1403732281D-01
      0.1039486850D+03  0.6884262226D-01
      0.2921015530D+02  0.2321844432D+00
      0.9286662960D+01  0.4679413484D+00
      0.3163926960D+01  0.3623119853D+00
 Atom C29      Shell    84 SP   3    bf  227 -   230         -4.400891180112         11.401907569067          1.157482616517
      0.7868272350D+01 -0.1193324198D+00  0.6899906659D-01
      0.1881288540D+01 -0.1608541517D+00  0.3164239610D+00
      0.5442492580D+00  0.1143456438D+01  0.7443082909D+00
 Atom C29      Shell    85 SP   1    bf  231 -   234         -4.400891180112         11.401907569067          1.157482616517
      0.1687144782D+00  0.1000000000D+01  0.1000000000D+01
 Atom C29      Shell    86 D   1     bf  235 -   240         -4.400891180112         11.401907569067          1.157482616517
      0.8000000000D+00  0.1000000000D+01
 Atom H30      Shell    87 S   3     bf  241 -   241         -3.073929306846         12.510359521416          0.000000000000
      0.1873113696D+02  0.3349460434D-01
      0.2825394365D+01  0.2347269535D+00
      0.6401216923D+00  0.8137573261D+00
 Atom H30      Shell    88 S   1     bf  242 -   242         -3.073929306846         12.510359521416          0.000000000000
      0.1612777588D+00  0.1000000000D+01
 Atom C31      Shell    89 S   6     bf  243 -   243         -4.023917102692          8.312535987180         -3.936082821008
      0.3047524880D+04  0.1834737132D-02
      0.4573695180D+03  0.1403732281D-01
      0.1039486850D+03  0.6884262226D-01
      0.2921015530D+02  0.2321844432D+00
      0.9286662960D+01  0.4679413484D+00
      0.3163926960D+01  0.3623119853D+00
 Atom C31      Shell    90 SP   3    bf  244 -   247         -4.023917102692          8.312535987180         -3.936082821008
      0.7868272350D+01 -0.1193324198D+00  0.6899906659D-01
      0.1881288540D+01 -0.1608541517D+00  0.3164239610D+00
      0.5442492580D+00  0.1143456438D+01  0.7443082909D+00
 Atom C31      Shell    91 SP   1    bf  248 -   251         -4.023917102692          8.312535987180         -3.936082821008
      0.1687144782D+00  0.1000000000D+01  0.1000000000D+01
 Atom C31      Shell    92 D   1     bf  252 -   257         -4.023917102692          8.312535987180         -3.936082821008
      0.8000000000D+00  0.1000000000D+01
 Atom H32      Shell    93 S   3     bf  258 -   258         -3.294010005919          7.473834749116         -5.676878220066
      0.1873113696D+02  0.3349460434D-01
      0.2825394365D+01  0.2347269535D+00
      0.6401216923D+00  0.8137573261D+00
 Atom H32      Shell    94 S   1     bf  259 -   259         -3.294010005919          7.473834749116         -5.676878220066
      0.1612777588D+00  0.1000000000D+01
 Atom H33      Shell    95 S   3     bf  260 -   260         -5.958662143447          7.625348511800         -3.700584167670
      0.1873113696D+02  0.3349460434D-01
      0.2825394365D+01  0.2347269535D+00
      0.6401216923D+00  0.8137573261D+00
 Atom H33      Shell    96 S   1     bf  261 -   261         -5.958662143447          7.625348511800         -3.700584167670
      0.1612777588D+00  0.1000000000D+01
 Atom H34      Shell    97 S   3     bf  262 -   262         -4.116553254068         10.358039293878         -4.240990718364
      0.1873113696D+02  0.3349460434D-01
      0.2825394365D+01  0.2347269535D+00
      0.6401216923D+00  0.8137573261D+00
 Atom H34      Shell    98 S   1     bf  263 -   263         -4.116553254068         10.358039293878         -4.240990718364
      0.1612777588D+00  0.1000000000D+01
 Atom C35      Shell    99 S   6     bf  264 -   264          2.425297857063          0.032118843601         -6.005992942267
      0.3047524880D+04  0.1834737132D-02
      0.4573695180D+03  0.1403732281D-01
      0.1039486850D+03  0.6884262226D-01
      0.2921015530D+02  0.2321844432D+00
      0.9286662960D+01  0.4679413484D+00
      0.3163926960D+01  0.3623119853D+00
 Atom C35      Shell   100 SP   3    bf  265 -   268          2.425297857063          0.032118843601         -6.005992942267
      0.7868272350D+01 -0.1193324198D+00  0.6899906659D-01
      0.1881288540D+01 -0.1608541517D+00  0.3164239610D+00
      0.5442492580D+00  0.1143456438D+01  0.7443082909D+00
 Atom C35      Shell   101 SP   1    bf  269 -   272          2.425297857063          0.032118843601         -6.005992942267
      0.1687144782D+00  0.1000000000D+01  0.1000000000D+01
 Atom C35      Shell   102 D   1     bf  273 -   278          2.425297857063          0.032118843601         -6.005992942267
      0.8000000000D+00  0.1000000000D+01
 Atom C36      Shell   103 S   6     bf  279 -   279          5.714490516433          3.431434669755         -6.326618409966
      0.3047524880D+04  0.1834737132D-02
      0.4573695180D+03  0.1403732281D-01
      0.1039486850D+03  0.6884262226D-01
      0.2921015530D+02  0.2321844432D+00
      0.9286662960D+01  0.4679413484D+00
      0.3163926960D+01  0.3623119853D+00
 Atom C36      Shell   104 SP   3    bf  280 -   283          5.714490516433          3.431434669755         -6.326618409966
      0.7868272350D+01 -0.1193324198D+00  0.6899906659D-01
      0.1881288540D+01 -0.1608541517D+00  0.3164239610D+00
      0.5442492580D+00  0.1143456438D+01  0.7443082909D+00
 Atom C36      Shell   105 SP   1    bf  284 -   287          5.714490516433          3.431434669755         -6.326618409966
      0.1687144782D+00  0.1000000000D+01  0.1000000000D+01
 Atom C36      Shell   106 D   1     bf  288 -   293          5.714490516433          3.431434669755         -6.326618409966
      0.8000000000D+00  0.1000000000D+01
 Atom H37      Shell   107 S   3     bf  294 -   294          6.469014338545          3.135256910290         -4.414595209466
      0.1873113696D+02  0.3349460434D-01
      0.2825394365D+01  0.2347269535D+00
      0.6401216923D+00  0.8137573261D+00
 Atom H37      Shell   108 S   1     bf  295 -   295          6.469014338545          3.135256910290         -4.414595209466
      0.1612777588D+00  0.1000000000D+01
 Atom H38      Shell   109 S   3     bf  296 -   296          6.031288986357          5.426453527073         -6.776972442852
      0.1873113696D+02  0.3349460434D-01
      0.2825394365D+01  0.2347269535D+00
      0.6401216923D+00  0.8137573261D+00
 Atom H38      Shell   110 S   1     bf  297 -   297          6.031288986357          5.426453527073         -6.776972442852
      0.1612777588D+00  0.1000000000D+01
 Atom C39      Shell   111 S   6     bf  298 -   298          0.785593565353         -1.007389795604         -4.370625628724
      0.3047524880D+04  0.1834737132D-02
      0.4573695180D+03  0.1403732281D-01
      0.1039486850D+03  0.6884262226D-01
      0.2921015530D+02  0.2321844432D+00
      0.9286662960D+01  0.4679413484D+00
      0.3163926960D+01  0.3623119853D+00
 Atom C39      Shell   112 SP   3    bf  299 -   302          0.785593565353         -1.007389795604         -4.370625628724
      0.7868272350D+01 -0.1193324198D+00  0.6899906659D-01
      0.1881288540D+01 -0.1608541517D+00  0.3164239610D+00
      0.5442492580D+00  0.1143456438D+01  0.7443082909D+00
 Atom C39      Shell   113 SP   1    bf  303 -   306          0.785593565353         -1.007389795604         -4.370625628724
      0.1687144782D+00  0.1000000000D+01  0.1000000000D+01
 Atom C39      Shell   114 D   1     bf  307 -   312          0.785593565353         -1.007389795604         -4.370625628724
      0.8000000000D+00  0.1000000000D+01
 Atom H40      Shell   115 S   3     bf  313 -   313          0.640772607920         -3.058409723110         -4.260078275115
[...]
 1564 Fit       0.003606
 1565 Fit       0.002973
 1566 Fit       0.001569
 1567 Fit       0.000746
 1568 Fit      -0.001076
 1569 Fit      -0.000865
 1570 Fit       0.001111
 1571 Fit       0.002942
 1572 Fit       0.002759
 1573 Fit       0.001423
 1574 Fit      -0.001555
 1575 Fit      -0.002637
 1576 Fit      -0.002810
 1577 Fit      -0.002960
 1578 Fit      -0.002538
 1579 Fit      -0.002135
 1580 Fit      -0.000949
 1581 Fit      -0.002325
 1582 Fit       0.001349
 1583 Fit      -0.000861
 1584 Fit       0.002964
 1585 Fit       0.001440
 1586 Fit      -0.000889
 1587 Fit       0.002668
 1588 Fit       0.001742
 1589 Fit      -0.000381
 1590 Fit       0.000518
 1591 Fit      -0.001402
 1592 Fit      -0.000121
 1593 Fit      -0.000306
 1594 Fit      -0.001738
 1595 Fit      -0.000652
 1596 Fit       0.001207
 1597 Fit       0.001917
 1598 Fit       0.001334
 1599 Fit      -0.000160
 1600 Fit      -0.001873
 1601 Fit       0.001127
 1602 Fit       0.002648
 1603 Fit       0.002552
 1604 Fit       0.001325
 1605 Fit       0.000434
 1606 Fit      -0.001189
 1607 Fit      -0.001824
 1608 Fit      -0.000428
 1609 Fit       0.001428
 1610 Fit       0.001832
 1611 Fit       0.000424
 1612 Fit      -0.001446
 1613 Fit       0.000386
 1614 Fit       0.001784
 1615 Fit       0.002430
 1616 Fit       0.000159
 1617 Fit      -0.000827
 1618 Fit       0.000664
 1619 Fit      -0.019645
 1620 Fit      -0.010106
 1621 Fit      -0.014024
 1622 Fit      -0.020521
 1623 Fit      -0.023741
 1624 Fit      -0.023319
 1625 Fit      -0.016413
 1626 Fit      -0.024411
 1627 Fit      -0.024532
 1628 Fit      -0.020510
 1629 Fit      -0.012209
 1630 Fit      -0.021170
 1631 Fit      -0.022305
 1632 Fit      -0.019831
 1633 Fit      -0.013032
 1634 Fit      -0.015297
 1635 Fit      -0.015220
 1636 Fit      -0.011905
 1637 Fit      -0.005521
 1638 Fit       0.001904
 1639 Fit       0.010573
 1640 Fit       0.009684
 1641 Fit       0.003359
 1642 Fit      -0.002408
 1643 Fit       0.006609
 1644 Fit       0.015390
 1645 Fit       0.016080
 1646 Fit       0.005309
 1647 Fit       0.011699
 1648 Fit       0.016989
 1649 Fit       0.011866
 1650 Fit      -0.013991
 1651 Fit      -0.015121
 1652 Fit      -0.018480
 1653 Fit      -0.018056
 1654 Fit      -0.019725
 1655 Fit      -0.012705
 1656 Fit      -0.018619
 1657 Fit      -0.022711
 1658 Fit      -0.024000
 1659 Fit      -0.023106
 1660 Fit      -0.020342
 1661 Fit      -0.015081
 1662 Fit      -0.015680
 1663 Fit      -0.020429
 1664 Fit      -0.022861
 1665 Fit      -0.023626
 1666 Fit      -0.022914
 1667 Fit      -0.015275
 1668 Fit      -0.010287
 1669 Fit      -0.005614
 1670 Fit      -0.012025
 1671 Fit      -0.015851
 1672 Fit      -0.017559
 1673 Fit      -0.017472
 1674 Fit      -0.004682
 1675 Fit       0.000945
 1676 Fit      -0.001750
 1677 Fit      -0.005723
 1678 Fit      -0.006734
 1679 Fit       0.003569
 1680 Fit       0.003015
 1681 Fit       0.008223
 1682 Fit       0.015154
 1683 Fit       0.019285
 1684 Fit       0.012564
 1685 Fit       0.006549
 1686 Fit       0.002416
 1687 Fit       0.001058
 1688 Fit       0.012769
 1689 Fit       0.017857
 1690 Fit       0.022592
 1691 Fit       0.021532
 1692 Fit       0.016219
 1693 Fit       0.012140
 1694 Fit       0.018600
 1695 Fit      -0.006987
 1696 Fit      -0.004320
 1697 Fit      -0.014231
 1698 Fit       0.000514
 1699 Fit       0.004748
 1700 Fit       0.005963
 1701 Fit       0.004764
 1702 Fit       0.009066
 1703 Fit       0.010750
 1704 Fit       0.007443
 1705 Fit      -0.000880
 1706 Fit      -0.002863
 1707 Fit       0.001163
 1708 Fit      -0.005364
 1709 Fit      -0.001079
 1710 Fit       0.000840
 1711 Fit       0.003296
 1712 Fit       0.001918
 1713 Fit       0.002816
 1714 Fit       0.002374
 1715 Fit       0.001958
 1716 Fit       0.003745
 1717 Fit       0.002517
 1718 Fit       0.001352
 1719 Fit       0.004496
 1720 Fit       0.004521
 1721 Fit       0.002869
 1722 Fit       0.001258
 1723 Fit       0.006390
 1724 Fit       0.001173
 1725 Fit       0.002546
 1726 Fit       0.003165
 1727 Fit       0.003753
 1728 Fit       0.003796
 1729 Fit       0.004274
 1730 Fit       0.004917
 1731 Fit       0.004412
 1732 Fit       0.004559
 1733 Fit       0.004855
 1734 Fit       0.004671
 1735 Fit       0.004462
 1736 Fit      -0.006340
 1737 Fit      -0.004265
 1738 Fit      -0.005206
 1739 Fit      -0.013186
 1740 Fit      -0.008783
 1741 Fit      -0.014150
 1742 Fit      -0.006407
 1743 Fit      -0.007758
 1744 Fit      -0.012907
 1745 Fit      -0.006288
 1746 Fit      -0.007368
 1747 Fit      -0.012173
 1748 Fit      -0.005916
 1749 Fit      -0.001938
 1750 Fit      -0.003043
 1751 Fit      -0.004177
 1752 Fit       0.000770
 1753 Fit      -0.000167
 1754 Fit      -0.000711
 1755 Fit       0.003390
 1756 Fit       0.002255
 1757 Fit       0.002030
 1758 Fit       0.003679
 1759 Fit       0.004050
 1760 Fit       0.005013
 1761 Fit       0.004643
 1762 Fit       0.006781
 1763 Fit       0.006051
 1764 Fit       0.005401
 1765 Fit       0.006277
 1766 Fit       0.004978
 1767 Fit       0.007242
 1768 Fit       0.006638
 1769 Fit       0.005298
 1770 Fit       0.003855
 1771 Fit       0.008283
 1772 Fit       0.006494
 1773 Fit       0.004961
 1774 Fit       0.006747
 1775 Fit      -0.002604
 1776 Fit      -0.003954
 1777 Fit      -0.005031
 1778 Fit      -0.006269
 1779 Fit      -0.004717
 1780 Fit      -0.001620
 1781 Fit      -0.003334
 1782 Fit      -0.001180
 1783 Fit      -0.002468
 1784 Fit       0.000008
 1785 Fit      -0.000727
 1786 Fit       0.001679
 1787 Fit      -0.001583
 1788 Fit      -0.002671
 1789 Fit      -0.001478
 1790 Fit      -0.002632
 1791 Fit      -0.003488
 1792 Fit      -0.001867
 1793 Fit      -0.002850
 1794 Fit      -0.003844
 1795 Fit      -0.005328
 1796 Fit      -0.007050
 1797 Fit      -0.006359
 1798 Fit      -0.005694
 1799 Fit       0.002901
 1800 Fit      -0.010496
 1801 Fit      -0.002214
 1802 Fit      -0.003363
 1803 Fit      -0.005332
 1804 Fit       0.001818
 1805 Fit       0.001346
 1806 Fit       0.000706
 1807 Fit       0.000678
 1808 Fit       0.004501
 1809 Fit       0.003242
 1810 Fit       0.002262
 1811 Fit       0.003779
 1812 Fit       0.000750
 1813 Fit       0.000519
 1814 Fit       0.000028
 1815 Fit       0.002629
 1816 Fit       0.004232
 1817 Fit       0.001491
 1818 Fit       0.004359
 1819 Fit       0.001278
 1820 Fit       0.001089
 1821 Fit       0.001783
 1822 Fit       0.002099
 1823 Fit       0.002336
 1824 Fit       0.005756
 1825 Fit       0.005861
 1826 Fit       0.003549
 1827 Fit       0.004012
 1828 Fit       0.006185
 1829 Fit       0.003149
 1830 Fit       0.003376
 1831 Fit       0.002145
 1832 Fit       0.002719
 1833 Fit       0.003137
 1834 Fit       0.004944
 1835 Fit       0.004195
 1836 Fit       0.003977
 1837 Fit       0.003350
 1838 Fit       0.002454
 1839 Fit       0.003030
 1840 Fit       0.002144
 1841 Fit       0.006413
 1842 Fit       0.009413
 1843 Fit       0.008794
 1844 Fit       0.012761
 1845 Fit       0.007414
 1846 Fit       0.006965
 1847 Fit       0.007003
 1848 Fit       0.008608
 1849 Fit       0.006354
 1850 Fit       0.006186
 1851 Fit       0.006651
 1852 Fit       0.006849
 1853 Fit       0.007920
 1854 Fit       0.007443
 1855 Fit       0.008327
 1856 Fit       0.009198
 1857 Fit       0.008084
 1858 Fit       0.009160
 1859 Fit       0.010352
 1860 Fit       0.009523
 1861 Fit       0.001165
 1862 Fit       0.006342
 1863 Fit       0.001681
 1864 Fit       0.000736
 1865 Fit       0.000209
 1866 Fit      -0.001103
 1867 Fit      -0.000304
 1868 Fit      -0.005355
 1869 Fit      -0.002690
 1870 Fit      -0.001172
 1871 Fit       0.000328
 1872 Fit       0.000118
 1873 Fit       0.000656
 1874 Fit       0.001739
 1875 Fit       0.002317
 1876 Fit       0.002238
 1877 Fit       0.001714
 1878 Fit       0.002621
 1879 Fit       0.003749
 1880 Fit       0.004683
 1881 Fit       0.002405
 1882 Fit       0.004507
 1883 Fit       0.000857
 1884 Fit       0.005657
 1885 Fit       0.009641
 1886 Fit       0.005397
 1887 Fit       0.005251
 1888 Fit       0.005629
 1889 Fit       0.007916
 1890 Fit       0.006267
 1891 Fit       0.006450
 1892 Fit       0.009738
 1893 Fit       0.008724
 1894 Fit       0.008171
 1895 Fit       0.007513
 1896 Fit       0.009205
 1897 Fit       0.008553
 1898 Fit       0.007711
 1899 Fit       0.006542
 1900 Fit       0.007833
 1901 Fit       0.006634
 1902 Fit       0.009419
 1903 Fit       0.015023
 1904 Fit       0.010056
 1905 Fit       0.007722
 1906 Fit       0.008219
 1907 Fit       0.011754
 1908 Fit       0.016723
 1909 Fit       0.011231
 1910 Fit       0.007091
 1911 Fit       0.007008
 1912 Fit       0.005939
 1913 Fit       0.003358
 1914 Fit       0.005795
 1915 Fit       0.006106
 1916 Fit       0.005831
 1917 Fit       0.004977
 1918 Fit       0.005459
 1919 Fit       0.001302
 1920 Fit       0.003457
 1921 Fit       0.003245
 1922 Fit       0.001626
 1923 Fit       0.003046
 1924 Fit      -0.000801
 1925 Fit       0.002441
 1926 Fit      -0.001899
 1927 Fit      -0.009672
 1928 Fit       0.002886
 1929 Fit       0.003285
 1930 Fit       0.001233
 1931 Fit      -0.004103
 1932 Fit       0.002869
 1933 Fit       0.000364
 1934 Fit      -0.007441
 1935 Fit       0.003652
 1936 Fit       0.003515
 1937 Fit       0.007848
 1938 Fit       0.007355
 1939 Fit       0.007894
 1940 Fit       0.023590
 1941 Fit       0.012803
 1942 Fit       0.012658
 1943 Fit       0.018525
 1944 Fit       0.007501
 1945 Fit       0.005678
 1946 Fit       0.007611
 1947 Fit       0.004319
 1948 Fit       0.005959
 1949 Fit       0.007280
 1950 Fit       0.008647
 1951 Fit       0.010093
 1952 Fit       0.012893
 1953 Fit       0.011165
 1954 Fit       0.012857
 1955 Fit       0.017362
 1956 Fit       0.024158
 1957 Fit       0.016024
 1958 Fit       0.005524
 1959 Fit       0.002672
 1960 Fit       0.005165
 1961 Fit      -0.001258
 1962 Fit       0.000876
 1963 Fit       0.004113
 1964 Fit       0.005817
 1965 Fit      -0.005600
 1966 Fit      -0.000194
 1967 Fit       0.003532
 1968 Fit       0.005394
 1969 Fit       0.006989
 1970 Fit      -0.008577
 1971 Fit       0.000086
 1972 Fit       0.003719
 1973 Fit       0.005569
 1974 Fit      -0.001050
 1975 Fit       0.000577
 1976 Fit      -0.000987
 1977 Fit      -0.000021
 1978 Fit       0.000756
 1979 Fit       0.000155
 1980 Fit      -0.001016
 1981 Fit      -0.000441
 1982 Fit      -0.001258
 1983 Fit       0.009408
 1984 Fit       0.005407
 1985 Fit       0.005721
 1986 Fit       0.003597
 1987 Fit       0.001001
 1988 Fit       0.005659
 1989 Fit      -0.000125
 1990 Fit      -0.002444
 1991 Fit      -0.002045
 1992 Fit      -0.005569
 1993 Fit      -0.010883
 1994 Fit      -0.013006
 1995 Fit      -0.010868
 1996 Fit      -0.003205
 1997 Fit      -0.003057
 1998 Fit      -0.003143
 1999 Fit      -0.003027
 2000 Fit      -0.003203
 2001 Fit      -0.002480
 2002 Fit      -0.002208
 2003 Fit      -0.003171
 2004 Fit      -0.001888
 2005 Fit      -0.000793
 2006 Fit      -0.002188
 2007 Fit      -0.002467
 2008 Fit      -0.001190
 2009 Fit      -0.001096
 2010 Fit      -0.002279
 2011 Fit      -0.001122
 2012 Fit      -0.000393
 2013 Fit      -0.000407
 2014 Fit      -0.000971
 2015 Fit      -0.002481
 2016 Fit      -0.001269
 2017 Fit      -0.000257
 2018 Fit      -0.000496
 2019 Fit      -0.002073
 2020 Fit      -0.001530
 2021 Fit      -0.000444
 2022 Fit       0.000500
 2023 Fit       0.000146
 2024 Fit      -0.001246
 2025 Fit      -0.000304
 2026 Fit       0.001341
 2027 Fit       0.002324
 2028 Fit       0.000129
 2029 Fit       0.002042
 2030 Fit      -0.001237
 2031 Fit      -0.002290
 2032 Fit      -0.002288
 2033 Fit       0.000503
 2034 Fit      -0.000322
 2035 Fit      -0.001878
 2036 Fit      -0.001731
 2037 Fit       0.000039
 2038 Fit       0.001593
 2039 Fit       0.000709
 2040 Fit      -0.000742
 2041 Fit       0.001682
 2042 Fit       0.001648
 2043 Fit       0.000756
 2044 Fit      -0.000595
 2045 Fit       0.000199
 2046 Fit       0.000947
 2047 Fit       0.000761
 2048 Fit       0.000013
 2049 Fit       0.002569
 2050 Fit       0.001513
 2051 Fit       0.001671
 2052 Fit       0.003298
 2053 Fit       0.004671
 2054 Fit       0.003655
 2055 Fit       0.003488
 2056 Fit       0.002282
 2057 Fit      -0.000695
 2058 Fit      -0.001483
 2059 Fit      -0.000108
 2060 Fit       0.000823
 2061 Fit       0.001527
 2062 Fit       0.001021
 2063 Fit       0.001654
 2064 Fit       0.001145
 2065 Fit       0.000667
 2066 Fit       0.000827
 2067 Fit       0.000607
 2068 Fit       0.000176
 2069 Fit      -0.000435
 2070 Fit      -0.000284
 2071 Fit      -0.000969
 2072 Fit      -0.001660
 2073 Fit      -0.000271
 2074 Fit       0.000276
 2075 Fit       0.001354
 2076 Fit       0.000930
 2077 Fit       0.001130
 2078 Fit       0.001678
 2079 Fit       0.002397
 2080 Fit       0.002503
 2081 Fit       0.002247
 2082 Fit       0.002617
 2083 Fit       0.002812
 2084 Fit      -0.000137
 2085 Fit       0.000428
 2086 Fit       0.000543
 2087 Fit       0.000813
 2088 Fit       0.000517
 2089 Fit       0.000975
 2090 Fit       0.001109
 2091 Fit       0.001212
 2092 Fit       0.000866
 2093 Fit      -0.000076
 2094 Fit       0.000792
 2095 Fit       0.001074
 2096 Fit       0.001070
 2097 Fit       0.000741
 2098 Fit       0.000481
 2099 Fit       0.000825
 2100 Fit      -0.001203
 2101 Fit      -0.001207
 2102 Fit      -0.000226
 2103 Fit       0.000121
 2104 Fit       0.000962
 2105 Fit      -0.000555
 2106 Fit      -0.001248
 2107 Fit      -0.001054
 2108 Fit      -0.000698
 2109 Fit      -0.001135
 2110 Fit      -0.000952
 2111 Fit       0.002028
 2112 Fit       0.001899
 2113 Fit       0.002953
 2114 Fit       0.002048
 2115 Fit       0.000532
 2116 Fit       0.002654
 2117 Fit       0.001553
 2118 Fit       0.000035
 2119 Fit       0.003594
 2120 Fit       0.001169
 2121 Fit       0.000055
 2122 Fit       0.001509
 2123 Fit      -0.000814
 2124 Fit       0.000781
 2125 Fit       0.002184
 2126 Fit       0.002659
 2127 Fit       0.001864
 2128 Fit      -0.000304
 2129 Fit       0.001121
 2130 Fit       0.002048
 2131 Fit       0.002143
 2132 Fit       0.001433
 2133 Fit       0.000376
 2134 Fit       0.001373
 2135 Fit       0.001376
 2136 Fit       0.000439
 2137 Fit      -0.000431
 2138 Fit       0.000225
 2139 Fit      -0.000704
 2140 Fit       0.001223
 2141 Fit       0.002765
 2142 Fit       0.002255
 2143 Fit       0.000198
 2144 Fit      -0.000223
 2145 Fit       0.001245
 2146 Fit       0.002506
 2147 Fit       0.003073
 2148 Fit       0.002741
 2149 Fit       0.001782
 2150 Fit       0.000906
 2151 Fit      -0.000409
 2152 Fit      -0.000272
 2153 Fit       0.001064
 2154 Fit       0.002364
 2155 Fit       0.002304
 2156 Fit       0.001251
 2157 Fit      -0.001040
 2158 Fit      -0.001840
 2159 Fit      -0.002067
 2160 Fit      -0.002219
 2161 Fit      -0.001741
 2162 Fit      -0.001942
 2163 Fit      -0.001577
 2164 Fit      -0.001514
 2165 Fit      -0.000974
 2166 Fit      -0.000310
 2167 Fit       0.000796
 2168 Fit      -0.000836
 2169 Fit       0.002227
 2170 Fit       0.000911
 2171 Fit      -0.000799
 2172 Fit       0.002331
 2173 Fit       0.001543
 2174 Fit       0.000083
 2175 Fit       0.002141
 2176 Fit       0.001341
 2177 Fit      -0.000312
 2178 Fit      -0.001608
 2179 Fit      -0.000779
 2180 Fit      -0.000871
 2181 Fit      -0.001153
 2182 Fit       0.000108
 2183 Fit       0.000805
 2184 Fit       0.000674
 2185 Fit      -0.000166
 2186 Fit      -0.000445
 2187 Fit       0.001037
 2188 Fit       0.001798
 2189 Fit       0.001698
 2190 Fit       0.000915
 2191 Fit       0.002360
 2192 Fit       0.002238
 2193 Fit       0.001390
 2194 Fit       0.000182
 2195 Fit      -0.000773
 2196 Fit      -0.001272
 2197 Fit      -0.000364
 2198 Fit       0.000900
 2199 Fit       0.001183
 2200 Fit       0.000263
 2201 Fit      -0.000894
 2202 Fit       0.000397
 2203 Fit       0.001379
 2204 Fit       0.001797
 2205 Fit       0.001404
 2206 Fit       0.000203
 2207 Fit      -0.000764
 2208 Fit       0.000385
 2209 Fit       0.001251
 -----------------------------------------------------------------
 Leave Link  602 at Thu May 18 13:00:33 2017, MaxMem=   33554432 cpu:      21.5
 (Enter /scratch/michal/g09/l9999.exe)

 Test job not archived.
 1\1\GINC-RZEPICHA\SP\RHF\6-31G(d)\C27H46O2\MICHAL\18-May-2017\0\\#P HF
 /6-31G* SCF(Conver=6) NoSymm Test Pop=mk IOp(6/33=2) GFInput GFPrint\\
 MEP - Input generated by R.E.D.-III.x MOLECULE\\0,1\O,0,0.,0.,0.\H,0,0
 .96651949,0.,0.\O,0,4.36466436,-1.38574774,-4.91454208\H,0,4.08871375,
 -1.21584977,-5.8262186\C,0,-1.24259043,4.07353757,-0.86055769\C,0,-1.1
 446825,2.55397894,-0.57443128\H,0,-0.44325015,2.45630929,0.2658775\C,0
 ,-0.53827398,1.73136747,-1.71650771\H,0,-1.19753148,1.78969446,-2.5945
 4614\C,0,0.86381347,2.28377467,-2.09036871\H,0,1.51413816,2.05145464,-
 1.230637\C,0,-1.90243461,4.54305509,0.47385318\H,0,-1.11455661,4.39563
 ,1.22665264\C,0,0.1896795,4.5857556,-1.09173209\H,0,0.76550364,4.45277
 51,-0.16454719\H,0,0.20000377,5.66095033,-1.31607377\C,0,1.49019699,1.
 53136,-3.31692811\C,0,-2.53009491,2.17834203,-0.01688097\H,0,-2.478820
 06,1.29763818,0.62923831\H,0,-3.2309784,1.94139437,-0.82762541\C,0,0.8
 8329547,3.82681848,-2.24228468\H,0,0.406048,4.11376915,-3.18447\H,0,1.
 92081626,4.17259882,-2.31455257\C,0,-2.98828,3.45664113,0.75328124\H,0
 ,-3.97406035,3.77896474,0.40622054\H,0,-3.08563215,3.26668816,1.827126
 51\C,0,-0.44939144,0.23380595,-1.3556932\H,0,-1.46250228,-0.18470973,-
 1.36338714\C,0,-2.32885131,6.03362962,0.61251342\H,0,-1.62665333,6.620
 19713,0.\C,0,-2.12936522,4.39880459,-2.08288532\H,0,-1.74311502,3.9549
 8301,-3.00407457\H,0,-3.1531882,4.03516064,-1.9582648\H,0,-2.17838616,
 5.48123832,-2.24423563\C,0,1.28341235,0.01699656,-3.17823458\C,0,3.023
 97814,1.81583702,-3.34790227\H,0,3.42325495,1.6591065,-2.33610317\H,0,
 3.19162067,2.87155553,-3.58621936\C,0,0.41571821,-0.53308772,-2.312835
 47\H,0,0.33908226,-1.61844072,-2.25433633\C,0,0.85017659,1.98871305,-4
 .65622829\H,0,1.12628494,3.01937456,-4.89820287\H,0,1.17608508,1.36430
 503,-5.49177559\H,0,-0.24139494,1.9267478,-4.61504442\C,0,2.10842932,-
 0.87326962,-4.08945188\H,0,1.95382054,-1.92550562,-3.83136998\H,0,1.77
 313529,-0.75199982,-5.13189094\C,0,3.82756917,0.94301001,-4.32402777\H
 ,0,3.53515991,1.1581545,-5.36245653\H,0,4.89522494,1.17691153,-4.24420
 094\C,0,-3.75660369,6.37240044,0.1204315\H,0,-3.99929298,5.79327978,-0
 .7762312\H,0,-4.48341307,6.06234062,0.88485898\C,0,3.60796369,-0.54298
 183,-4.04191173\H,0,3.99265538,-0.77937437,-3.04213012\C,0,-2.14454918
 ,6.49389003,2.07334135\H,0,-2.76696653,5.89582326,2.7505999\H,0,-2.422
 18713,7.54398989,2.21027057\H,0,-1.10288993,6.38385732,2.39480415\C,0,
 -3.97272221,7.86059244,-0.20258107\H,0,-3.737076,8.47050497,0.67768539
 \H,0,-3.2588676,8.15780729,-0.98285274\C,0,-5.40776883,8.15730478,-0.6
 665819\H,0,-6.10418558,7.8380416,0.12227898\H,0,-5.63212286,7.52783763
 ,-1.54004056\C,0,-5.72921031,9.62546375,-1.03179183\H,0,-6.78711229,9.
 63587334,-1.33351421\C,0,-4.91293746,10.12971559,-2.23353272\H,0,-3.84
 629382,10.20839057,-1.99360712\H,0,-5.2515134,11.12450806,-2.54502377\
 H,0,-5.01363354,9.45811961,-3.0943594\C,0,-5.59310892,10.57846809,0.16
 729976\H,0,-4.55045947,10.67448037,0.49151882\H,0,-5.94820388,11.58274
 329,-0.09077449\H,0,-6.17912785,10.22727459,1.02479879\\Version=EM64L-
 G09RevC.01\HF=-1198.9245959\RMSD=5.023e-07\Dipole=-0.0118045,0.6503616
 ,-0.7992433\Quadrupole=-5.2637676,-2.1927523,7.4565199,5.5426537,2.538
 6388,-4.644139\PG=C01 [X(C27H46O2)]\\@


 THE GREAT THING ABOUT BEING IMPERFECT IS THE JOY IT BRINGS OTHERS.
   -- SIGN OUTSIDE LAKE AGASSIZ JR. HIGH SCHOOL, FARGO, N.D.
 Job cpu time:  0 days  0 hours 40 minutes 40.8 seconds.
 File lengths (MBytes):  RWF=    151 Int=      0 D2E=      0 Chk=     11 Scr=      1
 Normal termination of Gaussian 09 at Thu May 18 13:00:33 2017.
