 Entering Gaussian System, Link 0=/scratch/michal/g09//g09
 Input=JOB2-gau_m1-8-3.com
 Output=JOB2-gau_m1-8-3.log
 Initial command:
 /scratch/michal/g09/l1.exe /scratch/michal/gauss_scratch/Gau-13973.inp -scrdir=/scratch/michal/gauss_scratch/
 Entering Link 1 = /scratch/michal/g09/l1.exe PID=     13975.
  
 Copyright (c) 1988,1990,1992,1993,1995,1998,2003,2009,2011,
            Gaussian, Inc.  All Rights Reserved.
  
 This is part of the Gaussian(R) 09 program.  It is based on
 the Gaussian(R) 03 system (copyright 2003, Gaussian, Inc.),
 the Gaussian(R) 98 system (copyright 1998, Gaussian, Inc.),
 the Gaussian(R) 94 system (copyright 1995, Gaussian, Inc.),
 the Gaussian 92(TM) system (copyright 1992, Gaussian, Inc.),
 the Gaussian 90(TM) system (copyright 1990, Gaussian, Inc.),
 the Gaussian 88(TM) system (copyright 1988, Gaussian, Inc.),
 the Gaussian 86(TM) system (copyright 1986, Carnegie Mellon
 University), and the Gaussian 82(TM) system (copyright 1983,
 Carnegie Mellon University). Gaussian is a federally registered
 trademark of Gaussian, Inc.
  
 This software contains proprietary and confidential information,
 including trade secrets, belonging to Gaussian, Inc.
  
 This software is provided under written license and may be
 used, copied, transmitted, or stored only in accord with that
 written license.
  
 The following legend is applicable only to US Government
 contracts under FAR:
  
                    RESTRICTED RIGHTS LEGEND
  
 Use, reproduction and disclosure by the US Government is
 subject to restrictions as set forth in subparagraphs (a)
 and (c) of the Commercial Computer Software - Restricted
 Rights clause in FAR 52.227-19.
  
 Gaussian, Inc.
 340 Quinnipiac St., Bldg. 40, Wallingford CT 06492
  
  
 ---------------------------------------------------------------
 Warning -- This program may not be used in any manner that
 competes with the business of Gaussian, Inc. or will provide
 assistance to any competitor of Gaussian, Inc.  The licensee
 of this program is prohibited from giving any competitor of
 Gaussian, Inc. access to this program.  By using this program,
 the user acknowledges that Gaussian, Inc. is engaged in the
 business of creating and licensing software in the field of
 computational chemistry and represents and warrants to the
 licensee that it is not a competitor of Gaussian, Inc. and that
 it will not use this program in any manner prohibited above.
 ---------------------------------------------------------------
  

 Cite this work as:
 Gaussian 09, Revision C.01,
 M. J. Frisch, G. W. Trucks, H. B. Schlegel, G. E. Scuseria, 
 M. A. Robb, J. R. Cheeseman, G. Scalmani, V. Barone, B. Mennucci, 
 G. A. Petersson, H. Nakatsuji, M. Caricato, X. Li, H. P. Hratchian, 
 A. F. Izmaylov, J. Bloino, G. Zheng, J. L. Sonnenberg, M. Hada, 
 M. Ehara, K. Toyota, R. Fukuda, J. Hasegawa, M. Ishida, T. Nakajima, 
 Y. Honda, O. Kitao, H. Nakai, T. Vreven, J. A. Montgomery, Jr., 
 J. E. Peralta, F. Ogliaro, M. Bearpark, J. J. Heyd, E. Brothers, 
 K. N. Kudin, V. N. Staroverov, T. Keith, R. Kobayashi, J. Normand, 
 K. Raghavachari, A. Rendell, J. C. Burant, S. S. Iyengar, J. Tomasi, 
 M. Cossi, N. Rega, J. M. Millam, M. Klene, J. E. Knox, J. B. Cross, 
 V. Bakken, C. Adamo, J. Jaramillo, R. Gomperts, R. E. Stratmann, 
 O. Yazyev, A. J. Austin, R. Cammi, C. Pomelli, J. W. Ochterski, 
 R. L. Martin, K. Morokuma, V. G. Zakrzewski, G. A. Voth, 
 P. Salvador, J. J. Dannenberg, S. Dapprich, A. D. Daniels, 
 O. Farkas, J. B. Foresman, J. V. Ortiz, J. Cioslowski, 
 and D. J. Fox, Gaussian, Inc., Wallingford CT, 2010.
 
 ******************************************
 Gaussian 09:  EM64L-G09RevC.01 23-Sep-2011
                18-May-2017 
 ******************************************
 %Mem=256MB
 %NProc=48
 Will use up to   48 processors via shared memory.
 ----------------------------------------------------------------------
 #P HF/6-31G* SCF(Conver=6) NoSymm Test Pop=mk IOp(6/33=2) GFInput GFPr
 int
 ----------------------------------------------------------------------
 1/38=1/1;
 2/12=2,15=1,17=6,18=5,40=1/2;
 3/5=1,6=6,7=1,11=9,16=1,24=110,25=1,30=1/1,2,3;
 4//1;
 5/5=2,6=6,38=5/2;
 6/7=2,8=2,9=2,10=2,15=8,20=1,28=1,33=2/1,2;
 99/5=1,9=1/99;
 Leave Link    1 at Thu May 18 13:01:52 2017, MaxMem=   33554432 cpu:       5.1
 (Enter /scratch/michal/g09/l101.exe)
 ----------------------------------------------
 MEP - Input generated by R.E.D.-III.x MOLECULE
 ----------------------------------------------
 Charge =  0 Multiplicity = 1
 Symbolic Z-Matrix:
 O                     5.51042   3.84169   0. 
 H                     4.9907    3.48907   0.73465 
 O                     0.        0.        0. 
 H                    -0.13166  -0.60262  -0.74544 
 C                     8.72601   1.00957  -0.7193 
 C                     7.70771   2.17687  -0.7506 
 H                     7.631     2.52973   0.28732 
 C                     6.2868    1.76828  -1.15412 
 H                     6.29592   1.40199  -2.19081 
 C                     5.76488   0.64494  -0.21792 
 H                     5.62747   1.11921   0.76809 
 C                     10.00678   1.79856  -0.30263 
 H                     9.80923   2.09664   0.73723 
 C                     8.22193  -0.0056    0.32115 
 H                     8.2257    0.47291   1.31106 
 H                     8.88999  -0.87474   0.39017 
 C                     4.34641   0.12741  -0.64573 
 C                     8.42869   3.29447  -1.52679 
 H                     8.0533    4.28356  -1.25016 
 H                     8.27771   3.1847   -2.60838 
 C                     6.79614  -0.49415  -0.00947 
 H                     6.84337  -1.12148  -0.90504 
 H                     6.45482  -1.15105   0.79875 
 C                     9.93328   3.10323  -1.15697 
 H                     10.54188   3.02253  -2.06207 
 H                     10.3228   3.96034  -0.5981 
 C                     5.3221    2.97243  -1.14169 
 H                     5.56276   3.61745  -1.9947 
 C                     11.36827   1.04519  -0.26207 
 H                     11.14198   0.        0. 
 C                     8.89742   0.32484  -2.09336 
 H                     7.9645   -0.11437  -2.456 
 H                     9.24163   1.02256  -2.86191 
 H                     9.63038  -0.48677  -2.02888 
 C                     3.43065   1.30706  -0.99941 
 C                     3.7124   -0.64278   0.55395 
 H                     3.83137  -0.02923   1.4579 
 H                     4.27571  -1.5653    0.73022 
 C                     3.88368   2.55171  -1.22306 
 H                     3.17083   3.34461  -1.44761 
 C                     4.42844  -0.81147  -1.88035 
 H                     4.91381  -1.75914  -1.6286 
 H                     3.43599  -1.05231  -2.26929 
 H                     4.98905  -0.34508  -2.696 
 C                     1.9454    1.01331  -1.10572 
 H                     1.3863    1.94153  -1.25913 
 H                     1.75303   0.38037  -1.98673 
 C                     2.22258  -0.98236   0.39421 
 H                     2.07637  -1.69125  -0.43417 
 H                     1.85175  -1.47696   1.29911 
 C                     12.16238   1.02096  -1.5903 
 H                     11.48125   0.9177   -2.441 
 H                     12.66759   1.98811  -1.72488 
 C                     1.39736   0.2757    0.12535 
 H                     1.46163   0.94016   0.99586 
 C                     12.24423   1.61416   0.87319 
 H                     12.44791   2.67982   0.70991 
 H                     13.20845   1.10048   0.9435 
 H                     11.74683   1.5157    1.84448 
 C                     13.20544  -0.10605  -1.67767 
 H                     13.90524  -0.03146  -0.83677 
 H                     12.69098  -1.07012  -1.56519 
 C                     13.98563  -0.0813   -3.00182 
 H                     14.47866   0.89673  -3.09981 
 H                     13.26871  -0.14251  -3.83354 
 C                     15.05232  -1.18375  -3.19925 
 H                     15.49558  -0.99985  -4.1892 
 C                     14.44565  -2.5964   -3.23258 
 H                     14.03445  -2.88312  -2.2578 
 H                     15.20511  -3.34074  -3.498 
 H                     13.63753  -2.66633  -3.97031 
 C                     16.19281  -1.09654  -2.17151 
 H                     15.84414  -1.33162  -1.15927 
 H                     16.99153  -1.80666  -2.41447 
 H                     16.63381  -0.09301  -2.14883 
 
 NAtoms=     75 NQM=        0 NQMF=       0 NMMI=     75 NMMIF=      0
                NMic=       0 NMicF=      0.
                    Isotopes and Nuclear Properties:
 (Nuclear quadrupole moments (NQMom) in fm**2, nuclear magnetic moments (NMagM)
  in nuclear magnetons)

  Atom         1           2           3           4           5           6           7           8           9          10
 IAtWgt=          16           1          16           1          12          12           1          12           1          12
 AtmWgt=  15.9949146   1.0078250  15.9949146   1.0078250  12.0000000  12.0000000   1.0078250  12.0000000   1.0078250  12.0000000
 NucSpn=           0           1           0           1           0           0           1           0           1           0
 AtZEff=   0.0000000   0.0000000   0.0000000   0.0000000   0.0000000   0.0000000   0.0000000   0.0000000   0.0000000   0.0000000
 NQMom=    0.0000000   0.0000000   0.0000000   0.0000000   0.0000000   0.0000000   0.0000000   0.0000000   0.0000000   0.0000000
 NMagM=    0.0000000   2.7928460   0.0000000   2.7928460   0.0000000   0.0000000   2.7928460   0.0000000   2.7928460   0.0000000

  Atom        11          12          13          14          15          16          17          18          19          20
 IAtWgt=           1          12           1          12           1           1          12          12           1           1
 AtmWgt=   1.0078250  12.0000000   1.0078250  12.0000000   1.0078250   1.0078250  12.0000000  12.0000000   1.0078250   1.0078250
 NucSpn=           1           0           1           0           1           1           0           0           1           1
 AtZEff=   0.0000000   0.0000000   0.0000000   0.0000000   0.0000000   0.0000000   0.0000000   0.0000000   0.0000000   0.0000000
 NQMom=    0.0000000   0.0000000   0.0000000   0.0000000   0.0000000   0.0000000   0.0000000   0.0000000   0.0000000   0.0000000
 NMagM=    2.7928460   0.0000000   2.7928460   0.0000000   2.7928460   2.7928460   0.0000000   0.0000000   2.7928460   2.7928460

  Atom        21          22          23          24          25          26          27          28          29          30
 IAtWgt=          12           1           1          12           1           1          12           1          12           1
 AtmWgt=  12.0000000   1.0078250   1.0078250  12.0000000   1.0078250   1.0078250  12.0000000   1.0078250  12.0000000   1.0078250
 NucSpn=           0           1           1           0           1           1           0           1           0           1
 AtZEff=   0.0000000   0.0000000   0.0000000   0.0000000   0.0000000   0.0000000   0.0000000   0.0000000   0.0000000   0.0000000
 NQMom=    0.0000000   0.0000000   0.0000000   0.0000000   0.0000000   0.0000000   0.0000000   0.0000000   0.0000000   0.0000000
 NMagM=    0.0000000   2.7928460   2.7928460   0.0000000   2.7928460   2.7928460   0.0000000   2.7928460   0.0000000   2.7928460

  Atom        31          32          33          34          35          36          37          38          39          40
 IAtWgt=          12           1           1           1          12          12           1           1          12           1
 AtmWgt=  12.0000000   1.0078250   1.0078250   1.0078250  12.0000000  12.0000000   1.0078250   1.0078250  12.0000000   1.0078250
 NucSpn=           0           1           1           1           0           0           1           1           0           1
 AtZEff=   0.0000000   0.0000000   0.0000000   0.0000000   0.0000000   0.0000000   0.0000000   0.0000000   0.0000000   0.0000000
 NQMom=    0.0000000   0.0000000   0.0000000   0.0000000   0.0000000   0.0000000   0.0000000   0.0000000   0.0000000   0.0000000
 NMagM=    0.0000000   2.7928460   2.7928460   2.7928460   0.0000000   0.0000000   2.7928460   2.7928460   0.0000000   2.7928460

  Atom        41          42          43          44          45          46          47          48          49          50
 IAtWgt=          12           1           1           1          12           1           1          12           1           1
 AtmWgt=  12.0000000   1.0078250   1.0078250   1.0078250  12.0000000   1.0078250   1.0078250  12.0000000   1.0078250   1.0078250
 NucSpn=           0           1           1           1           0           1           1           0           1           1
 AtZEff=   0.0000000   0.0000000   0.0000000   0.0000000   0.0000000   0.0000000   0.0000000   0.0000000   0.0000000   0.0000000
 NQMom=    0.0000000   0.0000000   0.0000000   0.0000000   0.0000000   0.0000000   0.0000000   0.0000000   0.0000000   0.0000000
 NMagM=    0.0000000   2.7928460   2.7928460   2.7928460   0.0000000   2.7928460   2.7928460   0.0000000   2.7928460   2.7928460

  Atom        51          52          53          54          55          56          57          58          59          60
 IAtWgt=          12           1           1          12           1          12           1           1           1          12
 AtmWgt=  12.0000000   1.0078250   1.0078250  12.0000000   1.0078250  12.0000000   1.0078250   1.0078250   1.0078250  12.0000000
 NucSpn=           0           1           1           0           1           0           1           1           1           0
 AtZEff=   0.0000000   0.0000000   0.0000000   0.0000000   0.0000000   0.0000000   0.0000000   0.0000000   0.0000000   0.0000000
 NQMom=    0.0000000   0.0000000   0.0000000   0.0000000   0.0000000   0.0000000   0.0000000   0.0000000   0.0000000   0.0000000
 NMagM=    0.0000000   2.7928460   2.7928460   0.0000000   2.7928460   0.0000000   2.7928460   2.7928460   2.7928460   0.0000000

  Atom        61          62          63          64          65          66          67          68          69          70
 IAtWgt=           1           1          12           1           1          12           1          12           1           1
 AtmWgt=   1.0078250   1.0078250  12.0000000   1.0078250   1.0078250  12.0000000   1.0078250  12.0000000   1.0078250   1.0078250
 NucSpn=           1           1           0           1           1           0           1           0           1           1
 AtZEff=   0.0000000   0.0000000   0.0000000   0.0000000   0.0000000   0.0000000   0.0000000   0.0000000   0.0000000   0.0000000
 NQMom=    0.0000000   0.0000000   0.0000000   0.0000000   0.0000000   0.0000000   0.0000000   0.0000000   0.0000000   0.0000000
 NMagM=    2.7928460   2.7928460   0.0000000   2.7928460   2.7928460   0.0000000   2.7928460   0.0000000   2.7928460   2.7928460

  Atom        71          72          73          74          75
 IAtWgt=           1          12           1           1           1
 AtmWgt=   1.0078250  12.0000000   1.0078250   1.0078250   1.0078250
 NucSpn=           1           0           1           1           1
 AtZEff=   0.0000000   0.0000000   0.0000000   0.0000000   0.0000000
 NQMom=    0.0000000   0.0000000   0.0000000   0.0000000   0.0000000
 NMagM=    2.7928460   0.0000000   2.7928460   2.7928460   2.7928460
 Leave Link  101 at Thu May 18 13:01:52 2017, MaxMem=   33554432 cpu:       8.6
 (Enter /scratch/michal/g09/l202.exe)
 Symmetry turned off by external request.
 Stoichiometry    C27H46O2
 Framework group  C1[X(C27H46O2)]
 Deg. of freedom   219
 Full point group                 C1      NOp   1
                          Input orientation:                          
 ---------------------------------------------------------------------
 Center     Atomic      Atomic             Coordinates (Angstroms)
 Number     Number       Type             X           Y           Z
 ---------------------------------------------------------------------
      1          8           0        5.510423    3.841686    0.000000
      2          1           0        4.990702    3.489068    0.734650
      3          8           0        0.000000    0.000000    0.000000
      4          1           0       -0.131662   -0.602624   -0.745438
      5          6           0        8.726011    1.009568   -0.719302
      6          6           0        7.707708    2.176868   -0.750600
      7          1           0        7.630997    2.529729    0.287317
      8          6           0        6.286798    1.768279   -1.154122
      9          1           0        6.295919    1.401994   -2.190812
     10          6           0        5.764883    0.644937   -0.217915
     11          1           0        5.627470    1.119210    0.768095
     12          6           0       10.006778    1.798565   -0.302635
     13          1           0        9.809234    2.096638    0.737231
     14          6           0        8.221926   -0.005602    0.321146
     15          1           0        8.225705    0.472913    1.311064
     16          1           0        8.889990   -0.874743    0.390174
     17          6           0        4.346407    0.127407   -0.645726
     18          6           0        8.428694    3.294472   -1.526790
     19          1           0        8.053295    4.283558   -1.250162
     20          1           0        8.277715    3.184702   -2.608384
     21          6           0        6.796136   -0.494146   -0.009473
     22          1           0        6.843367   -1.121476   -0.905043
     23          1           0        6.454816   -1.151048    0.798745
     24          6           0        9.933285    3.103226   -1.156974
     25          1           0       10.541882    3.022528   -2.062072
     26          1           0       10.322800    3.960335   -0.598096
     27          6           0        5.322097    2.972429   -1.141686
     28          1           0        5.562758    3.617451   -1.994702
     29          6           0       11.368269    1.045194   -0.262067
     30          1           0       11.141982    0.000000    0.000000
     31          6           0        8.897420    0.324841   -2.093355
     32          1           0        7.964500   -0.114371   -2.455997
     33          1           0        9.241631    1.022563   -2.861914
     34          1           0        9.630382   -0.486769   -2.028879
     35          6           0        3.430647    1.307061   -0.999410
     36          6           0        3.712401   -0.642777    0.553950
     37          1           0        3.831371   -0.029230    1.457903
     38          1           0        4.275712   -1.565301    0.730219
     39          6           0        3.883684    2.551705   -1.223062
     40          1           0        3.170828    3.344612   -1.447609
     41          6           0        4.428445   -0.811467   -1.880355
     42          1           0        4.913814   -1.759140   -1.628597
     43          1           0        3.435989   -1.052307   -2.269286
     44          1           0        4.989051   -0.345083   -2.695997
     45          6           0        1.945402    1.013312   -1.105719
     46          1           0        1.386302    1.941527   -1.259129
     47          1           0        1.753032    0.380367   -1.986731
     48          6           0        2.222578   -0.982362    0.394214
     49          1           0        2.076369   -1.691250   -0.434173
     50          1           0        1.851751   -1.476963    1.299105
     51          6           0       12.162378    1.020955   -1.590295
     52          1           0       11.481254    0.917702   -2.440996
     53          1           0       12.667587    1.988111   -1.724877
     54          6           0        1.397359    0.275698    0.125349
     55          1           0        1.461631    0.940165    0.995857
     56          6           0       12.244227    1.614161    0.873187
     57          1           0       12.447910    2.679816    0.709911
     58          1           0       13.208454    1.100484    0.943499
     59          1           0       11.746830    1.515698    1.844475
     60          6           0       13.205438   -0.106055   -1.677665
     61          1           0       13.905242   -0.031463   -0.836772
     62          1           0       12.690976   -1.070123   -1.565191
     63          6           0       13.985634   -0.081299   -3.001816
     64          1           0       14.478665    0.896732   -3.099809
     65          1           0       13.268710   -0.142509   -3.833542
     66          6           0       15.052322   -1.183747   -3.199247
     67          1           0       15.495577   -0.999853   -4.189201
     68          6           0       14.445649   -2.596400   -3.232575
     69          1           0       14.034446   -2.883122   -2.257801
     70          1           0       15.205113   -3.340736   -3.498004
     71          1           0       13.637531   -2.666333   -3.970315
     72          6           0       16.192807   -1.096541   -2.171506
     73          1           0       15.844145   -1.331620   -1.159268
     74          1           0       16.991528   -1.806663   -2.414473
     75          1           0       16.633806   -0.093014   -2.148829
 ---------------------------------------------------------------------
 Rotational constants (GHZ):      0.3783383      0.0588526      0.0548648
 Leave Link  202 at Thu May 18 13:01:52 2017, MaxMem=   33554432 cpu:       0.3
 (Enter /scratch/michal/g09/l301.exe)
 Standard basis: 6-31G(d) (6D, 7F)
 Ernie: Thresh=  0.10000D-02 Tol=  0.10000D-05 Strict=F.
 AO basis set in the form of general basis input (Overlap normalization):
      1 0
 S   6 1.00       0.000000000000
      0.5484671660D+04  0.1831074430D-02
      0.8252349460D+03  0.1395017220D-01
      0.1880469580D+03  0.6844507810D-01
      0.5296450000D+02  0.2327143360D+00
      0.1689757040D+02  0.4701928980D+00
      0.5799635340D+01  0.3585208530D+00
 SP   3 1.00       0.000000000000
      0.1553961625D+02 -0.1107775495D+00  0.7087426823D-01
      0.3599933586D+01 -0.1480262627D+00  0.3397528391D+00
      0.1013761750D+01  0.1130767015D+01  0.7271585773D+00
 SP   1 1.00       0.000000000000
      0.2700058226D+00  0.1000000000D+01  0.1000000000D+01
 D   1 1.00       0.000000000000
      0.8000000000D+00  0.1000000000D+01
 ****
      2 0
 S   3 1.00       0.000000000000
      0.1873113696D+02  0.3349460434D-01
      0.2825394365D+01  0.2347269535D+00
      0.6401216923D+00  0.8137573261D+00
 S   1 1.00       0.000000000000
      0.1612777588D+00  0.1000000000D+01
 ****
      3 0
 S   6 1.00       0.000000000000
      0.5484671660D+04  0.1831074430D-02
      0.8252349460D+03  0.1395017220D-01
      0.1880469580D+03  0.6844507810D-01
      0.5296450000D+02  0.2327143360D+00
      0.1689757040D+02  0.4701928980D+00
      0.5799635340D+01  0.3585208530D+00
 SP   3 1.00       0.000000000000
      0.1553961625D+02 -0.1107775495D+00  0.7087426823D-01
      0.3599933586D+01 -0.1480262627D+00  0.3397528391D+00
      0.1013761750D+01  0.1130767015D+01  0.7271585773D+00
 SP   1 1.00       0.000000000000
      0.2700058226D+00  0.1000000000D+01  0.1000000000D+01
 D   1 1.00       0.000000000000
      0.8000000000D+00  0.1000000000D+01
 ****
      4 0
 S   3 1.00       0.000000000000
      0.1873113696D+02  0.3349460434D-01
      0.2825394365D+01  0.2347269535D+00
      0.6401216923D+00  0.8137573261D+00
 S   1 1.00       0.000000000000
      0.1612777588D+00  0.1000000000D+01
 ****
      5 0
 S   6 1.00       0.000000000000
      0.3047524880D+04  0.1834737132D-02
      0.4573695180D+03  0.1403732281D-01
      0.1039486850D+03  0.6884262226D-01
      0.2921015530D+02  0.2321844432D+00
      0.9286662960D+01  0.4679413484D+00
      0.3163926960D+01  0.3623119853D+00
 SP   3 1.00       0.000000000000
      0.7868272350D+01 -0.1193324198D+00  0.6899906659D-01
      0.1881288540D+01 -0.1608541517D+00  0.3164239610D+00
      0.5442492580D+00  0.1143456438D+01  0.7443082909D+00
 SP   1 1.00       0.000000000000
      0.1687144782D+00  0.1000000000D+01  0.1000000000D+01
 D   1 1.00       0.000000000000
      0.8000000000D+00  0.1000000000D+01
 ****
      6 0
 S   6 1.00       0.000000000000
      0.3047524880D+04  0.1834737132D-02
      0.4573695180D+03  0.1403732281D-01
      0.1039486850D+03  0.6884262226D-01
      0.2921015530D+02  0.2321844432D+00
      0.9286662960D+01  0.4679413484D+00
      0.3163926960D+01  0.3623119853D+00
 SP   3 1.00       0.000000000000
      0.7868272350D+01 -0.1193324198D+00  0.6899906659D-01
      0.1881288540D+01 -0.1608541517D+00  0.3164239610D+00
      0.5442492580D+00  0.1143456438D+01  0.7443082909D+00
 SP   1 1.00       0.000000000000
      0.1687144782D+00  0.1000000000D+01  0.1000000000D+01
 D   1 1.00       0.000000000000
      0.8000000000D+00  0.1000000000D+01
 ****
      7 0
 S   3 1.00       0.000000000000
      0.1873113696D+02  0.3349460434D-01
      0.2825394365D+01  0.2347269535D+00
      0.6401216923D+00  0.8137573261D+00
 S   1 1.00       0.000000000000
      0.1612777588D+00  0.1000000000D+01
 ****
      8 0
 S   6 1.00       0.000000000000
      0.3047524880D+04  0.1834737132D-02
      0.4573695180D+03  0.1403732281D-01
      0.1039486850D+03  0.6884262226D-01
      0.2921015530D+02  0.2321844432D+00
      0.9286662960D+01  0.4679413484D+00
      0.3163926960D+01  0.3623119853D+00
 SP   3 1.00       0.000000000000
      0.7868272350D+01 -0.1193324198D+00  0.6899906659D-01
      0.1881288540D+01 -0.1608541517D+00  0.3164239610D+00
      0.5442492580D+00  0.1143456438D+01  0.7443082909D+00
 SP   1 1.00       0.000000000000
      0.1687144782D+00  0.1000000000D+01  0.1000000000D+01
 D   1 1.00       0.000000000000
      0.8000000000D+00  0.1000000000D+01
 ****
      9 0
 S   3 1.00       0.000000000000
      0.1873113696D+02  0.3349460434D-01
      0.2825394365D+01  0.2347269535D+00
      0.6401216923D+00  0.8137573261D+00
 S   1 1.00       0.000000000000
      0.1612777588D+00  0.1000000000D+01
 ****
     10 0
 S   6 1.00       0.000000000000
      0.3047524880D+04  0.1834737132D-02
      0.4573695180D+03  0.1403732281D-01
      0.1039486850D+03  0.6884262226D-01
      0.2921015530D+02  0.2321844432D+00
      0.9286662960D+01  0.4679413484D+00
      0.3163926960D+01  0.3623119853D+00
 SP   3 1.00       0.000000000000
      0.7868272350D+01 -0.1193324198D+00  0.6899906659D-01
      0.1881288540D+01 -0.1608541517D+00  0.3164239610D+00
      0.5442492580D+00  0.1143456438D+01  0.7443082909D+00
 SP   1 1.00       0.000000000000
      0.1687144782D+00  0.1000000000D+01  0.1000000000D+01
 D   1 1.00       0.000000000000
      0.8000000000D+00  0.1000000000D+01
 ****
     11 0
 S   3 1.00       0.000000000000
      0.1873113696D+02  0.3349460434D-01
      0.2825394365D+01  0.2347269535D+00
      0.6401216923D+00  0.8137573261D+00
 S   1 1.00       0.000000000000
      0.1612777588D+00  0.1000000000D+01
 ****
     12 0
 S   6 1.00       0.000000000000
      0.3047524880D+04  0.1834737132D-02
      0.4573695180D+03  0.1403732281D-01
      0.1039486850D+03  0.6884262226D-01
      0.2921015530D+02  0.2321844432D+00
      0.9286662960D+01  0.4679413484D+00
      0.3163926960D+01  0.3623119853D+00
 SP   3 1.00       0.000000000000
      0.7868272350D+01 -0.1193324198D+00  0.6899906659D-01
      0.1881288540D+01 -0.1608541517D+00  0.3164239610D+00
      0.5442492580D+00  0.1143456438D+01  0.7443082909D+00
 SP   1 1.00       0.000000000000
      0.1687144782D+00  0.1000000000D+01  0.1000000000D+01
 D   1 1.00       0.000000000000
      0.8000000000D+00  0.1000000000D+01
 ****
     13 0
 S   3 1.00       0.000000000000
      0.1873113696D+02  0.3349460434D-01
      0.2825394365D+01  0.2347269535D+00
      0.6401216923D+00  0.8137573261D+00
 S   1 1.00       0.000000000000
      0.1612777588D+00  0.1000000000D+01
 ****
     14 0
 S   6 1.00       0.000000000000
      0.3047524880D+04  0.1834737132D-02
      0.4573695180D+03  0.1403732281D-01
      0.1039486850D+03  0.6884262226D-01
      0.2921015530D+02  0.2321844432D+00
      0.9286662960D+01  0.4679413484D+00
      0.3163926960D+01  0.3623119853D+00
 SP   3 1.00       0.000000000000
      0.7868272350D+01 -0.1193324198D+00  0.6899906659D-01
      0.1881288540D+01 -0.1608541517D+00  0.3164239610D+00
      0.5442492580D+00  0.1143456438D+01  0.7443082909D+00
 SP   1 1.00       0.000000000000
      0.1687144782D+00  0.1000000000D+01  0.1000000000D+01
 D   1 1.00       0.000000000000
      0.8000000000D+00  0.1000000000D+01
 ****
     15 0
 S   3 1.00       0.000000000000
      0.1873113696D+02  0.3349460434D-01
      0.2825394365D+01  0.2347269535D+00
      0.6401216923D+00  0.8137573261D+00
 S   1 1.00       0.000000000000
      0.1612777588D+00  0.1000000000D+01
 ****
     16 0
 S   3 1.00       0.000000000000
      0.1873113696D+02  0.3349460434D-01
      0.2825394365D+01  0.2347269535D+00
      0.6401216923D+00  0.8137573261D+00
 S   1 1.00       0.000000000000
      0.1612777588D+00  0.1000000000D+01
 ****
     17 0
 S   6 1.00       0.000000000000
      0.3047524880D+04  0.1834737132D-02
      0.4573695180D+03  0.1403732281D-01
      0.1039486850D+03  0.6884262226D-01
      0.2921015530D+02  0.2321844432D+00
      0.9286662960D+01  0.4679413484D+00
      0.3163926960D+01  0.3623119853D+00
 SP   3 1.00       0.000000000000
      0.7868272350D+01 -0.1193324198D+00  0.6899906659D-01
      0.1881288540D+01 -0.1608541517D+00  0.3164239610D+00
      0.5442492580D+00  0.1143456438D+01  0.7443082909D+00
 SP   1 1.00       0.000000000000
      0.1687144782D+00  0.1000000000D+01  0.1000000000D+01
 D   1 1.00       0.000000000000
      0.8000000000D+00  0.1000000000D+01
 ****
     18 0
 S   6 1.00       0.000000000000
      0.3047524880D+04  0.1834737132D-02
      0.4573695180D+03  0.1403732281D-01
      0.1039486850D+03  0.6884262226D-01
      0.2921015530D+02  0.2321844432D+00
      0.9286662960D+01  0.4679413484D+00
      0.3163926960D+01  0.3623119853D+00
 SP   3 1.00       0.000000000000
      0.7868272350D+01 -0.1193324198D+00  0.6899906659D-01
      0.1881288540D+01 -0.1608541517D+00  0.3164239610D+00
      0.5442492580D+00  0.1143456438D+01  0.7443082909D+00
 SP   1 1.00       0.000000000000
      0.1687144782D+00  0.1000000000D+01  0.1000000000D+01
 D   1 1.00       0.000000000000
      0.8000000000D+00  0.1000000000D+01
 ****
     19 0
 S   3 1.00       0.000000000000
      0.1873113696D+02  0.3349460434D-01
      0.2825394365D+01  0.2347269535D+00
      0.6401216923D+00  0.8137573261D+00
 S   1 1.00       0.000000000000
      0.1612777588D+00  0.1000000000D+01
 ****
     20 0
 S   3 1.00       0.000000000000
      0.1873113696D+02  0.3349460434D-01
      0.2825394365D+01  0.2347269535D+00
      0.6401216923D+00  0.8137573261D+00
 S   1 1.00       0.000000000000
      0.1612777588D+00  0.1000000000D+01
 ****
     21 0
 S   6 1.00       0.000000000000
      0.3047524880D+04  0.1834737132D-02
      0.4573695180D+03  0.1403732281D-01
      0.1039486850D+03  0.6884262226D-01
      0.2921015530D+02  0.2321844432D+00
      0.9286662960D+01  0.4679413484D+00
      0.3163926960D+01  0.3623119853D+00
 SP   3 1.00       0.000000000000
      0.7868272350D+01 -0.1193324198D+00  0.6899906659D-01
      0.1881288540D+01 -0.1608541517D+00  0.3164239610D+00
      0.5442492580D+00  0.1143456438D+01  0.7443082909D+00
 SP   1 1.00       0.000000000000
      0.1687144782D+00  0.1000000000D+01  0.1000000000D+01
 D   1 1.00       0.000000000000
      0.8000000000D+00  0.1000000000D+01
 ****
     22 0
 S   3 1.00       0.000000000000
      0.1873113696D+02  0.3349460434D-01
      0.2825394365D+01  0.2347269535D+00
      0.6401216923D+00  0.8137573261D+00
 S   1 1.00       0.000000000000
      0.1612777588D+00  0.1000000000D+01
 ****
     23 0
 S   3 1.00       0.000000000000
      0.1873113696D+02  0.3349460434D-01
      0.2825394365D+01  0.2347269535D+00
      0.6401216923D+00  0.8137573261D+00
 S   1 1.00       0.000000000000
      0.1612777588D+00  0.1000000000D+01
 ****
     24 0
 S   6 1.00       0.000000000000
      0.3047524880D+04  0.1834737132D-02
      0.4573695180D+03  0.1403732281D-01
      0.1039486850D+03  0.6884262226D-01
      0.2921015530D+02  0.2321844432D+00
      0.9286662960D+01  0.4679413484D+00
      0.3163926960D+01  0.3623119853D+00
 SP   3 1.00       0.000000000000
      0.7868272350D+01 -0.1193324198D+00  0.6899906659D-01
      0.1881288540D+01 -0.1608541517D+00  0.3164239610D+00
      0.5442492580D+00  0.1143456438D+01  0.7443082909D+00
 SP   1 1.00       0.000000000000
      0.1687144782D+00  0.1000000000D+01  0.1000000000D+01
 D   1 1.00       0.000000000000
      0.8000000000D+00  0.1000000000D+01
 ****
     25 0
 S   3 1.00       0.000000000000
      0.1873113696D+02  0.3349460434D-01
      0.2825394365D+01  0.2347269535D+00
      0.6401216923D+00  0.8137573261D+00
 S   1 1.00       0.000000000000
      0.1612777588D+00  0.1000000000D+01
 ****
     26 0
 S   3 1.00       0.000000000000
      0.1873113696D+02  0.3349460434D-01
      0.2825394365D+01  0.2347269535D+00
      0.6401216923D+00  0.8137573261D+00
 S   1 1.00       0.000000000000
      0.1612777588D+00  0.1000000000D+01
 ****
     27 0
 S   6 1.00       0.000000000000
      0.3047524880D+04  0.1834737132D-02
      0.4573695180D+03  0.1403732281D-01
      0.1039486850D+03  0.6884262226D-01
      0.2921015530D+02  0.2321844432D+00
      0.9286662960D+01  0.4679413484D+00
      0.3163926960D+01  0.3623119853D+00
 SP   3 1.00       0.000000000000
      0.7868272350D+01 -0.1193324198D+00  0.6899906659D-01
      0.1881288540D+01 -0.1608541517D+00  0.3164239610D+00
      0.5442492580D+00  0.1143456438D+01  0.7443082909D+00
 SP   1 1.00       0.000000000000
      0.1687144782D+00  0.1000000000D+01  0.1000000000D+01
 D   1 1.00       0.000000000000
      0.8000000000D+00  0.1000000000D+01
 ****
     28 0
 S   3 1.00       0.000000000000
      0.1873113696D+02  0.3349460434D-01
      0.2825394365D+01  0.2347269535D+00
      0.6401216923D+00  0.8137573261D+00
 S   1 1.00       0.000000000000
      0.1612777588D+00  0.1000000000D+01
 ****
     29 0
 S   6 1.00       0.000000000000
      0.3047524880D+04  0.1834737132D-02
      0.4573695180D+03  0.1403732281D-01
      0.1039486850D+03  0.6884262226D-01
      0.2921015530D+02  0.2321844432D+00
      0.9286662960D+01  0.4679413484D+00
      0.3163926960D+01  0.3623119853D+00
 SP   3 1.00       0.000000000000
      0.7868272350D+01 -0.1193324198D+00  0.6899906659D-01
      0.1881288540D+01 -0.1608541517D+00  0.3164239610D+00
      0.5442492580D+00  0.1143456438D+01  0.7443082909D+00
 SP   1 1.00       0.000000000000
      0.1687144782D+00  0.1000000000D+01  0.1000000000D+01
 D   1 1.00       0.000000000000
      0.8000000000D+00  0.1000000000D+01
 ****
     30 0
 S   3 1.00       0.000000000000
      0.1873113696D+02  0.3349460434D-01
      0.2825394365D+01  0.2347269535D+00
      0.6401216923D+00  0.8137573261D+00
 S   1 1.00       0.000000000000
      0.1612777588D+00  0.1000000000D+01
 ****
     31 0
 S   6 1.00       0.000000000000
      0.3047524880D+04  0.1834737132D-02
      0.4573695180D+03  0.1403732281D-01
      0.1039486850D+03  0.6884262226D-01
      0.2921015530D+02  0.2321844432D+00
      0.9286662960D+01  0.4679413484D+00
      0.3163926960D+01  0.3623119853D+00
 SP   3 1.00       0.000000000000
      0.7868272350D+01 -0.1193324198D+00  0.6899906659D-01
      0.1881288540D+01 -0.1608541517D+00  0.3164239610D+00
      0.5442492580D+00  0.1143456438D+01  0.7443082909D+00
 SP   1 1.00       0.000000000000
      0.1687144782D+00  0.1000000000D+01  0.1000000000D+01
 D   1 1.00       0.000000000000
      0.8000000000D+00  0.1000000000D+01
 ****
     32 0
 S   3 1.00       0.000000000000
      0.1873113696D+02  0.3349460434D-01
      0.2825394365D+01  0.2347269535D+00
      0.6401216923D+00  0.8137573261D+00
 S   1 1.00       0.000000000000
      0.1612777588D+00  0.1000000000D+01
 ****
     33 0
 S   3 1.00       0.000000000000
      0.1873113696D+02  0.3349460434D-01
      0.2825394365D+01  0.2347269535D+00
      0.6401216923D+00  0.8137573261D+00
 S   1 1.00       0.000000000000
      0.1612777588D+00  0.1000000000D+01
 ****
     34 0
 S   3 1.00       0.000000000000
      0.1873113696D+02  0.3349460434D-01
      0.2825394365D+01  0.2347269535D+00
      0.6401216923D+00  0.8137573261D+00
 S   1 1.00       0.000000000000
      0.1612777588D+00  0.1000000000D+01
 ****
     35 0
 S   6 1.00       0.000000000000
      0.3047524880D+04  0.1834737132D-02
      0.4573695180D+03  0.1403732281D-01
      0.1039486850D+03  0.6884262226D-01
      0.2921015530D+02  0.2321844432D+00
      0.9286662960D+01  0.4679413484D+00
      0.3163926960D+01  0.3623119853D+00
 SP   3 1.00       0.000000000000
      0.7868272350D+01 -0.1193324198D+00  0.6899906659D-01
      0.1881288540D+01 -0.1608541517D+00  0.3164239610D+00
      0.5442492580D+00  0.1143456438D+01  0.7443082909D+00
 SP   1 1.00       0.000000000000
      0.1687144782D+00  0.1000000000D+01  0.1000000000D+01
 D   1 1.00       0.000000000000
      0.8000000000D+00  0.1000000000D+01
 ****
     36 0
 S   6 1.00       0.000000000000
      0.3047524880D+04  0.1834737132D-02
      0.4573695180D+03  0.1403732281D-01
      0.1039486850D+03  0.6884262226D-01
      0.2921015530D+02  0.2321844432D+00
      0.9286662960D+01  0.4679413484D+00
      0.3163926960D+01  0.3623119853D+00
 SP   3 1.00       0.000000000000
      0.7868272350D+01 -0.1193324198D+00  0.6899906659D-01
      0.1881288540D+01 -0.1608541517D+00  0.3164239610D+00
      0.5442492580D+00  0.1143456438D+01  0.7443082909D+00
 SP   1 1.00       0.000000000000
      0.1687144782D+00  0.1000000000D+01  0.1000000000D+01
 D   1 1.00       0.000000000000
      0.8000000000D+00  0.1000000000D+01
 ****
     37 0
 S   3 1.00       0.000000000000
      0.1873113696D+02  0.3349460434D-01
      0.2825394365D+01  0.2347269535D+00
      0.6401216923D+00  0.8137573261D+00
 S   1 1.00       0.000000000000
      0.1612777588D+00  0.1000000000D+01
 ****
     38 0
 S   3 1.00       0.000000000000
      0.1873113696D+02  0.3349460434D-01
      0.2825394365D+01  0.2347269535D+00
      0.6401216923D+00  0.8137573261D+00
 S   1 1.00       0.000000000000
      0.1612777588D+00  0.1000000000D+01
 ****
     39 0
 S   6 1.00       0.000000000000
      0.3047524880D+04  0.1834737132D-02
      0.4573695180D+03  0.1403732281D-01
      0.1039486850D+03  0.6884262226D-01
      0.2921015530D+02  0.2321844432D+00
      0.9286662960D+01  0.4679413484D+00
      0.3163926960D+01  0.3623119853D+00
 SP   3 1.00       0.000000000000
      0.7868272350D+01 -0.1193324198D+00  0.6899906659D-01
      0.1881288540D+01 -0.1608541517D+00  0.3164239610D+00
      0.5442492580D+00  0.1143456438D+01  0.7443082909D+00
 SP   1 1.00       0.000000000000
      0.1687144782D+00  0.1000000000D+01  0.1000000000D+01
 D   1 1.00       0.000000000000
      0.8000000000D+00  0.1000000000D+01
 ****
     40 0
 S   3 1.00       0.000000000000
      0.1873113696D+02  0.3349460434D-01
      0.2825394365D+01  0.2347269535D+00
      0.6401216923D+00  0.8137573261D+00
 S   1 1.00       0.000000000000
      0.1612777588D+00  0.1000000000D+01
 ****
     41 0
 S   6 1.00       0.000000000000
      0.3047524880D+04  0.1834737132D-02
      0.4573695180D+03  0.1403732281D-01
      0.1039486850D+03  0.6884262226D-01
      0.2921015530D+02  0.2321844432D+00
      0.9286662960D+01  0.4679413484D+00
      0.3163926960D+01  0.3623119853D+00
 SP   3 1.00       0.000000000000
      0.7868272350D+01 -0.1193324198D+00  0.6899906659D-01
      0.1881288540D+01 -0.1608541517D+00  0.3164239610D+00
      0.5442492580D+00  0.1143456438D+01  0.7443082909D+00
 SP   1 1.00       0.000000000000
      0.1687144782D+00  0.1000000000D+01  0.1000000000D+01
 D   1 1.00       0.000000000000
      0.8000000000D+00  0.1000000000D+01
 ****
     42 0
 S   3 1.00       0.000000000000
      0.1873113696D+02  0.3349460434D-01
      0.2825394365D+01  0.2347269535D+00
      0.6401216923D+00  0.8137573261D+00
 S   1 1.00       0.000000000000
      0.1612777588D+00  0.1000000000D+01
 ****
     43 0
 S   3 1.00       0.000000000000
      0.1873113696D+02  0.3349460434D-01
      0.2825394365D+01  0.2347269535D+00
      0.6401216923D+00  0.8137573261D+00
 S   1 1.00       0.000000000000
      0.1612777588D+00  0.1000000000D+01
 ****
     44 0
 S   3 1.00       0.000000000000
      0.1873113696D+02  0.3349460434D-01
      0.2825394365D+01  0.2347269535D+00
      0.6401216923D+00  0.8137573261D+00
 S   1 1.00       0.000000000000
      0.1612777588D+00  0.1000000000D+01
 ****
     45 0
 S   6 1.00       0.000000000000
      0.3047524880D+04  0.1834737132D-02
      0.4573695180D+03  0.1403732281D-01
      0.1039486850D+03  0.6884262226D-01
      0.2921015530D+02  0.2321844432D+00
      0.9286662960D+01  0.4679413484D+00
      0.3163926960D+01  0.3623119853D+00
 SP   3 1.00       0.000000000000
      0.7868272350D+01 -0.1193324198D+00  0.6899906659D-01
      0.1881288540D+01 -0.1608541517D+00  0.3164239610D+00
      0.5442492580D+00  0.1143456438D+01  0.7443082909D+00
 SP   1 1.00       0.000000000000
      0.1687144782D+00  0.1000000000D+01  0.1000000000D+01
 D   1 1.00       0.000000000000
      0.8000000000D+00  0.1000000000D+01
 ****
     46 0
 S   3 1.00       0.000000000000
      0.1873113696D+02  0.3349460434D-01
      0.2825394365D+01  0.2347269535D+00
      0.6401216923D+00  0.8137573261D+00
 S   1 1.00       0.000000000000
      0.1612777588D+00  0.1000000000D+01
 ****
     47 0
 S   3 1.00       0.000000000000
      0.1873113696D+02  0.3349460434D-01
      0.2825394365D+01  0.2347269535D+00
      0.6401216923D+00  0.8137573261D+00
 S   1 1.00       0.000000000000
      0.1612777588D+00  0.1000000000D+01
 ****
     48 0
 S   6 1.00       0.000000000000
      0.3047524880D+04  0.1834737132D-02
      0.4573695180D+03  0.1403732281D-01
      0.1039486850D+03  0.6884262226D-01
      0.2921015530D+02  0.2321844432D+00
      0.9286662960D+01  0.4679413484D+00
      0.3163926960D+01  0.3623119853D+00
 SP   3 1.00       0.000000000000
      0.7868272350D+01 -0.1193324198D+00  0.6899906659D-01
      0.1881288540D+01 -0.1608541517D+00  0.3164239610D+00
      0.5442492580D+00  0.1143456438D+01  0.7443082909D+00
 SP   1 1.00       0.000000000000
      0.1687144782D+00  0.1000000000D+01  0.1000000000D+01
 D   1 1.00       0.000000000000
      0.8000000000D+00  0.1000000000D+01
 ****
     49 0
 S   3 1.00       0.000000000000
      0.1873113696D+02  0.3349460434D-01
      0.2825394365D+01  0.2347269535D+00
      0.6401216923D+00  0.8137573261D+00
 S   1 1.00       0.000000000000
      0.1612777588D+00  0.1000000000D+01
 ****
     50 0
 S   3 1.00       0.000000000000
      0.1873113696D+02  0.3349460434D-01
      0.2825394365D+01  0.2347269535D+00
      0.6401216923D+00  0.8137573261D+00
 S   1 1.00       0.000000000000
      0.1612777588D+00  0.1000000000D+01
 ****
     51 0
 S   6 1.00       0.000000000000
      0.3047524880D+04  0.1834737132D-02
      0.4573695180D+03  0.1403732281D-01
      0.1039486850D+03  0.6884262226D-01
      0.2921015530D+02  0.2321844432D+00
      0.9286662960D+01  0.4679413484D+00
      0.3163926960D+01  0.3623119853D+00
 SP   3 1.00       0.000000000000
      0.7868272350D+01 -0.1193324198D+00  0.6899906659D-01
      0.1881288540D+01 -0.1608541517D+00  0.3164239610D+00
      0.5442492580D+00  0.1143456438D+01  0.7443082909D+00
 SP   1 1.00       0.000000000000
      0.1687144782D+00  0.1000000000D+01  0.1000000000D+01
 D   1 1.00       0.000000000000
      0.8000000000D+00  0.1000000000D+01
 ****
     52 0
 S   3 1.00       0.000000000000
      0.1873113696D+02  0.3349460434D-01
      0.2825394365D+01  0.2347269535D+00
      0.6401216923D+00  0.8137573261D+00
 S   1 1.00       0.000000000000
      0.1612777588D+00  0.1000000000D+01
 ****
     53 0
 S   3 1.00       0.000000000000
      0.1873113696D+02  0.3349460434D-01
      0.2825394365D+01  0.2347269535D+00
      0.6401216923D+00  0.8137573261D+00
 S   1 1.00       0.000000000000
      0.1612777588D+00  0.1000000000D+01
 ****
     54 0
 S   6 1.00       0.000000000000
      0.3047524880D+04  0.1834737132D-02
      0.4573695180D+03  0.1403732281D-01
      0.1039486850D+03  0.6884262226D-01
      0.2921015530D+02  0.2321844432D+00
      0.9286662960D+01  0.4679413484D+00
      0.3163926960D+01  0.3623119853D+00
 SP   3 1.00       0.000000000000
      0.7868272350D+01 -0.1193324198D+00  0.6899906659D-01
      0.1881288540D+01 -0.1608541517D+00  0.3164239610D+00
      0.5442492580D+00  0.1143456438D+01  0.7443082909D+00
 SP   1 1.00       0.000000000000
      0.1687144782D+00  0.1000000000D+01  0.1000000000D+01
 D   1 1.00       0.000000000000
      0.8000000000D+00  0.1000000000D+01
 ****
     55 0
 S   3 1.00       0.000000000000
      0.1873113696D+02  0.3349460434D-01
      0.2825394365D+01  0.2347269535D+00
      0.6401216923D+00  0.8137573261D+00
 S   1 1.00       0.000000000000
      0.1612777588D+00  0.1000000000D+01
 ****
     56 0
 S   6 1.00       0.000000000000
      0.3047524880D+04  0.1834737132D-02
      0.4573695180D+03  0.1403732281D-01
      0.1039486850D+03  0.6884262226D-01
      0.2921015530D+02  0.2321844432D+00
      0.9286662960D+01  0.4679413484D+00
      0.3163926960D+01  0.3623119853D+00
 SP   3 1.00       0.000000000000
      0.7868272350D+01 -0.1193324198D+00  0.6899906659D-01
      0.1881288540D+01 -0.1608541517D+00  0.3164239610D+00
      0.5442492580D+00  0.1143456438D+01  0.7443082909D+00
 SP   1 1.00       0.000000000000
      0.1687144782D+00  0.1000000000D+01  0.1000000000D+01
 D   1 1.00       0.000000000000
      0.8000000000D+00  0.1000000000D+01
 ****
     57 0
 S   3 1.00       0.000000000000
      0.1873113696D+02  0.3349460434D-01
      0.2825394365D+01  0.2347269535D+00
      0.6401216923D+00  0.8137573261D+00
 S   1 1.00       0.000000000000
      0.1612777588D+00  0.1000000000D+01
 ****
     58 0
 S   3 1.00       0.000000000000
      0.1873113696D+02  0.3349460434D-01
      0.2825394365D+01  0.2347269535D+00
      0.6401216923D+00  0.8137573261D+00
 S   1 1.00       0.000000000000
      0.1612777588D+00  0.1000000000D+01
 ****
     59 0
 S   3 1.00       0.000000000000
      0.1873113696D+02  0.3349460434D-01
      0.2825394365D+01  0.2347269535D+00
      0.6401216923D+00  0.8137573261D+00
 S   1 1.00       0.000000000000
      0.1612777588D+00  0.1000000000D+01
 ****
     60 0
 S   6 1.00       0.000000000000
      0.3047524880D+04  0.1834737132D-02
      0.4573695180D+03  0.1403732281D-01
      0.1039486850D+03  0.6884262226D-01
      0.2921015530D+02  0.2321844432D+00
      0.9286662960D+01  0.4679413484D+00
      0.3163926960D+01  0.3623119853D+00
 SP   3 1.00       0.000000000000
      0.7868272350D+01 -0.1193324198D+00  0.6899906659D-01
      0.1881288540D+01 -0.1608541517D+00  0.3164239610D+00
      0.5442492580D+00  0.1143456438D+01  0.7443082909D+00
 SP   1 1.00       0.000000000000
      0.1687144782D+00  0.1000000000D+01  0.1000000000D+01
 D   1 1.00       0.000000000000
      0.8000000000D+00  0.1000000000D+01
 ****
     61 0
 S   3 1.00       0.000000000000
      0.1873113696D+02  0.3349460434D-01
      0.2825394365D+01  0.2347269535D+00
      0.6401216923D+00  0.8137573261D+00
 S   1 1.00       0.000000000000
      0.1612777588D+00  0.1000000000D+01
 ****
     62 0
 S   3 1.00       0.000000000000
      0.1873113696D+02  0.3349460434D-01
      0.2825394365D+01  0.2347269535D+00
      0.6401216923D+00  0.8137573261D+00
 S   1 1.00       0.000000000000
      0.1612777588D+00  0.1000000000D+01
 ****
     63 0
 S   6 1.00       0.000000000000
      0.3047524880D+04  0.1834737132D-02
      0.4573695180D+03  0.1403732281D-01
      0.1039486850D+03  0.6884262226D-01
      0.2921015530D+02  0.2321844432D+00
      0.9286662960D+01  0.4679413484D+00
      0.3163926960D+01  0.3623119853D+00
 SP   3 1.00       0.000000000000
      0.7868272350D+01 -0.1193324198D+00  0.6899906659D-01
      0.1881288540D+01 -0.1608541517D+00  0.3164239610D+00
      0.5442492580D+00  0.1143456438D+01  0.7443082909D+00
 SP   1 1.00       0.000000000000
      0.1687144782D+00  0.1000000000D+01  0.1000000000D+01
 D   1 1.00       0.000000000000
      0.8000000000D+00  0.1000000000D+01
 ****
     64 0
 S   3 1.00       0.000000000000
      0.1873113696D+02  0.3349460434D-01
      0.2825394365D+01  0.2347269535D+00
      0.6401216923D+00  0.8137573261D+00
 S   1 1.00       0.000000000000
      0.1612777588D+00  0.1000000000D+01
 ****
     65 0
 S   3 1.00       0.000000000000
      0.1873113696D+02  0.3349460434D-01
      0.2825394365D+01  0.2347269535D+00
      0.6401216923D+00  0.8137573261D+00
 S   1 1.00       0.000000000000
      0.1612777588D+00  0.1000000000D+01
 ****
     66 0
 S   6 1.00       0.000000000000
      0.3047524880D+04  0.1834737132D-02
      0.4573695180D+03  0.1403732281D-01
      0.1039486850D+03  0.6884262226D-01
      0.2921015530D+02  0.2321844432D+00
      0.9286662960D+01  0.4679413484D+00
      0.3163926960D+01  0.3623119853D+00
 SP   3 1.00       0.000000000000
      0.7868272350D+01 -0.1193324198D+00  0.6899906659D-01
      0.1881288540D+01 -0.1608541517D+00  0.3164239610D+00
      0.5442492580D+00  0.1143456438D+01  0.7443082909D+00
 SP   1 1.00       0.000000000000
      0.1687144782D+00  0.1000000000D+01  0.1000000000D+01
 D   1 1.00       0.000000000000
      0.8000000000D+00  0.1000000000D+01
 ****
     67 0
 S   3 1.00       0.000000000000
      0.1873113696D+02  0.3349460434D-01
      0.2825394365D+01  0.2347269535D+00
      0.6401216923D+00  0.8137573261D+00
 S   1 1.00       0.000000000000
      0.1612777588D+00  0.1000000000D+01
 ****
     68 0
 S   6 1.00       0.000000000000
      0.3047524880D+04  0.1834737132D-02
      0.4573695180D+03  0.1403732281D-01
      0.1039486850D+03  0.6884262226D-01
      0.2921015530D+02  0.2321844432D+00
      0.9286662960D+01  0.4679413484D+00
      0.3163926960D+01  0.3623119853D+00
 SP   3 1.00       0.000000000000
      0.7868272350D+01 -0.1193324198D+00  0.6899906659D-01
      0.1881288540D+01 -0.1608541517D+00  0.3164239610D+00
      0.5442492580D+00  0.1143456438D+01  0.7443082909D+00
 SP   1 1.00       0.000000000000
      0.1687144782D+00  0.1000000000D+01  0.1000000000D+01
 D   1 1.00       0.000000000000
      0.8000000000D+00  0.1000000000D+01
 ****
     69 0
 S   3 1.00       0.000000000000
      0.1873113696D+02  0.3349460434D-01
      0.2825394365D+01  0.2347269535D+00
      0.6401216923D+00  0.8137573261D+00
 S   1 1.00       0.000000000000
      0.1612777588D+00  0.1000000000D+01
 ****
     70 0
 S   3 1.00       0.000000000000
      0.1873113696D+02  0.3349460434D-01
      0.2825394365D+01  0.2347269535D+00
      0.6401216923D+00  0.8137573261D+00
 S   1 1.00       0.000000000000
      0.1612777588D+00  0.1000000000D+01
 ****
     71 0
 S   3 1.00       0.000000000000
      0.1873113696D+02  0.3349460434D-01
      0.2825394365D+01  0.2347269535D+00
      0.6401216923D+00  0.8137573261D+00
 S   1 1.00       0.000000000000
      0.1612777588D+00  0.1000000000D+01
 ****
     72 0
 S   6 1.00       0.000000000000
      0.3047524880D+04  0.1834737132D-02
      0.4573695180D+03  0.1403732281D-01
      0.1039486850D+03  0.6884262226D-01
      0.2921015530D+02  0.2321844432D+00
      0.9286662960D+01  0.4679413484D+00
      0.3163926960D+01  0.3623119853D+00
 SP   3 1.00       0.000000000000
      0.7868272350D+01 -0.1193324198D+00  0.6899906659D-01
      0.1881288540D+01 -0.1608541517D+00  0.3164239610D+00
      0.5442492580D+00  0.1143456438D+01  0.7443082909D+00
 SP   1 1.00       0.000000000000
      0.1687144782D+00  0.1000000000D+01  0.1000000000D+01
 D   1 1.00       0.000000000000
      0.8000000000D+00  0.1000000000D+01
 ****
     73 0
 S   3 1.00       0.000000000000
      0.1873113696D+02  0.3349460434D-01
      0.2825394365D+01  0.2347269535D+00
      0.6401216923D+00  0.8137573261D+00
 S   1 1.00       0.000000000000
      0.1612777588D+00  0.1000000000D+01
 ****
     74 0
 S   3 1.00       0.000000000000
      0.1873113696D+02  0.3349460434D-01
      0.2825394365D+01  0.2347269535D+00
      0.6401216923D+00  0.8137573261D+00
 S   1 1.00       0.000000000000
      0.1612777588D+00  0.1000000000D+01
 ****
     75 0
 S   3 1.00       0.000000000000
      0.1873113696D+02  0.3349460434D-01
      0.2825394365D+01  0.2347269535D+00
      0.6401216923D+00  0.8137573261D+00
 S   1 1.00       0.000000000000
      0.1612777588D+00  0.1000000000D+01
 ****

 AO basis set (Overlap normalization):
 Atom O1       Shell     1 S   6     bf    1 -     1         10.413190403046          7.259735014356          0.000000000000
      0.5484671660D+04  0.1831074430D-02
      0.8252349460D+03  0.1395017220D-01
      0.1880469580D+03  0.6844507810D-01
      0.5296450000D+02  0.2327143360D+00
      0.1689757040D+02  0.4701928980D+00
      0.5799635340D+01  0.3585208530D+00
 Atom O1       Shell     2 SP   3    bf    2 -     5         10.413190403046          7.259735014356          0.000000000000
      0.1553961625D+02 -0.1107775495D+00  0.7087426823D-01
      0.3599933586D+01 -0.1480262627D+00  0.3397528391D+00
      0.1013761750D+01  0.1130767015D+01  0.7271585773D+00
 Atom O1       Shell     3 SP   1    bf    6 -     9         10.413190403046          7.259735014356          0.000000000000
      0.2700058226D+00  0.1000000000D+01  0.1000000000D+01
 Atom O1       Shell     4 D   1     bf   10 -    15         10.413190403046          7.259735014356          0.000000000000
      0.8000000000D+00  0.1000000000D+01
 Atom H2       Shell     5 S   3     bf   16 -    16          9.431059499516          6.593382941221          1.388286528737
      0.1873113696D+02  0.3349460434D-01
      0.2825394365D+01  0.2347269535D+00
      0.6401216923D+00  0.8137573261D+00
 Atom H2       Shell     6 S   1     bf   17 -    17          9.431059499516          6.593382941221          1.388286528737
      0.1612777588D+00  0.1000000000D+01
 Atom O3       Shell     7 S   6     bf   18 -    18          0.000000000000          0.000000000000          0.000000000000
      0.5484671660D+04  0.1831074430D-02
      0.8252349460D+03  0.1395017220D-01
      0.1880469580D+03  0.6844507810D-01
      0.5296450000D+02  0.2327143360D+00
      0.1689757040D+02  0.4701928980D+00
      0.5799635340D+01  0.3585208530D+00
 Atom O3       Shell     8 SP   3    bf   19 -    22          0.000000000000          0.000000000000          0.000000000000
      0.1553961625D+02 -0.1107775495D+00  0.7087426823D-01
      0.3599933586D+01 -0.1480262627D+00  0.3397528391D+00
      0.1013761750D+01  0.1130767015D+01  0.7271585773D+00
 Atom O3       Shell     9 SP   1    bf   23 -    26          0.000000000000          0.000000000000          0.000000000000
      0.2700058226D+00  0.1000000000D+01  0.1000000000D+01
 Atom O3       Shell    10 D   1     bf   27 -    32          0.000000000000          0.000000000000          0.000000000000
      0.8000000000D+00  0.1000000000D+01
 Atom H4       Shell    11 S   3     bf   33 -    33         -0.248804347320         -1.138795152584         -1.408672837567
      0.1873113696D+02  0.3349460434D-01
      0.2825394365D+01  0.2347269535D+00
      0.6401216923D+00  0.8137573261D+00
 Atom H4       Shell    12 S   1     bf   34 -    34         -0.248804347320         -1.138795152584         -1.408672837567
      0.1612777588D+00  0.1000000000D+01
 Atom C5       Shell    13 S   6     bf   35 -    35         16.489771154828          1.907806276635         -1.359284675008
      0.3047524880D+04  0.1834737132D-02
      0.4573695180D+03  0.1403732281D-01
      0.1039486850D+03  0.6884262226D-01
      0.2921015530D+02  0.2321844432D+00
      0.9286662960D+01  0.4679413484D+00
      0.3163926960D+01  0.3623119853D+00
 Atom C5       Shell    14 SP   3    bf   36 -    39         16.489771154828          1.907806276635         -1.359284675008
      0.7868272350D+01 -0.1193324198D+00  0.6899906659D-01
      0.1881288540D+01 -0.1608541517D+00  0.3164239610D+00
      0.5442492580D+00  0.1143456438D+01  0.7443082909D+00
 Atom C5       Shell    15 SP   1    bf   40 -    43         16.489771154828          1.907806276635         -1.359284675008
      0.1687144782D+00  0.1000000000D+01  0.1000000000D+01
 Atom C5       Shell    16 D   1     bf   44 -    49         16.489771154828          1.907806276635         -1.359284675008
      0.8000000000D+00  0.1000000000D+01
 Atom C6       Shell    17 S   6     bf   50 -    50         14.565456325183          4.113685046641         -1.418427792837
      0.3047524880D+04  0.1834737132D-02
      0.4573695180D+03  0.1403732281D-01
      0.1039486850D+03  0.6884262226D-01
      0.2921015530D+02  0.2321844432D+00
      0.9286662960D+01  0.4679413484D+00
      0.3163926960D+01  0.3623119853D+00
 Atom C6       Shell    18 SP   3    bf   51 -    54         14.565456325183          4.113685046641         -1.418427792837
      0.7868272350D+01 -0.1193324198D+00  0.6899906659D-01
      0.1881288540D+01 -0.1608541517D+00  0.3164239610D+00
      0.5442492580D+00  0.1143456438D+01  0.7443082909D+00
 Atom C6       Shell    19 SP   1    bf   55 -    58         14.565456325183          4.113685046641         -1.418427792837
      0.1687144782D+00  0.1000000000D+01  0.1000000000D+01
 Atom C6       Shell    20 D   1     bf   59 -    64         14.565456325183          4.113685046641         -1.418427792837
      0.8000000000D+00  0.1000000000D+01
 Atom H7       Shell    21 S   3     bf   65 -    65         14.420494167413          4.780494527987          0.542950065377
      0.1873113696D+02  0.3349460434D-01
      0.2825394365D+01  0.2347269535D+00
      0.6401216923D+00  0.8137573261D+00
 Atom H7       Shell    22 S   1     bf   66 -    66         14.420494167413          4.780494527987          0.542950065377
      0.1612777588D+00  0.1000000000D+01
 Atom C8       Shell    23 S   6     bf   67 -    67         11.880326075931          3.341563830218         -2.180974050404
      0.3047524880D+04  0.1834737132D-02
      0.4573695180D+03  0.1403732281D-01
      0.1039486850D+03  0.6884262226D-01
      0.2921015530D+02  0.2321844432D+00
      0.9286662960D+01  0.4679413484D+00
      0.3163926960D+01  0.3623119853D+00
 Atom C8       Shell    24 SP   3    bf   68 -    71         11.880326075931          3.341563830218         -2.180974050404
      0.7868272350D+01 -0.1193324198D+00  0.6899906659D-01
      0.1881288540D+01 -0.1608541517D+00  0.3164239610D+00
      0.5442492580D+00  0.1143456438D+01  0.7443082909D+00
 Atom C8       Shell    25 SP   1    bf   72 -    75         11.880326075931          3.341563830218         -2.180974050404
      0.1687144782D+00  0.1000000000D+01  0.1000000000D+01
 Atom C8       Shell    26 D   1     bf   76 -    81         11.880326075931          3.341563830218         -2.180974050404
      0.8000000000D+00  0.1000000000D+01
 Atom H9       Shell    27 S   3     bf   82 -    82         11.897562419167          2.649384699949         -4.140033876057
      0.1873113696D+02  0.3349460434D-01
      0.2825394365D+01  0.2347269535D+00
      0.6401216923D+00  0.8137573261D+00
 Atom H9       Shell    28 S   1     bf   83 -    83         11.897562419167          2.649384699949         -4.140033876057
      0.1612777588D+00  0.1000000000D+01
 Atom C10      Shell    29 S   6     bf   84 -    84         10.894050020334          1.218754718705         -0.411800558419
      0.3047524880D+04  0.1834737132D-02
      0.4573695180D+03  0.1403732281D-01
      0.1039486850D+03  0.6884262226D-01
      0.2921015530D+02  0.2321844432D+00
      0.9286662960D+01  0.4679413484D+00
      0.3163926960D+01  0.3623119853D+00
 Atom C10      Shell    30 SP   3    bf   85 -    88         10.894050020334          1.218754718705         -0.411800558419
      0.7868272350D+01 -0.1193324198D+00  0.6899906659D-01
      0.1881288540D+01 -0.1608541517D+00  0.3164239610D+00
      0.5442492580D+00  0.1143456438D+01  0.7443082909D+00
 Atom C10      Shell    31 SP   1    bf   89 -    92         10.894050020334          1.218754718705         -0.411800558419
      0.1687144782D+00  0.1000000000D+01  0.1000000000D+01
 Atom C10      Shell    32 D   1     bf   93 -    98         10.894050020334          1.218754718705         -0.411800558419
      0.8000000000D+00  0.1000000000D+01
 Atom H11      Shell    33 S   3     bf   99 -    99         10.634376686393          2.115000082831          1.451489061758
      0.1873113696D+02  0.3349460434D-01
      0.2825394365D+01  0.2347269535D+00
      0.6401216923D+00  0.8137573261D+00
 Atom H11      Shell    34 S   1     bf  100 -   100         10.634376686393          2.115000082831          1.451489061758
      0.1612777588D+00  0.1000000000D+01
 Atom C12      Shell    35 S   6     bf  101 -   101         18.910070516195          3.398795131015         -0.571897060356
      0.3047524880D+04  0.1834737132D-02
      0.4573695180D+03  0.1403732281D-01
      0.1039486850D+03  0.6884262226D-01
      0.2921015530D+02  0.2321844432D+00
      0.9286662960D+01  0.4679413484D+00
      0.3163926960D+01  0.3623119853D+00
 Atom C12      Shell    36 SP   3    bf  102 -   105         18.910070516195          3.398795131015         -0.571897060356
      0.7868272350D+01 -0.1193324198D+00  0.6899906659D-01
      0.1881288540D+01 -0.1608541517D+00  0.3164239610D+00
      0.5442492580D+00  0.1143456438D+01  0.7443082909D+00
 Atom C12      Shell    37 SP   1    bf  106 -   109         18.910070516195          3.398795131015         -0.571897060356
      0.1687144782D+00  0.1000000000D+01  0.1000000000D+01
 Atom C12      Shell    38 D   1     bf  110 -   115         18.910070516195          3.398795131015         -0.571897060356
      0.8000000000D+00  0.1000000000D+01
 Atom H13      Shell    39 S   3     bf  116 -   116         18.536765039705          3.962071317445          1.393165102413
      0.1873113696D+02  0.3349460434D-01
      0.2825394365D+01  0.2347269535D+00
      0.6401216923D+00  0.8137573261D+00
 Atom H13      Shell    40 S   1     bf  117 -   117         18.536765039705          3.962071317445          1.393165102413
      0.1612777588D+00  0.1000000000D+01
 Atom C14      Shell    41 S   6     bf  118 -   118         15.537187687859         -0.010587020584          0.606878668973
      0.3047524880D+04  0.1834737132D-02
      0.4573695180D+03  0.1403732281D-01
      0.1039486850D+03  0.6884262226D-01
      0.2921015530D+02  0.2321844432D+00
      0.9286662960D+01  0.4679413484D+00
      0.3163926960D+01  0.3623119853D+00
 Atom C14      Shell    42 SP   3    bf  119 -   122         15.537187687859         -0.010587020584          0.606878668973
      0.7868272350D+01 -0.1193324198D+00  0.6899906659D-01
      0.1881288540D+01 -0.1608541517D+00  0.3164239610D+00
      0.5442492580D+00  0.1143456438D+01  0.7443082909D+00
 Atom C14      Shell    43 SP   1    bf  123 -   126         15.537187687859         -0.010587020584          0.606878668973
      0.1687144782D+00  0.1000000000D+01  0.1000000000D+01
 Atom C14      Shell    44 D   1     bf  127 -   132         15.537187687859         -0.010587020584          0.606878668973
      0.8000000000D+00  0.1000000000D+01
 Atom H15      Shell    45 S   3     bf  133 -   133         15.544329586525          0.893676451524          2.477552545192
      0.1873113696D+02  0.3349460434D-01
      0.2825394365D+01  0.2347269535D+00
      0.6401216923D+00  0.8137573261D+00
 Atom H15      Shell    46 S   1     bf  134 -   134         15.544329586525          0.893676451524          2.477552545192
      0.1612777588D+00  0.1000000000D+01
 Atom H16      Shell    47 S   3     bf  135 -   135         16.799645687099         -1.653024555481          0.737321210488
      0.1873113696D+02  0.3349460434D-01
      0.2825394365D+01  0.2347269535D+00
      0.6401216923D+00  0.8137573261D+00
 Atom H16      Shell    48 S   1     bf  136 -   136         16.799645687099         -1.653024555481          0.737321210488
      0.1612777588D+00  0.1000000000D+01
 Atom C17      Shell    49 S   6     bf  137 -   137          8.213519421180          0.240764979919         -1.220244843349
      0.3047524880D+04  0.1834737132D-02
      0.4573695180D+03  0.1403732281D-01
      0.1039486850D+03  0.6884262226D-01
      0.2921015530D+02  0.2321844432D+00
      0.9286662960D+01  0.4679413484D+00
      0.3163926960D+01  0.3623119853D+00
 Atom C17      Shell    50 SP   3    bf  138 -   141          8.213519421180          0.240764979919         -1.220244843349
      0.7868272350D+01 -0.1193324198D+00  0.6899906659D-01
      0.1881288540D+01 -0.1608541517D+00  0.3164239610D+00
      0.5442492580D+00  0.1143456438D+01  0.7443082909D+00
 Atom C17      Shell    51 SP   1    bf  142 -   145          8.213519421180          0.240764979919         -1.220244843349
      0.1687144782D+00  0.1000000000D+01  0.1000000000D+01
 Atom C17      Shell    52 D   1     bf  146 -   151          8.213519421180          0.240764979919         -1.220244843349
      0.8000000000D+00  0.1000000000D+01
 Atom C18      Shell    53 S   6     bf  152 -   152         15.927923903712          6.225650739529         -2.885215737216
      0.3047524880D+04  0.1834737132D-02
      0.4573695180D+03  0.1403732281D-01
      0.1039486850D+03  0.6884262226D-01
      0.2921015530D+02  0.2321844432D+00
      0.9286662960D+01  0.4679413484D+00
      0.3163926960D+01  0.3623119853D+00
 Atom C18      Shell    54 SP   3    bf  153 -   156         15.927923903712          6.225650739529         -2.885215737216
      0.7868272350D+01 -0.1193324198D+00  0.6899906659D-01
      0.1881288540D+01 -0.1608541517D+00  0.3164239610D+00
      0.5442492580D+00  0.1143456438D+01  0.7443082909D+00
 Atom C18      Shell    55 SP   1    bf  157 -   160         15.927923903712          6.225650739529         -2.885215737216
      0.1687144782D+00  0.1000000000D+01  0.1000000000D+01
 Atom C18      Shell    56 D   1     bf  161 -   166         15.927923903712          6.225650739529         -2.885215737216
      0.8000000000D+00  0.1000000000D+01
 Atom H19      Shell    57 S   3     bf  167 -   167         15.218522433077          8.094751985660         -2.362463631665
      0.1873113696D+02  0.3349460434D-01
      0.2825394365D+01  0.2347269535D+00
      0.6401216923D+00  0.8137573261D+00
 Atom H19      Shell    58 S   1     bf  168 -   168         15.218522433077          8.094751985660         -2.362463631665
      0.1612777588D+00  0.1000000000D+01
 Atom H20      Shell    59 S   3     bf  169 -   169         15.642613826956          6.018214103524         -4.929130785791
      0.1873113696D+02  0.3349460434D-01
      0.2825394365D+01  0.2347269535D+00
      0.6401216923D+00  0.8137573261D+00
 Atom H20      Shell    60 S   1     bf  170 -   170         15.642613826956          6.018214103524         -4.929130785791
      0.1612777588D+00  0.1000000000D+01
 Atom C21      Shell    61 S   6     bf  171 -   171         12.842835934126         -0.933800949812         -0.017901224479
      0.3047524880D+04  0.1834737132D-02
      0.4573695180D+03  0.1403732281D-01
      0.1039486850D+03  0.6884262226D-01
      0.2921015530D+02  0.2321844432D+00
      0.9286662960D+01  0.4679413484D+00
      0.3163926960D+01  0.3623119853D+00
 Atom C21      Shell    62 SP   3    bf  172 -   175         12.842835934126         -0.933800949812         -0.017901224479
      0.7868272350D+01 -0.1193324198D+00  0.6899906659D-01
      0.1881288540D+01 -0.1608541517D+00  0.3164239610D+00
      0.5442492580D+00  0.1143456438D+01  0.7443082909D+00
 Atom C21      Shell    63 SP   1    bf  176 -   179         12.842835934126         -0.933800949812         -0.017901224479
      0.1687144782D+00  0.1000000000D+01  0.1000000000D+01
 Atom C21      Shell    64 D   1     bf  180 -   185         12.842835934126         -0.933800949812         -0.017901224479
      0.8000000000D+00  0.1000000000D+01
 Atom H22      Shell    65 S   3     bf  186 -   186         12.932088927704         -2.119282334529         -1.710283313999
      0.1873113696D+02  0.3349460434D-01
      0.2825394365D+01  0.2347269535D+00
      0.6401216923D+00  0.8137573261D+00
 Atom H22      Shell    66 S   1     bf  187 -   187         12.932088927704         -2.119282334529         -1.710283313999
      0.1612777588D+00  0.1000000000D+01
 Atom H23      Shell    67 S   3     bf  188 -   188         12.197834515963         -2.175165825956          1.509409602368
      0.1873113696D+02  0.3349460434D-01
      0.2825394365D+01  0.2347269535D+00
      0.6401216923D+00  0.8137573261D+00
 Atom H23      Shell    68 S   1     bf  189 -   189         12.197834515963         -2.175165825956          1.509409602368
      0.1612777588D+00  0.1000000000D+01
 Atom C24      Shell    69 S   6     bf  190 -   190         18.771187682983          5.864246399176         -2.186363511540
      0.3047524880D+04  0.1834737132D-02
      0.4573695180D+03  0.1403732281D-01
      0.1039486850D+03  0.6884262226D-01
      0.2921015530D+02  0.2321844432D+00
      0.9286662960D+01  0.4679413484D+00
      0.3163926960D+01  0.3623119853D+00
 Atom C24      Shell    70 SP   3    bf  191 -   194         18.771187682983          5.864246399176         -2.186363511540
      0.7868272350D+01 -0.1193324198D+00  0.6899906659D-01
      0.1881288540D+01 -0.1608541517D+00  0.3164239610D+00
      0.5442492580D+00  0.1143456438D+01  0.7443082909D+00
 Atom C24      Shell    71 SP   1    bf  195 -   198         18.771187682983          5.864246399176         -2.186363511540
      0.1687144782D+00  0.1000000000D+01  0.1000000000D+01
 Atom C24      Shell    72 D   1     bf  199 -   204         18.771187682983          5.864246399176         -2.186363511540
      0.8000000000D+00  0.1000000000D+01
 Atom H25      Shell    73 S   3     bf  205 -   205         19.921270528806          5.711749865520         -3.896751856518
      0.1873113696D+02  0.3349460434D-01
      0.2825394365D+01  0.2347269535D+00
      0.6401216923D+00  0.8137573261D+00
 Atom H25      Shell    74 S   1     bf  206 -   206         19.921270528806          5.711749865520         -3.896751856518
      0.1612777588D+00  0.1000000000D+01
 Atom H26      Shell    75 S   3     bf  207 -   207         19.507264905655          7.483948846838         -1.130237905736
      0.1873113696D+02  0.3349460434D-01
      0.2825394365D+01  0.2347269535D+00
      0.6401216923D+00  0.8137573261D+00
 Atom H26      Shell    76 S   1     bf  208 -   208         19.507264905655          7.483948846838         -1.130237905736
      0.1612777588D+00  0.1000000000D+01
 Atom C27      Shell    77 S   6     bf  209 -   209         10.057305518091          5.617075965762         -2.157473246140
      0.3047524880D+04  0.1834737132D-02
      0.4573695180D+03  0.1403732281D-01
      0.1039486850D+03  0.6884262226D-01
      0.2921015530D+02  0.2321844432D+00
      0.9286662960D+01  0.4679413484D+00
      0.3163926960D+01  0.3623119853D+00
 Atom C27      Shell    78 SP   3    bf  210 -   213         10.057305518091          5.617075965762         -2.157473246140
      0.7868272350D+01 -0.1193324198D+00  0.6899906659D-01
      0.1881288540D+01 -0.1608541517D+00  0.3164239610D+00
      0.5442492580D+00  0.1143456438D+01  0.7443082909D+00
 Atom C27      Shell    79 SP   1    bf  214 -   217         10.057305518091          5.617075965762         -2.157473246140
      0.1687144782D+00  0.1000000000D+01  0.1000000000D+01
 Atom C27      Shell    80 D   1     bf  218 -   223         10.057305518091          5.617075965762         -2.157473246140
      0.8000000000D+00  0.1000000000D+01
 Atom H28      Shell    81 S   3     bf  224 -   224         10.512089352491          6.835991878106         -3.769439835315
      0.1873113696D+02  0.3349460434D-01
      0.2825394365D+01  0.2347269535D+00
      0.6401216923D+00  0.8137573261D+00
 Atom H28      Shell    82 S   1     bf  225 -   225         10.512089352491          6.835991878106         -3.769439835315
      0.1612777588D+00  0.1000000000D+01
 Atom C29      Shell    83 S   6     bf  226 -   226         21.482915411816          1.975131228318         -0.495234026987
      0.3047524880D+04  0.1834737132D-02
      0.4573695180D+03  0.1403732281D-01
      0.1039486850D+03  0.6884262226D-01
      0.2921015530D+02  0.2321844432D+00
      0.9286662960D+01  0.4679413484D+00
      0.3163926960D+01  0.3623119853D+00
 Atom C29      Shell    84 SP   3    bf  227 -   230         21.482915411816          1.975131228318         -0.495234026987
      0.7868272350D+01 -0.1193324198D+00  0.6899906659D-01
      0.1881288540D+01 -0.1608541517D+00  0.3164239610D+00
      0.5442492580D+00  0.1143456438D+01  0.7443082909D+00
 Atom C29      Shell    85 SP   1    bf  231 -   234         21.482915411816          1.975131228318         -0.495234026987
      0.1687144782D+00  0.1000000000D+01  0.1000000000D+01
 Atom C29      Shell    86 D   1     bf  235 -   240         21.482915411816          1.975131228318         -0.495234026987
      0.8000000000D+00  0.1000000000D+01
 Atom H30      Shell    87 S   3     bf  241 -   241         21.055294727617          0.000000000000          0.000000000000
      0.1873113696D+02  0.3349460434D-01
      0.2825394365D+01  0.2347269535D+00
      0.6401216923D+00  0.8137573261D+00
 Atom H30      Shell    88 S   1     bf  242 -   242         21.055294727617          0.000000000000          0.000000000000
      0.1612777588D+00  0.1000000000D+01
 Atom C31      Shell    89 S   6     bf  243 -   243         16.813687675074          0.613860092096         -3.955868140236
      0.3047524880D+04  0.1834737132D-02
      0.4573695180D+03  0.1403732281D-01
      0.1039486850D+03  0.6884262226D-01
      0.2921015530D+02  0.2321844432D+00
      0.9286662960D+01  0.4679413484D+00
      0.3163926960D+01  0.3623119853D+00
 Atom C31      Shell    90 SP   3    bf  244 -   247         16.813687675074          0.613860092096         -3.955868140236
      0.7868272350D+01 -0.1193324198D+00  0.6899906659D-01
      0.1881288540D+01 -0.1608541517D+00  0.3164239610D+00
      0.5442492580D+00  0.1143456438D+01  0.7443082909D+00
 Atom C31      Shell    91 SP   1    bf  248 -   251         16.813687675074          0.613860092096         -3.955868140236
      0.1687144782D+00  0.1000000000D+01  0.1000000000D+01
 Atom C31      Shell    92 D   1     bf  252 -   257         16.813687675074          0.613860092096         -3.955868140236
      0.8000000000D+00  0.1000000000D+01
 Atom H32      Shell    93 S   3     bf  258 -   258         15.050723671984         -0.216130245489         -4.641161240757
      0.1873113696D+02  0.3349460434D-01
      0.2825394365D+01  0.2347269535D+00
      0.6401216923D+00  0.8137573261D+00
 Atom H32      Shell    94 S   1     bf  259 -   259         15.050723671984         -0.216130245489         -4.641161240757
      0.1612777588D+00  0.1000000000D+01
 Atom H33      Shell    95 S   3     bf  260 -   260         17.464151403316          1.932364930690         -5.408233978227
      0.1873113696D+02  0.3349460434D-01
      0.2825394365D+01  0.2347269535D+00
      0.6401216923D+00  0.8137573261D+00
 Atom H33      Shell    96 S   1     bf  261 -   261         17.464151403316          1.932364930690         -5.408233978227
      0.1612777588D+00  0.1000000000D+01
 Atom H34      Shell    97 S   3     bf  262 -   262         18.198783835873         -0.919859929903         -3.834025647866
      0.1873113696D+02  0.3349460434D-01
      0.2825394365D+01  0.2347269535D+00
      0.6401216923D+00  0.8137573261D+00
 Atom H34      Shell    98 S   1     bf  263 -   263         18.198783835873         -0.919859929903         -3.834025647866
      0.1612777588D+00  0.1000000000D+01
 Atom C35      Shell    99 S   6     bf  264 -   264          6.482983628756          2.469987933688         -1.888610703138
      0.3047524880D+04  0.1834737132D-02
      0.4573695180D+03  0.1403732281D-01
      0.1039486850D+03  0.6884262226D-01
      0.2921015530D+02  0.2321844432D+00
      0.9286662960D+01  0.4679413484D+00
      0.3163926960D+01  0.3623119853D+00
 Atom C35      Shell   100 SP   3    bf  265 -   268          6.482983628756          2.469987933688         -1.888610703138
      0.7868272350D+01 -0.1193324198D+00  0.6899906659D-01
      0.1881288540D+01 -0.1608541517D+00  0.3164239610D+00
      0.5442492580D+00  0.1143456438D+01  0.7443082909D+00
 Atom C35      Shell   101 SP   1    bf  269 -   272          6.482983628756          2.469987933688         -1.888610703138
      0.1687144782D+00  0.1000000000D+01  0.1000000000D+01
 Atom C35      Shell   102 D   1     bf  273 -   278          6.482983628756          2.469987933688         -1.888610703138
      0.8000000000D+00  0.1000000000D+01
 Atom C36      Shell   103 S   6     bf  279 -   279          7.015421185451         -1.214672929155          1.046814584997
      0.3047524880D+04  0.1834737132D-02
      0.4573695180D+03  0.1403732281D-01
      0.1039486850D+03  0.6884262226D-01
      0.2921015530D+02  0.2321844432D+00
      0.9286662960D+01  0.4679413484D+00
      0.3163926960D+01  0.3623119853D+00
 Atom C36      Shell   104 SP   3    bf  280 -   283          7.015421185451         -1.214672929155          1.046814584997
      0.7868272350D+01 -0.1193324198D+00  0.6899906659D-01
      0.1881288540D+01 -0.1608541517D+00  0.3164239610D+00
      0.5442492580D+00  0.1143456438D+01  0.7443082909D+00
 Atom C36      Shell   105 SP   1    bf  284 -   287          7.015421185451         -1.214672929155          1.046814584997
      0.1687144782D+00  0.1000000000D+01  0.1000000000D+01
 Atom C36      Shell   106 D   1     bf  288 -   293          7.015421185451         -1.214672929155          1.046814584997
      0.8000000000D+00  0.1000000000D+01
 Atom H37      Shell   107 S   3     bf  294 -   294          7.240241487740         -0.055236071255          2.755036547936
      0.1873113696D+02  0.3349460434D-01
      0.2825394365D+01  0.2347269535D+00
      0.6401216923D+00  0.8137573261D+00
 Atom H37      Shell   108 S   1     bf  295 -   295          7.240241487740         -0.055236071255          2.755036547936
      0.1612777588D+00  0.1000000000D+01
 Atom H38      Shell   109 S   3     bf  296 -   296          8.079925402291         -2.957990300018          1.379914550639
      0.1873113696D+02  0.3349460434D-01
      0.2825394365D+01  0.2347269535D+00
      0.6401216923D+00  0.8137573261D+00
 Atom H38      Shell   110 S   1     bf  297 -   297          8.079925402291         -2.957990300018          1.379914550639
      0.1612777588D+00  0.1000000000D+01
 Atom C39      Shell   111 S   6     bf  298 -   298          7.339098995492          4.822024302216         -2.311252563690
      0.3047524880D+04  0.1834737132D-02
      0.4573695180D+03  0.1403732281D-01
      0.1039486850D+03  0.6884262226D-01
      0.2921015530D+02  0.2321844432D+00
      0.9286662960D+01  0.4679413484D+00
      0.3163926960D+01  0.3623119853D+00
 Atom C39      Shell   112 SP   3    bf  299 -   302          7.339098995492          4.822024302216         -2.311252563690
      0.7868272350D+01 -0.1193324198D+00  0.6899906659D-01
      0.1881288540D+01 -0.1608541517D+00  0.3164239610D+00
      0.5442492580D+00  0.1143456438D+01  0.7443082909D+00
 Atom C39      Shell   113 SP   1    bf  303 -   306          7.339098995492          4.822024302216         -2.311252563690
      0.1687144782D+00  0.1000000000D+01  0.1000000000D+01
 Atom C39      Shell   114 D   1     bf  307 -   312          7.339098995492          4.822024302216         -2.311252563690
      0.8000000000D+00  0.1000000000D+01
 Atom H40      Shell   115 S   3     bf  313 -   313          5.991996269924          6.320401229886         -2.735584217350
[...]
 1588 Fit       0.001016
 1589 Fit      -0.001384
 1590 Fit       0.000698
 1591 Fit       0.002124
 1592 Fit       0.002816
 1593 Fit       0.002319
 1594 Fit      -0.000090
 1595 Fit       0.001773
 1596 Fit       0.002563
 1597 Fit       0.000816
 1598 Fit      -0.001430
 1599 Fit       0.000636
 1600 Fit       0.002564
 1601 Fit       0.002131
 1602 Fit       0.000732
 1603 Fit      -0.001311
 1604 Fit       0.003563
 1605 Fit       0.003090
 1606 Fit       0.001588
 1607 Fit      -0.000605
 1608 Fit       0.000701
 1609 Fit       0.002524
 1610 Fit       0.003019
 1611 Fit       0.001515
 1612 Fit      -0.000692
 1613 Fit       0.001266
 1614 Fit      -0.003007
 1615 Fit      -0.002537
 1616 Fit      -0.000308
 1617 Fit      -0.002628
 1618 Fit      -0.002765
 1619 Fit      -0.001158
 1620 Fit       0.002162
 1621 Fit      -0.000246
 1622 Fit       0.000422
 1623 Fit       0.003350
 1624 Fit       0.002432
 1625 Fit       0.000867
 1626 Fit       0.002453
 1627 Fit       0.000605
 1628 Fit      -0.000977
 1629 Fit      -0.002177
 1630 Fit      -0.001298
 1631 Fit      -0.001683
 1632 Fit      -0.000072
 1633 Fit       0.000049
 1634 Fit       0.000095
 1635 Fit      -0.002096
 1636 Fit       0.001563
 1637 Fit       0.002101
 1638 Fit       0.001653
 1639 Fit       0.000676
 1640 Fit      -0.001610
 1641 Fit       0.002993
 1642 Fit       0.002305
 1643 Fit       0.000674
 1644 Fit       0.002135
 1645 Fit      -0.000892
 1646 Fit      -0.000602
 1647 Fit      -0.002236
 1648 Fit      -0.000035
 1649 Fit       0.001097
 1650 Fit       0.000898
 1651 Fit      -0.001881
 1652 Fit       0.000342
 1653 Fit       0.001822
 1654 Fit       0.002274
 1655 Fit      -0.001778
 1656 Fit       0.000410
 1657 Fit       0.001776
 1658 Fit       0.000403
 1659 Fit      -0.003566
 1660 Fit      -0.006412
 1661 Fit      -0.016476
 1662 Fit      -0.017243
 1663 Fit      -0.014103
 1664 Fit      -0.006915
 1665 Fit      -0.020349
 1666 Fit      -0.023050
 1667 Fit      -0.023192
 1668 Fit      -0.020542
 1669 Fit      -0.014851
 1670 Fit      -0.006233
 1671 Fit      -0.024611
 1672 Fit      -0.024710
 1673 Fit      -0.022069
 1674 Fit      -0.016645
 1675 Fit      -0.008701
 1676 Fit      -0.021662
 1677 Fit      -0.021333
 1678 Fit      -0.017080
 1679 Fit       0.010837
 1680 Fit       0.004618
 1681 Fit       0.002054
 1682 Fit       0.007130
 1683 Fit       0.013284
 1684 Fit       0.016206
 1685 Fit       0.012520
 1686 Fit      -0.004467
 1687 Fit       0.003330
 1688 Fit       0.009662
 1689 Fit       0.014286
 1690 Fit       0.002911
 1691 Fit      -0.012738
 1692 Fit      -0.016614
 1693 Fit      -0.020706
 1694 Fit      -0.016531
 1695 Fit      -0.019470
 1696 Fit      -0.023721
 1697 Fit      -0.023606
 1698 Fit      -0.020606
 1699 Fit      -0.015789
 1700 Fit      -0.020838
 1701 Fit      -0.024144
 1702 Fit      -0.023287
 1703 Fit      -0.019655
 1704 Fit      -0.014690
 1705 Fit      -0.009450
 1706 Fit      -0.015414
 1707 Fit      -0.020842
 1708 Fit      -0.021499
 1709 Fit      -0.018410
 1710 Fit      -0.012843
 1711 Fit      -0.006092
 1712 Fit      -0.014957
 1713 Fit      -0.015682
 1714 Fit      -0.010912
 1715 Fit      -0.002370
 1716 Fit      -0.007046
 1717 Fit      -0.005179
 1718 Fit       0.004059
 1719 Fit       0.008378
 1720 Fit       0.000382
 1721 Fit       0.007664
 1722 Fit       0.012958
 1723 Fit       0.016729
 1724 Fit       0.005647
 1725 Fit       0.012369
 1726 Fit       0.017720
 1727 Fit       0.021633
 1728 Fit       0.011101
 1729 Fit       0.015201
 1730 Fit       0.020834
 1731 Fit       0.024683
 1732 Fit       0.019808
 1733 Fit       0.001426
 1734 Fit      -0.003417
 1735 Fit      -0.003948
 1736 Fit      -0.009023
 1737 Fit       0.004712
 1738 Fit       0.004876
 1739 Fit       0.005731
 1740 Fit       0.005985
 1741 Fit       0.009116
 1742 Fit       0.008301
 1743 Fit       0.013675
 1744 Fit       0.007058
 1745 Fit       0.001645
 1746 Fit      -0.000311
 1747 Fit      -0.002911
 1748 Fit      -0.003317
 1749 Fit       0.003252
 1750 Fit       0.001626
 1751 Fit       0.000580
 1752 Fit       0.003255
 1753 Fit       0.002194
 1754 Fit       0.002769
 1755 Fit       0.003886
 1756 Fit       0.004763
 1757 Fit       0.003516
 1758 Fit       0.002082
 1759 Fit       0.001998
 1760 Fit       0.004997
 1761 Fit       0.001589
 1762 Fit       0.003494
 1763 Fit       0.003126
 1764 Fit       0.002344
 1765 Fit       0.004348
 1766 Fit       0.004285
 1767 Fit       0.004162
 1768 Fit       0.004623
 1769 Fit       0.004736
 1770 Fit       0.005006
 1771 Fit       0.004585
 1772 Fit      -0.005716
 1773 Fit      -0.003779
 1774 Fit      -0.012196
 1775 Fit      -0.009345
 1776 Fit      -0.016460
 1777 Fit      -0.008542
 1778 Fit      -0.013556
 1779 Fit      -0.006379
 1780 Fit      -0.007031
 1781 Fit      -0.009381
 1782 Fit      -0.013864
 1783 Fit      -0.006620
 1784 Fit      -0.006709
 1785 Fit      -0.001379
 1786 Fit      -0.002819
 1787 Fit      -0.002711
 1788 Fit      -0.000534
 1789 Fit       0.001955
 1790 Fit       0.000148
 1791 Fit       0.000708
 1792 Fit       0.002823
 1793 Fit       0.003647
 1794 Fit       0.002302
 1795 Fit       0.004785
 1796 Fit       0.006471
 1797 Fit       0.004914
 1798 Fit       0.006132
 1799 Fit       0.005779
 1800 Fit       0.006966
 1801 Fit       0.007002
 1802 Fit       0.005380
 1803 Fit       0.007472
 1804 Fit       0.005453
 1805 Fit       0.008583
 1806 Fit       0.006038
 1807 Fit       0.004460
 1808 Fit       0.008879
 1809 Fit      -0.004765
 1810 Fit      -0.002896
 1811 Fit      -0.000954
 1812 Fit      -0.002170
 1813 Fit      -0.003525
 1814 Fit       0.000352
 1815 Fit      -0.000288
 1816 Fit      -0.000433
 1817 Fit       0.001707
 1818 Fit      -0.002505
 1819 Fit      -0.004648
 1820 Fit      -0.002013
 1821 Fit      -0.004293
 1822 Fit      -0.008393
 1823 Fit      -0.000486
 1824 Fit      -0.001561
 1825 Fit      -0.002888
 1826 Fit      -0.005268
 1827 Fit      -0.001989
 1828 Fit      -0.002641
 1829 Fit      -0.003744
 1830 Fit      -0.005659
 1831 Fit      -0.008102
 1832 Fit      -0.007038
 1833 Fit      -0.003101
 1834 Fit      -0.002083
 1835 Fit      -0.001324
 1836 Fit       0.000552
 1837 Fit       0.001533
 1838 Fit       0.001957
 1839 Fit       0.002290
 1840 Fit       0.003352
 1841 Fit       0.003321
 1842 Fit       0.000552
 1843 Fit       0.002698
 1844 Fit       0.001175
 1845 Fit       0.003013
 1846 Fit       0.005529
 1847 Fit       0.004501
 1848 Fit       0.002413
 1849 Fit       0.001795
 1850 Fit       0.001137
 1851 Fit       0.001574
 1852 Fit       0.002761
 1853 Fit       0.001860
 1854 Fit       0.001131
 1855 Fit       0.006077
 1856 Fit       0.006624
 1857 Fit       0.004235
 1858 Fit       0.005891
 1859 Fit       0.004325
 1860 Fit       0.002881
 1861 Fit       0.003298
 1862 Fit       0.003372
 1863 Fit       0.002781
 1864 Fit       0.001782
 1865 Fit       0.002686
 1866 Fit       0.004257
 1867 Fit       0.004633
 1868 Fit       0.003319
 1869 Fit       0.003578
 1870 Fit       0.002150
 1871 Fit       0.002548
 1872 Fit       0.002383
 1873 Fit      -0.000125
 1874 Fit       0.006230
 1875 Fit       0.006079
 1876 Fit       0.006739
 1877 Fit       0.007172
 1878 Fit       0.007489
 1879 Fit       0.009166
 1880 Fit       0.008446
 1881 Fit       0.006680
 1882 Fit       0.006270
 1883 Fit       0.006354
 1884 Fit       0.007634
 1885 Fit       0.013749
 1886 Fit       0.012485
 1887 Fit       0.015850
 1888 Fit       0.007099
 1889 Fit       0.007611
 1890 Fit       0.008275
 1891 Fit       0.008242
 1892 Fit       0.008923
 1893 Fit       0.009291
 1894 Fit       0.009248
 1895 Fit       0.009856
 1896 Fit       0.009688
 1897 Fit       0.004000
 1898 Fit       0.000337
 1899 Fit      -0.000764
 1900 Fit      -0.001077
 1901 Fit       0.001109
 1902 Fit      -0.000276
 1903 Fit      -0.005909
 1904 Fit       0.000137
 1905 Fit      -0.003135
 1906 Fit       0.001309
 1907 Fit       0.003544
 1908 Fit      -0.004933
 1909 Fit      -0.000192
 1910 Fit       0.002753
 1911 Fit       0.004664
 1912 Fit       0.001460
 1913 Fit       0.003249
 1914 Fit       0.004348
 1915 Fit       0.002129
 1916 Fit       0.001843
 1917 Fit       0.008443
 1918 Fit       0.006680
 1919 Fit       0.003713
 1920 Fit       0.005935
 1921 Fit       0.005245
 1922 Fit       0.006299
 1923 Fit       0.005866
 1924 Fit       0.005365
 1925 Fit       0.009818
 1926 Fit       0.009991
 1927 Fit       0.009208
 1928 Fit       0.009010
 1929 Fit       0.008498
 1930 Fit       0.008096
 1931 Fit       0.008008
 1932 Fit       0.007964
 1933 Fit       0.006791
 1934 Fit       0.006723
 1935 Fit       0.006789
 1936 Fit       0.021236
 1937 Fit       0.014681
 1938 Fit       0.010050
 1939 Fit       0.015262
 1940 Fit       0.011976
 1941 Fit       0.008455
 1942 Fit       0.006798
 1943 Fit       0.009885
 1944 Fit       0.008544
 1945 Fit       0.003472
 1946 Fit       0.001746
 1947 Fit       0.006598
 1948 Fit       0.006743
 1949 Fit       0.006529
 1950 Fit       0.004969
 1951 Fit       0.005342
 1952 Fit       0.005483
 1953 Fit       0.005863
 1954 Fit       0.005885
 1955 Fit       0.000121
 1956 Fit       0.004080
 1957 Fit       0.000380
 1958 Fit       0.003147
 1959 Fit       0.001147
 1960 Fit      -0.003829
 1961 Fit       0.002724
 1962 Fit      -0.001173
 1963 Fit      -0.008666
 1964 Fit       0.004506
 1965 Fit       0.001221
 1966 Fit      -0.003024
 1967 Fit      -0.008618
 1968 Fit       0.004640
 1969 Fit       0.002497
 1970 Fit       0.000592
 1971 Fit       0.003036
 1972 Fit       0.007016
 1973 Fit       0.014077
 1974 Fit       0.018362
 1975 Fit       0.005895
 1976 Fit       0.003432
 1977 Fit       0.005255
 1978 Fit       0.009152
 1979 Fit       0.012442
 1980 Fit       0.007916
 1981 Fit       0.005110
 1982 Fit       0.006530
 1983 Fit       0.006930
 1984 Fit       0.007123
 1985 Fit       0.007841
 1986 Fit       0.012499
 1987 Fit       0.010267
 1988 Fit       0.009706
 1989 Fit       0.017271
 1990 Fit       0.013089
 1991 Fit       0.011207
 1992 Fit       0.018342
 1993 Fit       0.003906
 1994 Fit       0.006047
 1995 Fit       0.005760
 1996 Fit       0.001556
 1997 Fit      -0.000083
 1998 Fit       0.003110
 1999 Fit       0.005278
 2000 Fit      -0.009992
 2001 Fit      -0.004203
 2002 Fit       0.001367
 2003 Fit       0.004351
 2004 Fit       0.005960
 2005 Fit      -0.005562
 2006 Fit       0.001324
 2007 Fit       0.004225
 2008 Fit       0.005884
 2009 Fit      -0.000237
 2010 Fit       0.002528
 2011 Fit       0.002623
 2012 Fit       0.000007
 2013 Fit      -0.000012
 2014 Fit      -0.000509
 2015 Fit       0.000331
 2016 Fit      -0.000622
 2017 Fit      -0.000352
 2018 Fit      -0.001463
 2019 Fit       0.002822
 2020 Fit       0.006005
 2021 Fit       0.000456
 2022 Fit      -0.004539
 2023 Fit      -0.001420
 2024 Fit       0.007663
 2025 Fit       0.002041
 2026 Fit      -0.004366
 2027 Fit      -0.012870
 2028 Fit       0.004823
 2029 Fit       0.000022
 2030 Fit      -0.007308
 2031 Fit      -0.002409
 2032 Fit      -0.003143
 2033 Fit      -0.003261
 2034 Fit      -0.002936
 2035 Fit      -0.001454
 2036 Fit      -0.002791
 2037 Fit      -0.003008
 2038 Fit      -0.003093
 2039 Fit      -0.000477
 2040 Fit      -0.000762
 2041 Fit      -0.002201
 2042 Fit      -0.001717
 2043 Fit      -0.002741
 2044 Fit      -0.002080
 2045 Fit      -0.002305
 2046 Fit      -0.002002
 2047 Fit      -0.001127
 2048 Fit      -0.000861
 2049 Fit      -0.001158
 2050 Fit      -0.001241
 2051 Fit      -0.000488
 2052 Fit      -0.000344
 2053 Fit      -0.000386
 2054 Fit      -0.001764
 2055 Fit      -0.001388
 2056 Fit      -0.000304
 2057 Fit      -0.002130
 2058 Fit       0.000213
 2059 Fit       0.000610
 2060 Fit       0.000746
 2061 Fit      -0.001065
 2062 Fit       0.000965
 2063 Fit       0.002400
 2064 Fit       0.002124
 2065 Fit      -0.000673
 2066 Fit       0.000294
 2067 Fit      -0.001280
 2068 Fit      -0.001260
 2069 Fit      -0.000018
 2070 Fit       0.001393
 2071 Fit       0.001137
 2072 Fit      -0.000204
 2073 Fit      -0.002141
 2074 Fit      -0.000509
 2075 Fit       0.001540
 2076 Fit       0.002189
 2077 Fit       0.001396
 2078 Fit       0.000372
 2079 Fit      -0.000952
 2080 Fit       0.002354
 2081 Fit      -0.000057
 2082 Fit       0.003985
 2083 Fit       0.003011
 2084 Fit       0.004329
 2085 Fit       0.003388
 2086 Fit      -0.001901
 2087 Fit      -0.001706
 2088 Fit      -0.000726
 2089 Fit       0.000685
 2090 Fit       0.001485
 2091 Fit       0.001011
 2092 Fit       0.001554
 2093 Fit       0.001250
 2094 Fit       0.000701
 2095 Fit      -0.000252
 2096 Fit       0.000564
 2097 Fit       0.000241
 2098 Fit      -0.000726
 2099 Fit      -0.000704
 2100 Fit       0.002494
 2101 Fit      -0.001100
 2102 Fit       0.000778
 2103 Fit       0.002280
 2104 Fit       0.002729
 2105 Fit      -0.000357
 2106 Fit       0.000717
 2107 Fit       0.002038
 2108 Fit       0.002261
 2109 Fit       0.001178
 2110 Fit       0.001098
 2111 Fit       0.000003
 2112 Fit      -0.000050
 2113 Fit       0.000377
 2114 Fit       0.000950
 2115 Fit       0.000865
 2116 Fit       0.000618
 2117 Fit      -0.000214
 2118 Fit       0.000533
 2119 Fit       0.001020
 2120 Fit       0.001247
 2121 Fit       0.001065
 2122 Fit       0.000671
 2123 Fit       0.000849
 2124 Fit       0.000552
 2125 Fit       0.000919
 2126 Fit       0.001087
 2127 Fit      -0.001069
 2128 Fit       0.001586
 2129 Fit       0.000343
 2130 Fit      -0.000627
 2131 Fit      -0.001215
 2132 Fit      -0.000754
 2133 Fit      -0.001295
 2134 Fit      -0.001010
 2135 Fit      -0.000839
 2136 Fit      -0.000038
 2137 Fit      -0.000608
 2138 Fit       0.000085
 2139 Fit       0.002226
 2140 Fit       0.002466
 2141 Fit       0.001437
 2142 Fit       0.003522
 2143 Fit       0.002339
 2144 Fit       0.001200
 2145 Fit       0.000088
 2146 Fit      -0.000936
 2147 Fit       0.002078
 2148 Fit       0.000954
 2149 Fit      -0.000080
 2150 Fit      -0.000321
 2151 Fit       0.000134
 2152 Fit      -0.000821
 2153 Fit       0.000475
 2154 Fit       0.001377
 2155 Fit       0.002009
 2156 Fit      -0.000367
 2157 Fit       0.001007
 2158 Fit       0.001932
 2159 Fit       0.002384
 2160 Fit       0.001642
 2161 Fit      -0.000073
 2162 Fit       0.001210
 2163 Fit       0.001797
 2164 Fit       0.000564
 2165 Fit       0.000368
 2166 Fit       0.002097
 2167 Fit       0.001190
 2168 Fit       0.002709
 2169 Fit       0.002067
 2170 Fit       0.000782
 2171 Fit       0.003095
 2172 Fit       0.002693
 2173 Fit       0.001557
 2174 Fit      -0.000025
 2175 Fit       0.000791
 2176 Fit       0.002057
 2177 Fit       0.002394
 2178 Fit       0.001315
 2179 Fit      -0.000148
 2180 Fit       0.001131
 2181 Fit      -0.002122
 2182 Fit      -0.001847
 2183 Fit      -0.001063
 2184 Fit      -0.001779
 2185 Fit      -0.002168
 2186 Fit      -0.001858
 2187 Fit      -0.001161
 2188 Fit      -0.001358
 2189 Fit      -0.001109
 2190 Fit      -0.000247
 2191 Fit      -0.000464
 2192 Fit       0.001693
 2193 Fit       0.000023
 2194 Fit       0.000607
 2195 Fit       0.002698
 2196 Fit       0.001945
 2197 Fit       0.000805
 2198 Fit       0.002064
 2199 Fit       0.000897
 2200 Fit      -0.000294
 2201 Fit      -0.001231
 2202 Fit      -0.001546
 2203 Fit      -0.000631
 2204 Fit      -0.000601
 2205 Fit      -0.000445
 2206 Fit       0.000634
 2207 Fit       0.001043
 2208 Fit       0.000661
 2209 Fit       0.000267
 2210 Fit      -0.001236
 2211 Fit       0.002207
 2212 Fit       0.002019
 2213 Fit       0.001452
 2214 Fit       0.000549
 2215 Fit       0.002508
 2216 Fit       0.001758
 2217 Fit       0.000634
 2218 Fit       0.001661
 2219 Fit      -0.000936
 2220 Fit      -0.000488
 2221 Fit       0.000326
 2222 Fit       0.000282
 2223 Fit      -0.001650
 2224 Fit      -0.000131
 2225 Fit       0.000967
 2226 Fit       0.001383
 2227 Fit       0.001235
 2228 Fit      -0.001421
 2229 Fit       0.000043
 2230 Fit       0.001189
 2231 Fit       0.001761
 2232 Fit       0.000126
 2233 Fit       0.001121
 2234 Fit       0.000267
 -----------------------------------------------------------------
 Leave Link  602 at Thu May 18 13:03:07 2017, MaxMem=   33554432 cpu:      14.4
 (Enter /scratch/michal/g09/l9999.exe)

 Test job not archived.
 1\1\GINC-RZEPICHA\SP\RHF\6-31G(d)\C27H46O2\MICHAL\18-May-2017\0\\#P HF
 /6-31G* SCF(Conver=6) NoSymm Test Pop=mk IOp(6/33=2) GFInput GFPrint\\
 MEP - Input generated by R.E.D.-III.x MOLECULE\\0,1\O,0,5.51042303,3.8
 4168631,0.\H,0,4.99070174,3.48906798,0.73464959\O,0,0.,0.,0.\H,0,-0.13
 166159,-0.60262444,-0.74543756\C,0,8.72601107,1.0095676,-0.71930247\C,
 0,7.70770752,2.17686837,-0.75059966\H,0,7.63099685,2.52972875,0.287316
 8\C,0,6.28679779,1.76827942,-1.15412176\H,0,6.29591887,1.401994,-2.190
 81157\C,0,5.76488298,0.64493722,-0.21791547\H,0,5.62746977,1.11920984,
 0.76809493\C,0,10.00677833,1.79856492,-0.30263489\H,0,9.80923358,2.096
 63784,0.73723122\C,0,8.22192561,-0.00560241,0.32114636\H,0,8.22570494,
 0.47291321,1.31106434\H,0,8.88998961,-0.87474292,0.39017358\C,0,4.3464
 0728,0.12740734,-0.64572576\C,0,8.42869431,3.29447248,-1.52679041\H,0,
 8.05329522,4.28355826,-1.25016191\H,0,8.27771472,3.18470174,-2.6083836
 7\C,0,6.79613607,-0.49414618,-0.00947292\H,0,6.84336672,-1.12147591,-0
 .90504295\H,0,6.45481602,-1.15104818,0.79874516\C,0,9.9332847,3.103225
 54,-1.15697374\H,0,10.54188233,3.02252785,-2.06207227\H,0,10.32279999,
 3.96033516,-0.59809614\C,0,5.32209686,2.97242858,-1.14168567\H,0,5.562
 7581,3.6174511,-1.99470165\C,0,11.36826921,1.04519443,-0.26206656\H,0,
 11.14198209,0.,0.\C,0,8.89742031,0.32484077,-2.09335526\H,0,7.96449994
 ,-0.1143712,-2.45599675\H,0,9.24163089,1.02256348,-2.86191416\H,0,9.63
 038163,-0.48676891,-2.02887899\C,0,3.43064718,1.30706132,-0.99940974\C
 ,0,3.712401,-0.64277723,0.55395042\H,0,3.83137078,-0.02922967,1.457902
 55\H,0,4.27571237,-1.56530105,0.73021933\C,0,3.88368392,2.55170536,-1.
 22306218\H,0,3.17082786,3.34461228,-1.44760882\C,0,4.42844491,-0.81146
 653,-1.88035467\H,0,4.91381385,-1.75914045,-1.62859725\H,0,3.43598865,
 -1.05230653,-2.26928613\H,0,4.98905084,-0.34508302,-2.69599652\C,0,1.9
 4540189,1.0133121,-1.10571891\H,0,1.3863022,1.94152737,-1.25912904\H,0
 ,1.75303233,0.3803667,-1.98673066\C,0,2.22257776,-0.98236162,0.3942142
 \H,0,2.07636947,-1.69125032,-0.43417251\H,0,1.85175057,-1.47696306,1.2
 9910519\C,0,12.16237758,1.02095519,-1.59029526\H,0,11.48125406,0.91770
 217,-2.44099638\H,0,12.66758707,1.9881105,-1.72487727\C,0,1.39735911,0
 .27569772,0.12534875\H,0,1.46163071,0.94016494,0.99585716\C,0,12.24422
 711,1.61416063,0.87318689\H,0,12.44790954,2.67981567,0.70991054\H,0,13
 .20845439,1.10048364,0.94349937\H,0,11.74683042,1.51569813,1.84447531\
 C,0,13.20543786,-0.10605477,-1.67766548\H,0,13.90524165,-0.03146256,-0
 .83677184\H,0,12.69097625,-1.07012304,-1.56519063\C,0,13.98563398,-0.0
 8129924,-3.00181614\H,0,14.4786648,0.89673188,-3.09980851\H,0,13.26871
 016,-0.14250893,-3.83354161\C,0,15.05232195,-1.18374723,-3.19924683\H,
 0,15.49557685,-0.99985329,-4.1892011\C,0,14.44564859,-2.59640044,-3.23
 257544\H,0,14.03444627,-2.88312208,-2.25780058\H,0,15.20511256,-3.3407
 355,-3.49800381\H,0,13.63753141,-2.66633313,-3.97031489\C,0,16.1928066
 1,-1.09654076,-2.17150597\H,0,15.84414451,-1.3316204,-1.15926759\H,0,1
 6.99152822,-1.80666338,-2.41447326\H,0,16.63380578,-0.09301442,-2.1488
 2886\\Version=EM64L-G09RevC.01\HF=-1198.9245959\RMSD=5.007e-07\Dipole=
 0.1211244,-0.9481784,-0.3849502\Quadrupole=-3.3637925,-3.0511065,6.414
 899,-8.3775145,-0.0918415,0.7868852\PG=C01 [X(C27H46O2)]\\@


 The arm of the moral universe is long, but it bends toward justice.
 -- Martin Luther King, Jr.
 Job cpu time:  0 days  0 hours 38 minutes 55.4 seconds.
 File lengths (MBytes):  RWF=    151 Int=      0 D2E=      0 Chk=     11 Scr=      1
 Normal termination of Gaussian 09 at Thu May 18 13:03:07 2017.
