 Entering Gaussian System, Link 0=/scratch/michal/g09//g09
 Input=JOB2-gau_m1-20-3.com
 Output=JOB2-gau_m1-20-3.log
 Initial command:
 /scratch/michal/g09/l1.exe /scratch/michal/gauss_scratch/Gau-38961.inp -scrdir=/scratch/michal/gauss_scratch/
 Entering Link 1 = /scratch/michal/g09/l1.exe PID=     38963.
  
 Copyright (c) 1988,1990,1992,1993,1995,1998,2003,2009,2011,
            Gaussian, Inc.  All Rights Reserved.
  
 This is part of the Gaussian(R) 09 program.  It is based on
 the Gaussian(R) 03 system (copyright 2003, Gaussian, Inc.),
 the Gaussian(R) 98 system (copyright 1998, Gaussian, Inc.),
 the Gaussian(R) 94 system (copyright 1995, Gaussian, Inc.),
 the Gaussian 92(TM) system (copyright 1992, Gaussian, Inc.),
 the Gaussian 90(TM) system (copyright 1990, Gaussian, Inc.),
 the Gaussian 88(TM) system (copyright 1988, Gaussian, Inc.),
 the Gaussian 86(TM) system (copyright 1986, Carnegie Mellon
 University), and the Gaussian 82(TM) system (copyright 1983,
 Carnegie Mellon University). Gaussian is a federally registered
 trademark of Gaussian, Inc.
  
 This software contains proprietary and confidential information,
 including trade secrets, belonging to Gaussian, Inc.
  
 This software is provided under written license and may be
 used, copied, transmitted, or stored only in accord with that
 written license.
  
 The following legend is applicable only to US Government
 contracts under FAR:
  
                    RESTRICTED RIGHTS LEGEND
  
 Use, reproduction and disclosure by the US Government is
 subject to restrictions as set forth in subparagraphs (a)
 and (c) of the Commercial Computer Software - Restricted
 Rights clause in FAR 52.227-19.
  
 Gaussian, Inc.
 340 Quinnipiac St., Bldg. 40, Wallingford CT 06492
  
  
 ---------------------------------------------------------------
 Warning -- This program may not be used in any manner that
 competes with the business of Gaussian, Inc. or will provide
 assistance to any competitor of Gaussian, Inc.  The licensee
 of this program is prohibited from giving any competitor of
 Gaussian, Inc. access to this program.  By using this program,
 the user acknowledges that Gaussian, Inc. is engaged in the
 business of creating and licensing software in the field of
 computational chemistry and represents and warrants to the
 licensee that it is not a competitor of Gaussian, Inc. and that
 it will not use this program in any manner prohibited above.
 ---------------------------------------------------------------
  

 Cite this work as:
 Gaussian 09, Revision C.01,
 M. J. Frisch, G. W. Trucks, H. B. Schlegel, G. E. Scuseria, 
 M. A. Robb, J. R. Cheeseman, G. Scalmani, V. Barone, B. Mennucci, 
 G. A. Petersson, H. Nakatsuji, M. Caricato, X. Li, H. P. Hratchian, 
 A. F. Izmaylov, J. Bloino, G. Zheng, J. L. Sonnenberg, M. Hada, 
 M. Ehara, K. Toyota, R. Fukuda, J. Hasegawa, M. Ishida, T. Nakajima, 
 Y. Honda, O. Kitao, H. Nakai, T. Vreven, J. A. Montgomery, Jr., 
 J. E. Peralta, F. Ogliaro, M. Bearpark, J. J. Heyd, E. Brothers, 
 K. N. Kudin, V. N. Staroverov, T. Keith, R. Kobayashi, J. Normand, 
 K. Raghavachari, A. Rendell, J. C. Burant, S. S. Iyengar, J. Tomasi, 
 M. Cossi, N. Rega, J. M. Millam, M. Klene, J. E. Knox, J. B. Cross, 
 V. Bakken, C. Adamo, J. Jaramillo, R. Gomperts, R. E. Stratmann, 
 O. Yazyev, A. J. Austin, R. Cammi, C. Pomelli, J. W. Ochterski, 
 R. L. Martin, K. Morokuma, V. G. Zakrzewski, G. A. Voth, 
 P. Salvador, J. J. Dannenberg, S. Dapprich, A. D. Daniels, 
 O. Farkas, J. B. Foresman, J. V. Ortiz, J. Cioslowski, 
 and D. J. Fox, Gaussian, Inc., Wallingford CT, 2010.
 
 ******************************************
 Gaussian 09:  EM64L-G09RevC.01 23-Sep-2011
                18-May-2017 
 ******************************************
 %Mem=256MB
 %NProc=48
 Will use up to   48 processors via shared memory.
 ----------------------------------------------------------------------
 #P HF/6-31G* SCF(Conver=6) NoSymm Test Pop=mk IOp(6/33=2) GFInput GFPr
 int
 ----------------------------------------------------------------------
 1/38=1/1;
 2/12=2,15=1,17=6,18=5,40=1/2;
 3/5=1,6=6,7=1,11=9,16=1,24=110,25=1,30=1/1,2,3;
 4//1;
 5/5=2,6=6,38=5/2;
 6/7=2,8=2,9=2,10=2,15=8,20=1,28=1,33=2/1,2;
 99/5=1,9=1/99;
 Leave Link    1 at Thu May 18 14:07:02 2017, MaxMem=   33554432 cpu:       4.8
 (Enter /scratch/michal/g09/l101.exe)
 ----------------------------------------------
 MEP - Input generated by R.E.D.-III.x MOLECULE
 ----------------------------------------------
 Charge =  0 Multiplicity = 1
 Symbolic Z-Matrix:
 O                     5.74844   3.4714    0. 
 H                     5.11328   3.3089    0.7102 
 O                     0.        0.        0. 
 H                    -0.08129  -0.74247  -0.61506 
 C                     8.81594   0.40726   0.35622 
 C                     7.88832   1.58028  -0.06639 
 H                     7.70823   2.15656   0.85226 
 C                     6.50357   1.16195  -0.57517 
 H                     6.62067   0.58117  -1.50163 
 C                     5.77679   0.29311   0.48267 
 H                     5.5525    0.96898   1.32471 
 C                     10.09585   1.21648   0.76422 
 H                     9.84777   1.70196   1.71954 
 C                     8.08456  -0.33839   1.4908 
 H                     7.98517   0.3403    2.35013 
 H                     8.65376  -1.20496   1.84248 
 C                     4.38921  -0.23247  -0.02724 
 C                     8.76751   2.46775  -0.95947 
 H                     8.4172    3.50357  -0.97338 
 H                     8.76052   2.11113  -1.99751 
 C                     6.68745  -0.82171   1.05032 
 H                     6.81582  -1.61223   0.30374 
 H                     6.19687  -1.29571   1.90836 
 C                     10.18349   2.32777  -0.33405 
 H                     10.92001   2.05017  -1.09753 
 H                     10.52716   3.2746    0.09378 
 C                     5.64405   2.38689  -0.95267 
 H                     6.0441    2.8205   -1.87642 
 C                     11.4394   0.47111   0.96046 
 H                     11.69512   0.        0. 
 C                     9.13709  -0.55274  -0.81184 
 H                     8.23633  -0.97588  -1.26387 
 H                     9.69304  -0.05266  -1.61068 
 H                     9.74871  -1.39303  -0.46605 
 C                     3.62392   0.88712  -0.74529 
 C                     3.54626  -0.69123   1.20288 
 H                     3.5946    0.09763   1.96644 
 H                     4.0076   -1.57983   1.64685 
 C                     4.19989   2.03011  -1.15297 
 H                     3.58787   2.79077  -1.63684 
 C                     4.55502  -1.41999  -1.01433 
 H                     4.92923  -2.31235  -0.50372 
 H                     3.60474  -1.69136  -1.48076 
 H                     5.25     -1.1702   -1.82163 
 C                     2.14644   0.65211  -1.00084 
 H                     1.68743   1.55211  -1.42158 
 H                     2.02012  -0.14573  -1.75006 
 C                     2.06772  -0.98324   0.90466 
 H                     1.97448  -1.84647   0.22924 
 H                     1.54441  -1.25096   1.82956 
 C                     12.61101   1.44376   1.26742 
 H                     13.53448   0.84723   1.30172 
 H                     12.7333   2.13245   0.42398 
 C                     1.38674   0.22632   0.26475 
 H                     1.39009   1.0594    0.97847 
 C                     11.38054  -0.6503    2.01497 
 H                     10.96295  -0.29965   2.96525 
 H                     12.38583  -1.03858   2.21744 
 H                     10.76973  -1.49271   1.68057 
 C                     12.50651   2.24845   2.57434 
 H                     11.64962   2.9319    2.52911 
 H                     12.29987   1.56513   3.40755 
 C                     13.78217   3.03734   2.92705 
 H                     14.61613   2.32583   3.01479 
 H                     13.65649   3.48056   3.92619 
 C                     14.20106   4.1608    1.95478 
 H                     14.32415   3.72388   0.9535 
 C                     15.5611   4.74293   2.37253 
 H                     15.5023   5.19676   3.37031 
 H                     15.89362   5.51938   1.67408 
 H                     16.33486   3.96726   2.40528 
 C                     13.14666   5.27483   1.85778 
 H                     12.97503   5.73433   2.83998 
 H                     13.47461   6.06619   1.17417 
 H                     12.18427   4.90301   1.49191 
 
 NAtoms=     75 NQM=        0 NQMF=       0 NMMI=     75 NMMIF=      0
                NMic=       0 NMicF=      0.
                    Isotopes and Nuclear Properties:
 (Nuclear quadrupole moments (NQMom) in fm**2, nuclear magnetic moments (NMagM)
  in nuclear magnetons)

  Atom         1           2           3           4           5           6           7           8           9          10
 IAtWgt=          16           1          16           1          12          12           1          12           1          12
 AtmWgt=  15.9949146   1.0078250  15.9949146   1.0078250  12.0000000  12.0000000   1.0078250  12.0000000   1.0078250  12.0000000
 NucSpn=           0           1           0           1           0           0           1           0           1           0
 AtZEff=   0.0000000   0.0000000   0.0000000   0.0000000   0.0000000   0.0000000   0.0000000   0.0000000   0.0000000   0.0000000
 NQMom=    0.0000000   0.0000000   0.0000000   0.0000000   0.0000000   0.0000000   0.0000000   0.0000000   0.0000000   0.0000000
 NMagM=    0.0000000   2.7928460   0.0000000   2.7928460   0.0000000   0.0000000   2.7928460   0.0000000   2.7928460   0.0000000

  Atom        11          12          13          14          15          16          17          18          19          20
 IAtWgt=           1          12           1          12           1           1          12          12           1           1
 AtmWgt=   1.0078250  12.0000000   1.0078250  12.0000000   1.0078250   1.0078250  12.0000000  12.0000000   1.0078250   1.0078250
 NucSpn=           1           0           1           0           1           1           0           0           1           1
 AtZEff=   0.0000000   0.0000000   0.0000000   0.0000000   0.0000000   0.0000000   0.0000000   0.0000000   0.0000000   0.0000000
 NQMom=    0.0000000   0.0000000   0.0000000   0.0000000   0.0000000   0.0000000   0.0000000   0.0000000   0.0000000   0.0000000
 NMagM=    2.7928460   0.0000000   2.7928460   0.0000000   2.7928460   2.7928460   0.0000000   0.0000000   2.7928460   2.7928460

  Atom        21          22          23          24          25          26          27          28          29          30
 IAtWgt=          12           1           1          12           1           1          12           1          12           1
 AtmWgt=  12.0000000   1.0078250   1.0078250  12.0000000   1.0078250   1.0078250  12.0000000   1.0078250  12.0000000   1.0078250
 NucSpn=           0           1           1           0           1           1           0           1           0           1
 AtZEff=   0.0000000   0.0000000   0.0000000   0.0000000   0.0000000   0.0000000   0.0000000   0.0000000   0.0000000   0.0000000
 NQMom=    0.0000000   0.0000000   0.0000000   0.0000000   0.0000000   0.0000000   0.0000000   0.0000000   0.0000000   0.0000000
 NMagM=    0.0000000   2.7928460   2.7928460   0.0000000   2.7928460   2.7928460   0.0000000   2.7928460   0.0000000   2.7928460

  Atom        31          32          33          34          35          36          37          38          39          40
 IAtWgt=          12           1           1           1          12          12           1           1          12           1
 AtmWgt=  12.0000000   1.0078250   1.0078250   1.0078250  12.0000000  12.0000000   1.0078250   1.0078250  12.0000000   1.0078250
 NucSpn=           0           1           1           1           0           0           1           1           0           1
 AtZEff=   0.0000000   0.0000000   0.0000000   0.0000000   0.0000000   0.0000000   0.0000000   0.0000000   0.0000000   0.0000000
 NQMom=    0.0000000   0.0000000   0.0000000   0.0000000   0.0000000   0.0000000   0.0000000   0.0000000   0.0000000   0.0000000
 NMagM=    0.0000000   2.7928460   2.7928460   2.7928460   0.0000000   0.0000000   2.7928460   2.7928460   0.0000000   2.7928460

  Atom        41          42          43          44          45          46          47          48          49          50
 IAtWgt=          12           1           1           1          12           1           1          12           1           1
 AtmWgt=  12.0000000   1.0078250   1.0078250   1.0078250  12.0000000   1.0078250   1.0078250  12.0000000   1.0078250   1.0078250
 NucSpn=           0           1           1           1           0           1           1           0           1           1
 AtZEff=   0.0000000   0.0000000   0.0000000   0.0000000   0.0000000   0.0000000   0.0000000   0.0000000   0.0000000   0.0000000
 NQMom=    0.0000000   0.0000000   0.0000000   0.0000000   0.0000000   0.0000000   0.0000000   0.0000000   0.0000000   0.0000000
 NMagM=    0.0000000   2.7928460   2.7928460   2.7928460   0.0000000   2.7928460   2.7928460   0.0000000   2.7928460   2.7928460

  Atom        51          52          53          54          55          56          57          58          59          60
 IAtWgt=          12           1           1          12           1          12           1           1           1          12
 AtmWgt=  12.0000000   1.0078250   1.0078250  12.0000000   1.0078250  12.0000000   1.0078250   1.0078250   1.0078250  12.0000000
 NucSpn=           0           1           1           0           1           0           1           1           1           0
 AtZEff=   0.0000000   0.0000000   0.0000000   0.0000000   0.0000000   0.0000000   0.0000000   0.0000000   0.0000000   0.0000000
 NQMom=    0.0000000   0.0000000   0.0000000   0.0000000   0.0000000   0.0000000   0.0000000   0.0000000   0.0000000   0.0000000
 NMagM=    0.0000000   2.7928460   2.7928460   0.0000000   2.7928460   0.0000000   2.7928460   2.7928460   2.7928460   0.0000000

  Atom        61          62          63          64          65          66          67          68          69          70
 IAtWgt=           1           1          12           1           1          12           1          12           1           1
 AtmWgt=   1.0078250   1.0078250  12.0000000   1.0078250   1.0078250  12.0000000   1.0078250  12.0000000   1.0078250   1.0078250
 NucSpn=           1           1           0           1           1           0           1           0           1           1
 AtZEff=   0.0000000   0.0000000   0.0000000   0.0000000   0.0000000   0.0000000   0.0000000   0.0000000   0.0000000   0.0000000
 NQMom=    0.0000000   0.0000000   0.0000000   0.0000000   0.0000000   0.0000000   0.0000000   0.0000000   0.0000000   0.0000000
 NMagM=    2.7928460   2.7928460   0.0000000   2.7928460   2.7928460   0.0000000   2.7928460   0.0000000   2.7928460   2.7928460

  Atom        71          72          73          74          75
 IAtWgt=           1          12           1           1           1
 AtmWgt=   1.0078250  12.0000000   1.0078250   1.0078250   1.0078250
 NucSpn=           1           0           1           1           1
 AtZEff=   0.0000000   0.0000000   0.0000000   0.0000000   0.0000000
 NQMom=    0.0000000   0.0000000   0.0000000   0.0000000   0.0000000
 NMagM=    2.7928460   0.0000000   2.7928460   2.7928460   2.7928460
 Leave Link  101 at Thu May 18 14:07:02 2017, MaxMem=   33554432 cpu:       6.6
 (Enter /scratch/michal/g09/l202.exe)
 Symmetry turned off by external request.
 Stoichiometry    C27H46O2
 Framework group  C1[X(C27H46O2)]
 Deg. of freedom   219
 Full point group                 C1      NOp   1
                          Input orientation:                          
 ---------------------------------------------------------------------
 Center     Atomic      Atomic             Coordinates (Angstroms)
 Number     Number       Type             X           Y           Z
 ---------------------------------------------------------------------
      1          8           0        5.748439    3.471402    0.000000
      2          1           0        5.113282    3.308899    0.710196
      3          8           0        0.000000    0.000000    0.000000
      4          1           0       -0.081295   -0.742472   -0.615056
      5          6           0        8.815943    0.407264    0.356218
      6          6           0        7.888316    1.580280   -0.066389
      7          1           0        7.708231    2.156555    0.852256
      8          6           0        6.503566    1.161952   -0.575172
      9          1           0        6.620671    0.581172   -1.501627
     10          6           0        5.776788    0.293114    0.482666
     11          1           0        5.552503    0.968983    1.324709
     12          6           0       10.095855    1.216482    0.764216
     13          1           0        9.847771    1.701963    1.719545
     14          6           0        8.084560   -0.338394    1.490797
     15          1           0        7.985173    0.340296    2.350133
     16          1           0        8.653764   -1.204959    1.842478
     17          6           0        4.389212   -0.232474   -0.027240
     18          6           0        8.767508    2.467751   -0.959469
     19          1           0        8.417201    3.503567   -0.973379
     20          1           0        8.760521    2.111126   -1.997509
     21          6           0        6.687449   -0.821708    1.050322
     22          1           0        6.815824   -1.612229    0.303742
     23          1           0        6.196872   -1.295713    1.908364
     24          6           0       10.183492    2.327769   -0.334054
     25          1           0       10.920006    2.050173   -1.097534
     26          1           0       10.527164    3.274597    0.093775
     27          6           0        5.644053    2.386893   -0.952669
     28          1           0        6.044104    2.820498   -1.876422
     29          6           0       11.439403    0.471110    0.960455
     30          1           0       11.695119    0.000000    0.000000
     31          6           0        9.137085   -0.552742   -0.811844
     32          1           0        8.236329   -0.975881   -1.263868
     33          1           0        9.693035   -0.052658   -1.610685
     34          1           0        9.748712   -1.393032   -0.466051
     35          6           0        3.623920    0.887116   -0.745286
     36          6           0        3.546263   -0.691228    1.202877
     37          1           0        3.594598    0.097629    1.966445
     38          1           0        4.007605   -1.579832    1.646855
     39          6           0        4.199892    2.030107   -1.152965
     40          1           0        3.587871    2.790772   -1.636836
     41          6           0        4.555022   -1.419994   -1.014329
     42          1           0        4.929232   -2.312353   -0.503720
     43          1           0        3.604744   -1.691363   -1.480757
     44          1           0        5.250004   -1.170204   -1.821625
     45          6           0        2.146444    0.652106   -1.000844
     46          1           0        1.687427    1.552105   -1.421583
     47          1           0        2.020120   -0.145734   -1.750063
     48          6           0        2.067719   -0.983238    0.904660
     49          1           0        1.974479   -1.846466    0.229236
     50          1           0        1.544411   -1.250961    1.829560
     51          6           0       12.611012    1.443762    1.267425
     52          1           0       13.534477    0.847228    1.301724
     53          1           0       12.733298    2.132450    0.423980
     54          6           0        1.386740    0.226319    0.264754
     55          1           0        1.390085    1.059397    0.978474
     56          6           0       11.380540   -0.650297    2.014965
     57          1           0       10.962954   -0.299647    2.965251
     58          1           0       12.385830   -1.038584    2.217442
     59          1           0       10.769732   -1.492707    1.680567
     60          6           0       12.506507    2.248452    2.574344
     61          1           0       11.649623    2.931897    2.529109
     62          1           0       12.299869    1.565131    3.407551
     63          6           0       13.782168    3.037339    2.927048
     64          1           0       14.616133    2.325830    3.014790
     65          1           0       13.656491    3.480555    3.926194
     66          6           0       14.201062    4.160803    1.954778
     67          1           0       14.324148    3.723884    0.953495
     68          6           0       15.561096    4.742934    2.372526
     69          1           0       15.502297    5.196755    3.370308
     70          1           0       15.893623    5.519385    1.674079
     71          1           0       16.334863    3.967256    2.405277
     72          6           0       13.146662    5.274830    1.857776
     73          1           0       12.975029    5.734333    2.839979
     74          1           0       13.474614    6.066192    1.174173
     75          1           0       12.184270    4.903005    1.491913
 ---------------------------------------------------------------------
 Rotational constants (GHZ):      0.4178527      0.0605664      0.0571255
 Leave Link  202 at Thu May 18 14:07:02 2017, MaxMem=   33554432 cpu:       0.2
 (Enter /scratch/michal/g09/l301.exe)
 Standard basis: 6-31G(d) (6D, 7F)
 Ernie: Thresh=  0.10000D-02 Tol=  0.10000D-05 Strict=F.
 AO basis set in the form of general basis input (Overlap normalization):
      1 0
 S   6 1.00       0.000000000000
      0.5484671660D+04  0.1831074430D-02
      0.8252349460D+03  0.1395017220D-01
      0.1880469580D+03  0.6844507810D-01
      0.5296450000D+02  0.2327143360D+00
      0.1689757040D+02  0.4701928980D+00
      0.5799635340D+01  0.3585208530D+00
 SP   3 1.00       0.000000000000
      0.1553961625D+02 -0.1107775495D+00  0.7087426823D-01
      0.3599933586D+01 -0.1480262627D+00  0.3397528391D+00
      0.1013761750D+01  0.1130767015D+01  0.7271585773D+00
 SP   1 1.00       0.000000000000
      0.2700058226D+00  0.1000000000D+01  0.1000000000D+01
 D   1 1.00       0.000000000000
      0.8000000000D+00  0.1000000000D+01
 ****
      2 0
 S   3 1.00       0.000000000000
      0.1873113696D+02  0.3349460434D-01
      0.2825394365D+01  0.2347269535D+00
      0.6401216923D+00  0.8137573261D+00
 S   1 1.00       0.000000000000
      0.1612777588D+00  0.1000000000D+01
 ****
      3 0
 S   6 1.00       0.000000000000
      0.5484671660D+04  0.1831074430D-02
      0.8252349460D+03  0.1395017220D-01
      0.1880469580D+03  0.6844507810D-01
      0.5296450000D+02  0.2327143360D+00
      0.1689757040D+02  0.4701928980D+00
      0.5799635340D+01  0.3585208530D+00
 SP   3 1.00       0.000000000000
      0.1553961625D+02 -0.1107775495D+00  0.7087426823D-01
      0.3599933586D+01 -0.1480262627D+00  0.3397528391D+00
      0.1013761750D+01  0.1130767015D+01  0.7271585773D+00
 SP   1 1.00       0.000000000000
      0.2700058226D+00  0.1000000000D+01  0.1000000000D+01
 D   1 1.00       0.000000000000
      0.8000000000D+00  0.1000000000D+01
 ****
      4 0
 S   3 1.00       0.000000000000
      0.1873113696D+02  0.3349460434D-01
      0.2825394365D+01  0.2347269535D+00
      0.6401216923D+00  0.8137573261D+00
 S   1 1.00       0.000000000000
      0.1612777588D+00  0.1000000000D+01
 ****
      5 0
 S   6 1.00       0.000000000000
      0.3047524880D+04  0.1834737132D-02
      0.4573695180D+03  0.1403732281D-01
      0.1039486850D+03  0.6884262226D-01
      0.2921015530D+02  0.2321844432D+00
      0.9286662960D+01  0.4679413484D+00
      0.3163926960D+01  0.3623119853D+00
 SP   3 1.00       0.000000000000
      0.7868272350D+01 -0.1193324198D+00  0.6899906659D-01
      0.1881288540D+01 -0.1608541517D+00  0.3164239610D+00
      0.5442492580D+00  0.1143456438D+01  0.7443082909D+00
 SP   1 1.00       0.000000000000
      0.1687144782D+00  0.1000000000D+01  0.1000000000D+01
 D   1 1.00       0.000000000000
      0.8000000000D+00  0.1000000000D+01
 ****
      6 0
 S   6 1.00       0.000000000000
      0.3047524880D+04  0.1834737132D-02
      0.4573695180D+03  0.1403732281D-01
      0.1039486850D+03  0.6884262226D-01
      0.2921015530D+02  0.2321844432D+00
      0.9286662960D+01  0.4679413484D+00
      0.3163926960D+01  0.3623119853D+00
 SP   3 1.00       0.000000000000
      0.7868272350D+01 -0.1193324198D+00  0.6899906659D-01
      0.1881288540D+01 -0.1608541517D+00  0.3164239610D+00
      0.5442492580D+00  0.1143456438D+01  0.7443082909D+00
 SP   1 1.00       0.000000000000
      0.1687144782D+00  0.1000000000D+01  0.1000000000D+01
 D   1 1.00       0.000000000000
      0.8000000000D+00  0.1000000000D+01
 ****
      7 0
 S   3 1.00       0.000000000000
      0.1873113696D+02  0.3349460434D-01
      0.2825394365D+01  0.2347269535D+00
      0.6401216923D+00  0.8137573261D+00
 S   1 1.00       0.000000000000
      0.1612777588D+00  0.1000000000D+01
 ****
      8 0
 S   6 1.00       0.000000000000
      0.3047524880D+04  0.1834737132D-02
      0.4573695180D+03  0.1403732281D-01
      0.1039486850D+03  0.6884262226D-01
      0.2921015530D+02  0.2321844432D+00
      0.9286662960D+01  0.4679413484D+00
      0.3163926960D+01  0.3623119853D+00
 SP   3 1.00       0.000000000000
      0.7868272350D+01 -0.1193324198D+00  0.6899906659D-01
      0.1881288540D+01 -0.1608541517D+00  0.3164239610D+00
      0.5442492580D+00  0.1143456438D+01  0.7443082909D+00
 SP   1 1.00       0.000000000000
      0.1687144782D+00  0.1000000000D+01  0.1000000000D+01
 D   1 1.00       0.000000000000
      0.8000000000D+00  0.1000000000D+01
 ****
      9 0
 S   3 1.00       0.000000000000
      0.1873113696D+02  0.3349460434D-01
      0.2825394365D+01  0.2347269535D+00
      0.6401216923D+00  0.8137573261D+00
 S   1 1.00       0.000000000000
      0.1612777588D+00  0.1000000000D+01
 ****
     10 0
 S   6 1.00       0.000000000000
      0.3047524880D+04  0.1834737132D-02
      0.4573695180D+03  0.1403732281D-01
      0.1039486850D+03  0.6884262226D-01
      0.2921015530D+02  0.2321844432D+00
      0.9286662960D+01  0.4679413484D+00
      0.3163926960D+01  0.3623119853D+00
 SP   3 1.00       0.000000000000
      0.7868272350D+01 -0.1193324198D+00  0.6899906659D-01
      0.1881288540D+01 -0.1608541517D+00  0.3164239610D+00
      0.5442492580D+00  0.1143456438D+01  0.7443082909D+00
 SP   1 1.00       0.000000000000
      0.1687144782D+00  0.1000000000D+01  0.1000000000D+01
 D   1 1.00       0.000000000000
      0.8000000000D+00  0.1000000000D+01
 ****
     11 0
 S   3 1.00       0.000000000000
      0.1873113696D+02  0.3349460434D-01
      0.2825394365D+01  0.2347269535D+00
      0.6401216923D+00  0.8137573261D+00
 S   1 1.00       0.000000000000
      0.1612777588D+00  0.1000000000D+01
 ****
     12 0
 S   6 1.00       0.000000000000
      0.3047524880D+04  0.1834737132D-02
      0.4573695180D+03  0.1403732281D-01
      0.1039486850D+03  0.6884262226D-01
      0.2921015530D+02  0.2321844432D+00
      0.9286662960D+01  0.4679413484D+00
      0.3163926960D+01  0.3623119853D+00
 SP   3 1.00       0.000000000000
      0.7868272350D+01 -0.1193324198D+00  0.6899906659D-01
      0.1881288540D+01 -0.1608541517D+00  0.3164239610D+00
      0.5442492580D+00  0.1143456438D+01  0.7443082909D+00
 SP   1 1.00       0.000000000000
      0.1687144782D+00  0.1000000000D+01  0.1000000000D+01
 D   1 1.00       0.000000000000
      0.8000000000D+00  0.1000000000D+01
 ****
     13 0
 S   3 1.00       0.000000000000
      0.1873113696D+02  0.3349460434D-01
      0.2825394365D+01  0.2347269535D+00
      0.6401216923D+00  0.8137573261D+00
 S   1 1.00       0.000000000000
      0.1612777588D+00  0.1000000000D+01
 ****
     14 0
 S   6 1.00       0.000000000000
      0.3047524880D+04  0.1834737132D-02
      0.4573695180D+03  0.1403732281D-01
      0.1039486850D+03  0.6884262226D-01
      0.2921015530D+02  0.2321844432D+00
      0.9286662960D+01  0.4679413484D+00
      0.3163926960D+01  0.3623119853D+00
 SP   3 1.00       0.000000000000
      0.7868272350D+01 -0.1193324198D+00  0.6899906659D-01
      0.1881288540D+01 -0.1608541517D+00  0.3164239610D+00
      0.5442492580D+00  0.1143456438D+01  0.7443082909D+00
 SP   1 1.00       0.000000000000
      0.1687144782D+00  0.1000000000D+01  0.1000000000D+01
 D   1 1.00       0.000000000000
      0.8000000000D+00  0.1000000000D+01
 ****
     15 0
 S   3 1.00       0.000000000000
      0.1873113696D+02  0.3349460434D-01
      0.2825394365D+01  0.2347269535D+00
      0.6401216923D+00  0.8137573261D+00
 S   1 1.00       0.000000000000
      0.1612777588D+00  0.1000000000D+01
 ****
     16 0
 S   3 1.00       0.000000000000
      0.1873113696D+02  0.3349460434D-01
      0.2825394365D+01  0.2347269535D+00
      0.6401216923D+00  0.8137573261D+00
 S   1 1.00       0.000000000000
      0.1612777588D+00  0.1000000000D+01
 ****
     17 0
 S   6 1.00       0.000000000000
      0.3047524880D+04  0.1834737132D-02
      0.4573695180D+03  0.1403732281D-01
      0.1039486850D+03  0.6884262226D-01
      0.2921015530D+02  0.2321844432D+00
      0.9286662960D+01  0.4679413484D+00
      0.3163926960D+01  0.3623119853D+00
 SP   3 1.00       0.000000000000
      0.7868272350D+01 -0.1193324198D+00  0.6899906659D-01
      0.1881288540D+01 -0.1608541517D+00  0.3164239610D+00
      0.5442492580D+00  0.1143456438D+01  0.7443082909D+00
 SP   1 1.00       0.000000000000
      0.1687144782D+00  0.1000000000D+01  0.1000000000D+01
 D   1 1.00       0.000000000000
      0.8000000000D+00  0.1000000000D+01
 ****
     18 0
 S   6 1.00       0.000000000000
      0.3047524880D+04  0.1834737132D-02
      0.4573695180D+03  0.1403732281D-01
      0.1039486850D+03  0.6884262226D-01
      0.2921015530D+02  0.2321844432D+00
      0.9286662960D+01  0.4679413484D+00
      0.3163926960D+01  0.3623119853D+00
 SP   3 1.00       0.000000000000
      0.7868272350D+01 -0.1193324198D+00  0.6899906659D-01
      0.1881288540D+01 -0.1608541517D+00  0.3164239610D+00
      0.5442492580D+00  0.1143456438D+01  0.7443082909D+00
 SP   1 1.00       0.000000000000
      0.1687144782D+00  0.1000000000D+01  0.1000000000D+01
 D   1 1.00       0.000000000000
      0.8000000000D+00  0.1000000000D+01
 ****
     19 0
 S   3 1.00       0.000000000000
      0.1873113696D+02  0.3349460434D-01
      0.2825394365D+01  0.2347269535D+00
      0.6401216923D+00  0.8137573261D+00
 S   1 1.00       0.000000000000
      0.1612777588D+00  0.1000000000D+01
 ****
     20 0
 S   3 1.00       0.000000000000
      0.1873113696D+02  0.3349460434D-01
      0.2825394365D+01  0.2347269535D+00
      0.6401216923D+00  0.8137573261D+00
 S   1 1.00       0.000000000000
      0.1612777588D+00  0.1000000000D+01
 ****
     21 0
 S   6 1.00       0.000000000000
      0.3047524880D+04  0.1834737132D-02
      0.4573695180D+03  0.1403732281D-01
      0.1039486850D+03  0.6884262226D-01
      0.2921015530D+02  0.2321844432D+00
      0.9286662960D+01  0.4679413484D+00
      0.3163926960D+01  0.3623119853D+00
 SP   3 1.00       0.000000000000
      0.7868272350D+01 -0.1193324198D+00  0.6899906659D-01
      0.1881288540D+01 -0.1608541517D+00  0.3164239610D+00
      0.5442492580D+00  0.1143456438D+01  0.7443082909D+00
 SP   1 1.00       0.000000000000
      0.1687144782D+00  0.1000000000D+01  0.1000000000D+01
 D   1 1.00       0.000000000000
      0.8000000000D+00  0.1000000000D+01
 ****
     22 0
 S   3 1.00       0.000000000000
      0.1873113696D+02  0.3349460434D-01
      0.2825394365D+01  0.2347269535D+00
      0.6401216923D+00  0.8137573261D+00
 S   1 1.00       0.000000000000
      0.1612777588D+00  0.1000000000D+01
 ****
     23 0
 S   3 1.00       0.000000000000
      0.1873113696D+02  0.3349460434D-01
      0.2825394365D+01  0.2347269535D+00
      0.6401216923D+00  0.8137573261D+00
 S   1 1.00       0.000000000000
      0.1612777588D+00  0.1000000000D+01
 ****
     24 0
 S   6 1.00       0.000000000000
      0.3047524880D+04  0.1834737132D-02
      0.4573695180D+03  0.1403732281D-01
      0.1039486850D+03  0.6884262226D-01
      0.2921015530D+02  0.2321844432D+00
      0.9286662960D+01  0.4679413484D+00
      0.3163926960D+01  0.3623119853D+00
 SP   3 1.00       0.000000000000
      0.7868272350D+01 -0.1193324198D+00  0.6899906659D-01
      0.1881288540D+01 -0.1608541517D+00  0.3164239610D+00
      0.5442492580D+00  0.1143456438D+01  0.7443082909D+00
 SP   1 1.00       0.000000000000
      0.1687144782D+00  0.1000000000D+01  0.1000000000D+01
 D   1 1.00       0.000000000000
      0.8000000000D+00  0.1000000000D+01
 ****
     25 0
 S   3 1.00       0.000000000000
      0.1873113696D+02  0.3349460434D-01
      0.2825394365D+01  0.2347269535D+00
      0.6401216923D+00  0.8137573261D+00
 S   1 1.00       0.000000000000
      0.1612777588D+00  0.1000000000D+01
 ****
     26 0
 S   3 1.00       0.000000000000
      0.1873113696D+02  0.3349460434D-01
      0.2825394365D+01  0.2347269535D+00
      0.6401216923D+00  0.8137573261D+00
 S   1 1.00       0.000000000000
      0.1612777588D+00  0.1000000000D+01
 ****
     27 0
 S   6 1.00       0.000000000000
      0.3047524880D+04  0.1834737132D-02
      0.4573695180D+03  0.1403732281D-01
      0.1039486850D+03  0.6884262226D-01
      0.2921015530D+02  0.2321844432D+00
      0.9286662960D+01  0.4679413484D+00
      0.3163926960D+01  0.3623119853D+00
 SP   3 1.00       0.000000000000
      0.7868272350D+01 -0.1193324198D+00  0.6899906659D-01
      0.1881288540D+01 -0.1608541517D+00  0.3164239610D+00
      0.5442492580D+00  0.1143456438D+01  0.7443082909D+00
 SP   1 1.00       0.000000000000
      0.1687144782D+00  0.1000000000D+01  0.1000000000D+01
 D   1 1.00       0.000000000000
      0.8000000000D+00  0.1000000000D+01
 ****
     28 0
 S   3 1.00       0.000000000000
      0.1873113696D+02  0.3349460434D-01
      0.2825394365D+01  0.2347269535D+00
      0.6401216923D+00  0.8137573261D+00
 S   1 1.00       0.000000000000
      0.1612777588D+00  0.1000000000D+01
 ****
     29 0
 S   6 1.00       0.000000000000
      0.3047524880D+04  0.1834737132D-02
      0.4573695180D+03  0.1403732281D-01
      0.1039486850D+03  0.6884262226D-01
      0.2921015530D+02  0.2321844432D+00
      0.9286662960D+01  0.4679413484D+00
      0.3163926960D+01  0.3623119853D+00
 SP   3 1.00       0.000000000000
      0.7868272350D+01 -0.1193324198D+00  0.6899906659D-01
      0.1881288540D+01 -0.1608541517D+00  0.3164239610D+00
      0.5442492580D+00  0.1143456438D+01  0.7443082909D+00
 SP   1 1.00       0.000000000000
      0.1687144782D+00  0.1000000000D+01  0.1000000000D+01
 D   1 1.00       0.000000000000
      0.8000000000D+00  0.1000000000D+01
 ****
     30 0
 S   3 1.00       0.000000000000
      0.1873113696D+02  0.3349460434D-01
      0.2825394365D+01  0.2347269535D+00
      0.6401216923D+00  0.8137573261D+00
 S   1 1.00       0.000000000000
      0.1612777588D+00  0.1000000000D+01
 ****
     31 0
 S   6 1.00       0.000000000000
      0.3047524880D+04  0.1834737132D-02
      0.4573695180D+03  0.1403732281D-01
      0.1039486850D+03  0.6884262226D-01
      0.2921015530D+02  0.2321844432D+00
      0.9286662960D+01  0.4679413484D+00
      0.3163926960D+01  0.3623119853D+00
 SP   3 1.00       0.000000000000
      0.7868272350D+01 -0.1193324198D+00  0.6899906659D-01
      0.1881288540D+01 -0.1608541517D+00  0.3164239610D+00
      0.5442492580D+00  0.1143456438D+01  0.7443082909D+00
 SP   1 1.00       0.000000000000
      0.1687144782D+00  0.1000000000D+01  0.1000000000D+01
 D   1 1.00       0.000000000000
      0.8000000000D+00  0.1000000000D+01
 ****
     32 0
 S   3 1.00       0.000000000000
      0.1873113696D+02  0.3349460434D-01
      0.2825394365D+01  0.2347269535D+00
      0.6401216923D+00  0.8137573261D+00
 S   1 1.00       0.000000000000
      0.1612777588D+00  0.1000000000D+01
 ****
     33 0
 S   3 1.00       0.000000000000
      0.1873113696D+02  0.3349460434D-01
      0.2825394365D+01  0.2347269535D+00
      0.6401216923D+00  0.8137573261D+00
 S   1 1.00       0.000000000000
      0.1612777588D+00  0.1000000000D+01
 ****
     34 0
 S   3 1.00       0.000000000000
      0.1873113696D+02  0.3349460434D-01
      0.2825394365D+01  0.2347269535D+00
      0.6401216923D+00  0.8137573261D+00
 S   1 1.00       0.000000000000
      0.1612777588D+00  0.1000000000D+01
 ****
     35 0
 S   6 1.00       0.000000000000
      0.3047524880D+04  0.1834737132D-02
      0.4573695180D+03  0.1403732281D-01
      0.1039486850D+03  0.6884262226D-01
      0.2921015530D+02  0.2321844432D+00
      0.9286662960D+01  0.4679413484D+00
      0.3163926960D+01  0.3623119853D+00
 SP   3 1.00       0.000000000000
      0.7868272350D+01 -0.1193324198D+00  0.6899906659D-01
      0.1881288540D+01 -0.1608541517D+00  0.3164239610D+00
      0.5442492580D+00  0.1143456438D+01  0.7443082909D+00
 SP   1 1.00       0.000000000000
      0.1687144782D+00  0.1000000000D+01  0.1000000000D+01
 D   1 1.00       0.000000000000
      0.8000000000D+00  0.1000000000D+01
 ****
     36 0
 S   6 1.00       0.000000000000
      0.3047524880D+04  0.1834737132D-02
      0.4573695180D+03  0.1403732281D-01
      0.1039486850D+03  0.6884262226D-01
      0.2921015530D+02  0.2321844432D+00
      0.9286662960D+01  0.4679413484D+00
      0.3163926960D+01  0.3623119853D+00
 SP   3 1.00       0.000000000000
      0.7868272350D+01 -0.1193324198D+00  0.6899906659D-01
      0.1881288540D+01 -0.1608541517D+00  0.3164239610D+00
      0.5442492580D+00  0.1143456438D+01  0.7443082909D+00
 SP   1 1.00       0.000000000000
      0.1687144782D+00  0.1000000000D+01  0.1000000000D+01
 D   1 1.00       0.000000000000
      0.8000000000D+00  0.1000000000D+01
 ****
     37 0
 S   3 1.00       0.000000000000
      0.1873113696D+02  0.3349460434D-01
      0.2825394365D+01  0.2347269535D+00
      0.6401216923D+00  0.8137573261D+00
 S   1 1.00       0.000000000000
      0.1612777588D+00  0.1000000000D+01
 ****
     38 0
 S   3 1.00       0.000000000000
      0.1873113696D+02  0.3349460434D-01
      0.2825394365D+01  0.2347269535D+00
      0.6401216923D+00  0.8137573261D+00
 S   1 1.00       0.000000000000
      0.1612777588D+00  0.1000000000D+01
 ****
     39 0
 S   6 1.00       0.000000000000
      0.3047524880D+04  0.1834737132D-02
      0.4573695180D+03  0.1403732281D-01
      0.1039486850D+03  0.6884262226D-01
      0.2921015530D+02  0.2321844432D+00
      0.9286662960D+01  0.4679413484D+00
      0.3163926960D+01  0.3623119853D+00
 SP   3 1.00       0.000000000000
      0.7868272350D+01 -0.1193324198D+00  0.6899906659D-01
      0.1881288540D+01 -0.1608541517D+00  0.3164239610D+00
      0.5442492580D+00  0.1143456438D+01  0.7443082909D+00
 SP   1 1.00       0.000000000000
      0.1687144782D+00  0.1000000000D+01  0.1000000000D+01
 D   1 1.00       0.000000000000
      0.8000000000D+00  0.1000000000D+01
 ****
     40 0
 S   3 1.00       0.000000000000
      0.1873113696D+02  0.3349460434D-01
      0.2825394365D+01  0.2347269535D+00
      0.6401216923D+00  0.8137573261D+00
 S   1 1.00       0.000000000000
      0.1612777588D+00  0.1000000000D+01
 ****
     41 0
 S   6 1.00       0.000000000000
      0.3047524880D+04  0.1834737132D-02
      0.4573695180D+03  0.1403732281D-01
      0.1039486850D+03  0.6884262226D-01
      0.2921015530D+02  0.2321844432D+00
      0.9286662960D+01  0.4679413484D+00
      0.3163926960D+01  0.3623119853D+00
 SP   3 1.00       0.000000000000
      0.7868272350D+01 -0.1193324198D+00  0.6899906659D-01
      0.1881288540D+01 -0.1608541517D+00  0.3164239610D+00
      0.5442492580D+00  0.1143456438D+01  0.7443082909D+00
 SP   1 1.00       0.000000000000
      0.1687144782D+00  0.1000000000D+01  0.1000000000D+01
 D   1 1.00       0.000000000000
      0.8000000000D+00  0.1000000000D+01
 ****
     42 0
 S   3 1.00       0.000000000000
      0.1873113696D+02  0.3349460434D-01
      0.2825394365D+01  0.2347269535D+00
      0.6401216923D+00  0.8137573261D+00
 S   1 1.00       0.000000000000
      0.1612777588D+00  0.1000000000D+01
 ****
     43 0
 S   3 1.00       0.000000000000
      0.1873113696D+02  0.3349460434D-01
      0.2825394365D+01  0.2347269535D+00
      0.6401216923D+00  0.8137573261D+00
 S   1 1.00       0.000000000000
      0.1612777588D+00  0.1000000000D+01
 ****
     44 0
 S   3 1.00       0.000000000000
      0.1873113696D+02  0.3349460434D-01
      0.2825394365D+01  0.2347269535D+00
      0.6401216923D+00  0.8137573261D+00
 S   1 1.00       0.000000000000
      0.1612777588D+00  0.1000000000D+01
 ****
     45 0
 S   6 1.00       0.000000000000
      0.3047524880D+04  0.1834737132D-02
      0.4573695180D+03  0.1403732281D-01
      0.1039486850D+03  0.6884262226D-01
      0.2921015530D+02  0.2321844432D+00
      0.9286662960D+01  0.4679413484D+00
      0.3163926960D+01  0.3623119853D+00
 SP   3 1.00       0.000000000000
      0.7868272350D+01 -0.1193324198D+00  0.6899906659D-01
      0.1881288540D+01 -0.1608541517D+00  0.3164239610D+00
      0.5442492580D+00  0.1143456438D+01  0.7443082909D+00
 SP   1 1.00       0.000000000000
      0.1687144782D+00  0.1000000000D+01  0.1000000000D+01
 D   1 1.00       0.000000000000
      0.8000000000D+00  0.1000000000D+01
 ****
     46 0
 S   3 1.00       0.000000000000
      0.1873113696D+02  0.3349460434D-01
      0.2825394365D+01  0.2347269535D+00
      0.6401216923D+00  0.8137573261D+00
 S   1 1.00       0.000000000000
      0.1612777588D+00  0.1000000000D+01
 ****
     47 0
 S   3 1.00       0.000000000000
      0.1873113696D+02  0.3349460434D-01
      0.2825394365D+01  0.2347269535D+00
      0.6401216923D+00  0.8137573261D+00
 S   1 1.00       0.000000000000
      0.1612777588D+00  0.1000000000D+01
 ****
     48 0
 S   6 1.00       0.000000000000
      0.3047524880D+04  0.1834737132D-02
      0.4573695180D+03  0.1403732281D-01
      0.1039486850D+03  0.6884262226D-01
      0.2921015530D+02  0.2321844432D+00
      0.9286662960D+01  0.4679413484D+00
      0.3163926960D+01  0.3623119853D+00
 SP   3 1.00       0.000000000000
      0.7868272350D+01 -0.1193324198D+00  0.6899906659D-01
      0.1881288540D+01 -0.1608541517D+00  0.3164239610D+00
      0.5442492580D+00  0.1143456438D+01  0.7443082909D+00
 SP   1 1.00       0.000000000000
      0.1687144782D+00  0.1000000000D+01  0.1000000000D+01
 D   1 1.00       0.000000000000
      0.8000000000D+00  0.1000000000D+01
 ****
     49 0
 S   3 1.00       0.000000000000
      0.1873113696D+02  0.3349460434D-01
      0.2825394365D+01  0.2347269535D+00
      0.6401216923D+00  0.8137573261D+00
 S   1 1.00       0.000000000000
      0.1612777588D+00  0.1000000000D+01
 ****
     50 0
 S   3 1.00       0.000000000000
      0.1873113696D+02  0.3349460434D-01
      0.2825394365D+01  0.2347269535D+00
      0.6401216923D+00  0.8137573261D+00
 S   1 1.00       0.000000000000
      0.1612777588D+00  0.1000000000D+01
 ****
     51 0
 S   6 1.00       0.000000000000
      0.3047524880D+04  0.1834737132D-02
      0.4573695180D+03  0.1403732281D-01
      0.1039486850D+03  0.6884262226D-01
      0.2921015530D+02  0.2321844432D+00
      0.9286662960D+01  0.4679413484D+00
      0.3163926960D+01  0.3623119853D+00
 SP   3 1.00       0.000000000000
      0.7868272350D+01 -0.1193324198D+00  0.6899906659D-01
      0.1881288540D+01 -0.1608541517D+00  0.3164239610D+00
      0.5442492580D+00  0.1143456438D+01  0.7443082909D+00
 SP   1 1.00       0.000000000000
      0.1687144782D+00  0.1000000000D+01  0.1000000000D+01
 D   1 1.00       0.000000000000
      0.8000000000D+00  0.1000000000D+01
 ****
     52 0
 S   3 1.00       0.000000000000
      0.1873113696D+02  0.3349460434D-01
      0.2825394365D+01  0.2347269535D+00
      0.6401216923D+00  0.8137573261D+00
 S   1 1.00       0.000000000000
      0.1612777588D+00  0.1000000000D+01
 ****
     53 0
 S   3 1.00       0.000000000000
      0.1873113696D+02  0.3349460434D-01
      0.2825394365D+01  0.2347269535D+00
      0.6401216923D+00  0.8137573261D+00
 S   1 1.00       0.000000000000
      0.1612777588D+00  0.1000000000D+01
 ****
     54 0
 S   6 1.00       0.000000000000
      0.3047524880D+04  0.1834737132D-02
      0.4573695180D+03  0.1403732281D-01
      0.1039486850D+03  0.6884262226D-01
      0.2921015530D+02  0.2321844432D+00
      0.9286662960D+01  0.4679413484D+00
      0.3163926960D+01  0.3623119853D+00
 SP   3 1.00       0.000000000000
      0.7868272350D+01 -0.1193324198D+00  0.6899906659D-01
      0.1881288540D+01 -0.1608541517D+00  0.3164239610D+00
      0.5442492580D+00  0.1143456438D+01  0.7443082909D+00
 SP   1 1.00       0.000000000000
      0.1687144782D+00  0.1000000000D+01  0.1000000000D+01
 D   1 1.00       0.000000000000
      0.8000000000D+00  0.1000000000D+01
 ****
     55 0
 S   3 1.00       0.000000000000
      0.1873113696D+02  0.3349460434D-01
      0.2825394365D+01  0.2347269535D+00
      0.6401216923D+00  0.8137573261D+00
 S   1 1.00       0.000000000000
      0.1612777588D+00  0.1000000000D+01
 ****
     56 0
 S   6 1.00       0.000000000000
      0.3047524880D+04  0.1834737132D-02
      0.4573695180D+03  0.1403732281D-01
      0.1039486850D+03  0.6884262226D-01
      0.2921015530D+02  0.2321844432D+00
      0.9286662960D+01  0.4679413484D+00
      0.3163926960D+01  0.3623119853D+00
 SP   3 1.00       0.000000000000
      0.7868272350D+01 -0.1193324198D+00  0.6899906659D-01
      0.1881288540D+01 -0.1608541517D+00  0.3164239610D+00
      0.5442492580D+00  0.1143456438D+01  0.7443082909D+00
 SP   1 1.00       0.000000000000
      0.1687144782D+00  0.1000000000D+01  0.1000000000D+01
 D   1 1.00       0.000000000000
      0.8000000000D+00  0.1000000000D+01
 ****
     57 0
 S   3 1.00       0.000000000000
      0.1873113696D+02  0.3349460434D-01
      0.2825394365D+01  0.2347269535D+00
      0.6401216923D+00  0.8137573261D+00
 S   1 1.00       0.000000000000
      0.1612777588D+00  0.1000000000D+01
 ****
     58 0
 S   3 1.00       0.000000000000
      0.1873113696D+02  0.3349460434D-01
      0.2825394365D+01  0.2347269535D+00
      0.6401216923D+00  0.8137573261D+00
 S   1 1.00       0.000000000000
      0.1612777588D+00  0.1000000000D+01
 ****
     59 0
 S   3 1.00       0.000000000000
      0.1873113696D+02  0.3349460434D-01
      0.2825394365D+01  0.2347269535D+00
      0.6401216923D+00  0.8137573261D+00
 S   1 1.00       0.000000000000
      0.1612777588D+00  0.1000000000D+01
 ****
     60 0
 S   6 1.00       0.000000000000
      0.3047524880D+04  0.1834737132D-02
      0.4573695180D+03  0.1403732281D-01
      0.1039486850D+03  0.6884262226D-01
      0.2921015530D+02  0.2321844432D+00
      0.9286662960D+01  0.4679413484D+00
      0.3163926960D+01  0.3623119853D+00
 SP   3 1.00       0.000000000000
      0.7868272350D+01 -0.1193324198D+00  0.6899906659D-01
      0.1881288540D+01 -0.1608541517D+00  0.3164239610D+00
      0.5442492580D+00  0.1143456438D+01  0.7443082909D+00
 SP   1 1.00       0.000000000000
      0.1687144782D+00  0.1000000000D+01  0.1000000000D+01
 D   1 1.00       0.000000000000
      0.8000000000D+00  0.1000000000D+01
 ****
     61 0
 S   3 1.00       0.000000000000
      0.1873113696D+02  0.3349460434D-01
      0.2825394365D+01  0.2347269535D+00
      0.6401216923D+00  0.8137573261D+00
 S   1 1.00       0.000000000000
      0.1612777588D+00  0.1000000000D+01
 ****
     62 0
 S   3 1.00       0.000000000000
      0.1873113696D+02  0.3349460434D-01
      0.2825394365D+01  0.2347269535D+00
      0.6401216923D+00  0.8137573261D+00
 S   1 1.00       0.000000000000
      0.1612777588D+00  0.1000000000D+01
 ****
     63 0
 S   6 1.00       0.000000000000
      0.3047524880D+04  0.1834737132D-02
      0.4573695180D+03  0.1403732281D-01
      0.1039486850D+03  0.6884262226D-01
      0.2921015530D+02  0.2321844432D+00
      0.9286662960D+01  0.4679413484D+00
      0.3163926960D+01  0.3623119853D+00
 SP   3 1.00       0.000000000000
      0.7868272350D+01 -0.1193324198D+00  0.6899906659D-01
      0.1881288540D+01 -0.1608541517D+00  0.3164239610D+00
      0.5442492580D+00  0.1143456438D+01  0.7443082909D+00
 SP   1 1.00       0.000000000000
      0.1687144782D+00  0.1000000000D+01  0.1000000000D+01
 D   1 1.00       0.000000000000
      0.8000000000D+00  0.1000000000D+01
 ****
     64 0
 S   3 1.00       0.000000000000
      0.1873113696D+02  0.3349460434D-01
      0.2825394365D+01  0.2347269535D+00
      0.6401216923D+00  0.8137573261D+00
 S   1 1.00       0.000000000000
      0.1612777588D+00  0.1000000000D+01
 ****
     65 0
 S   3 1.00       0.000000000000
      0.1873113696D+02  0.3349460434D-01
      0.2825394365D+01  0.2347269535D+00
      0.6401216923D+00  0.8137573261D+00
 S   1 1.00       0.000000000000
      0.1612777588D+00  0.1000000000D+01
 ****
     66 0
 S   6 1.00       0.000000000000
      0.3047524880D+04  0.1834737132D-02
      0.4573695180D+03  0.1403732281D-01
      0.1039486850D+03  0.6884262226D-01
      0.2921015530D+02  0.2321844432D+00
      0.9286662960D+01  0.4679413484D+00
      0.3163926960D+01  0.3623119853D+00
 SP   3 1.00       0.000000000000
      0.7868272350D+01 -0.1193324198D+00  0.6899906659D-01
      0.1881288540D+01 -0.1608541517D+00  0.3164239610D+00
      0.5442492580D+00  0.1143456438D+01  0.7443082909D+00
 SP   1 1.00       0.000000000000
      0.1687144782D+00  0.1000000000D+01  0.1000000000D+01
 D   1 1.00       0.000000000000
      0.8000000000D+00  0.1000000000D+01
 ****
     67 0
 S   3 1.00       0.000000000000
      0.1873113696D+02  0.3349460434D-01
      0.2825394365D+01  0.2347269535D+00
      0.6401216923D+00  0.8137573261D+00
 S   1 1.00       0.000000000000
      0.1612777588D+00  0.1000000000D+01
 ****
     68 0
 S   6 1.00       0.000000000000
      0.3047524880D+04  0.1834737132D-02
      0.4573695180D+03  0.1403732281D-01
      0.1039486850D+03  0.6884262226D-01
      0.2921015530D+02  0.2321844432D+00
      0.9286662960D+01  0.4679413484D+00
      0.3163926960D+01  0.3623119853D+00
 SP   3 1.00       0.000000000000
      0.7868272350D+01 -0.1193324198D+00  0.6899906659D-01
      0.1881288540D+01 -0.1608541517D+00  0.3164239610D+00
      0.5442492580D+00  0.1143456438D+01  0.7443082909D+00
 SP   1 1.00       0.000000000000
      0.1687144782D+00  0.1000000000D+01  0.1000000000D+01
 D   1 1.00       0.000000000000
      0.8000000000D+00  0.1000000000D+01
 ****
     69 0
 S   3 1.00       0.000000000000
      0.1873113696D+02  0.3349460434D-01
      0.2825394365D+01  0.2347269535D+00
      0.6401216923D+00  0.8137573261D+00
 S   1 1.00       0.000000000000
      0.1612777588D+00  0.1000000000D+01
 ****
     70 0
 S   3 1.00       0.000000000000
      0.1873113696D+02  0.3349460434D-01
      0.2825394365D+01  0.2347269535D+00
      0.6401216923D+00  0.8137573261D+00
 S   1 1.00       0.000000000000
      0.1612777588D+00  0.1000000000D+01
 ****
     71 0
 S   3 1.00       0.000000000000
      0.1873113696D+02  0.3349460434D-01
      0.2825394365D+01  0.2347269535D+00
      0.6401216923D+00  0.8137573261D+00
 S   1 1.00       0.000000000000
      0.1612777588D+00  0.1000000000D+01
 ****
     72 0
 S   6 1.00       0.000000000000
      0.3047524880D+04  0.1834737132D-02
      0.4573695180D+03  0.1403732281D-01
      0.1039486850D+03  0.6884262226D-01
      0.2921015530D+02  0.2321844432D+00
      0.9286662960D+01  0.4679413484D+00
      0.3163926960D+01  0.3623119853D+00
 SP   3 1.00       0.000000000000
      0.7868272350D+01 -0.1193324198D+00  0.6899906659D-01
      0.1881288540D+01 -0.1608541517D+00  0.3164239610D+00
      0.5442492580D+00  0.1143456438D+01  0.7443082909D+00
 SP   1 1.00       0.000000000000
      0.1687144782D+00  0.1000000000D+01  0.1000000000D+01
 D   1 1.00       0.000000000000
      0.8000000000D+00  0.1000000000D+01
 ****
     73 0
 S   3 1.00       0.000000000000
      0.1873113696D+02  0.3349460434D-01
      0.2825394365D+01  0.2347269535D+00
      0.6401216923D+00  0.8137573261D+00
 S   1 1.00       0.000000000000
      0.1612777588D+00  0.1000000000D+01
 ****
     74 0
 S   3 1.00       0.000000000000
      0.1873113696D+02  0.3349460434D-01
      0.2825394365D+01  0.2347269535D+00
      0.6401216923D+00  0.8137573261D+00
 S   1 1.00       0.000000000000
      0.1612777588D+00  0.1000000000D+01
 ****
     75 0
 S   3 1.00       0.000000000000
      0.1873113696D+02  0.3349460434D-01
      0.2825394365D+01  0.2347269535D+00
      0.6401216923D+00  0.8137573261D+00
 S   1 1.00       0.000000000000
      0.1612777588D+00  0.1000000000D+01
 ****

 AO basis set (Overlap normalization):
 Atom O1       Shell     1 S   6     bf    1 -     1         10.862974910270          6.559998566925          0.000000000000
      0.5484671660D+04  0.1831074430D-02
      0.8252349460D+03  0.1395017220D-01
      0.1880469580D+03  0.6844507810D-01
      0.5296450000D+02  0.2327143360D+00
      0.1689757040D+02  0.4701928980D+00
      0.5799635340D+01  0.3585208530D+00
 Atom O1       Shell     2 SP   3    bf    2 -     5         10.862974910270          6.559998566925          0.000000000000
      0.1553961625D+02 -0.1107775495D+00  0.7087426823D-01
      0.3599933586D+01 -0.1480262627D+00  0.3397528391D+00
      0.1013761750D+01  0.1130767015D+01  0.7271585773D+00
 Atom O1       Shell     3 SP   1    bf    6 -     9         10.862974910270          6.559998566925          0.000000000000
      0.2700058226D+00  0.1000000000D+01  0.1000000000D+01
 Atom O1       Shell     4 D   1     bf   10 -    15         10.862974910270          6.559998566925          0.000000000000
      0.8000000000D+00  0.1000000000D+01
 Atom H2       Shell     5 S   3     bf   16 -    16          9.662702185577          6.252912665715          1.342075033602
      0.1873113696D+02  0.3349460434D-01
      0.2825394365D+01  0.2347269535D+00
      0.6401216923D+00  0.8137573261D+00
 Atom H2       Shell     6 S   1     bf   17 -    17          9.662702185577          6.252912665715          1.342075033602
      0.1612777588D+00  0.1000000000D+01
 Atom O3       Shell     7 S   6     bf   18 -    18          0.000000000000          0.000000000000          0.000000000000
      0.5484671660D+04  0.1831074430D-02
      0.8252349460D+03  0.1395017220D-01
      0.1880469580D+03  0.6844507810D-01
      0.5296450000D+02  0.2327143360D+00
      0.1689757040D+02  0.4701928980D+00
      0.5799635340D+01  0.3585208530D+00
 Atom O3       Shell     8 SP   3    bf   19 -    22          0.000000000000          0.000000000000          0.000000000000
      0.1553961625D+02 -0.1107775495D+00  0.7087426823D-01
      0.3599933586D+01 -0.1480262627D+00  0.3397528391D+00
      0.1013761750D+01  0.1130767015D+01  0.7271585773D+00
 Atom O3       Shell     9 SP   1    bf   23 -    26          0.000000000000          0.000000000000          0.000000000000
      0.2700058226D+00  0.1000000000D+01  0.1000000000D+01
 Atom O3       Shell    10 D   1     bf   27 -    32          0.000000000000          0.000000000000          0.000000000000
      0.8000000000D+00  0.1000000000D+01
 Atom H4       Shell    11 S   3     bf   33 -    33         -0.153624794644         -1.403068760233         -1.162288152279
      0.1873113696D+02  0.3349460434D-01
      0.2825394365D+01  0.2347269535D+00
      0.6401216923D+00  0.8137573261D+00
 Atom H4       Shell    12 S   1     bf   34 -    34         -0.153624794644         -1.403068760233         -1.162288152279
      0.1612777588D+00  0.1000000000D+01
 Atom C5       Shell    13 S   6     bf   35 -    35         16.659717532980          0.769618330852          0.673153575433
      0.3047524880D+04  0.1834737132D-02
      0.4573695180D+03  0.1403732281D-01
      0.1039486850D+03  0.6884262226D-01
      0.2921015530D+02  0.2321844432D+00
      0.9286662960D+01  0.4679413484D+00
      0.3163926960D+01  0.3623119853D+00
 Atom C5       Shell    14 SP   3    bf   36 -    39         16.659717532980          0.769618330852          0.673153575433
      0.7868272350D+01 -0.1193324198D+00  0.6899906659D-01
      0.1881288540D+01 -0.1608541517D+00  0.3164239610D+00
      0.5442492580D+00  0.1143456438D+01  0.7443082909D+00
 Atom C5       Shell    15 SP   1    bf   40 -    43         16.659717532980          0.769618330852          0.673153575433
      0.1687144782D+00  0.1000000000D+01  0.1000000000D+01
 Atom C5       Shell    16 D   1     bf   44 -    49         16.659717532980          0.769618330852          0.673153575433
      0.8000000000D+00  0.1000000000D+01
 Atom C6       Shell    17 S   6     bf   50 -    50         14.906756455023          2.986296961297         -0.125456102270
      0.3047524880D+04  0.1834737132D-02
      0.4573695180D+03  0.1403732281D-01
      0.1039486850D+03  0.6884262226D-01
      0.2921015530D+02  0.2321844432D+00
      0.9286662960D+01  0.4679413484D+00
      0.3163926960D+01  0.3623119853D+00
 Atom C6       Shell    18 SP   3    bf   51 -    54         14.906756455023          2.986296961297         -0.125456102270
      0.7868272350D+01 -0.1193324198D+00  0.6899906659D-01
      0.1881288540D+01 -0.1608541517D+00  0.3164239610D+00
      0.5442492580D+00  0.1143456438D+01  0.7443082909D+00
 Atom C6       Shell    19 SP   1    bf   55 -    58         14.906756455023          2.986296961297         -0.125456102270
      0.1687144782D+00  0.1000000000D+01  0.1000000000D+01
 Atom C6       Shell    20 D   1     bf   59 -    64         14.906756455023          2.986296961297         -0.125456102270
      0.8000000000D+00  0.1000000000D+01
 Atom H7       Shell    21 S   3     bf   65 -    65         14.566445691300          4.075298945218          1.610529849293
      0.1873113696D+02  0.3349460434D-01
      0.2825394365D+01  0.2347269535D+00
      0.6401216923D+00  0.8137573261D+00
 Atom H7       Shell    22 S   1     bf   66 -    66         14.566445691300          4.075298945218          1.610529849293
      0.1612777588D+00  0.1000000000D+01
 Atom C8       Shell    23 S   6     bf   67 -    67         12.289958816119          2.195771777655         -1.086916614441
      0.3047524880D+04  0.1834737132D-02
      0.4573695180D+03  0.1403732281D-01
      0.1039486850D+03  0.6884262226D-01
      0.2921015530D+02  0.2321844432D+00
      0.9286662960D+01  0.4679413484D+00
      0.3163926960D+01  0.3623119853D+00
 Atom C8       Shell    24 SP   3    bf   68 -    71         12.289958816119          2.195771777655         -1.086916614441
      0.7868272350D+01 -0.1193324198D+00  0.6899906659D-01
      0.1881288540D+01 -0.1608541517D+00  0.3164239610D+00
      0.5442492580D+00  0.1143456438D+01  0.7443082909D+00
 Atom C8       Shell    25 SP   1    bf   72 -    75         12.289958816119          2.195771777655         -1.086916614441
      0.1687144782D+00  0.1000000000D+01  0.1000000000D+01
 Atom C8       Shell    26 D   1     bf   76 -    81         12.289958816119          2.195771777655         -1.086916614441
      0.8000000000D+00  0.1000000000D+01
 Atom H9       Shell    27 S   3     bf   82 -    82         12.511255459472          1.098256180663         -2.837664634123
      0.1873113696D+02  0.3349460434D-01
      0.2825394365D+01  0.2347269535D+00
      0.6401216923D+00  0.8137573261D+00
 Atom H9       Shell    28 S   1     bf   83 -    83         12.511255459472          1.098256180663         -2.837664634123
      0.1612777588D+00  0.1000000000D+01
 Atom C10      Shell    29 S   6     bf   84 -    84         10.916548135911          0.553906054989          0.912107460724
      0.3047524880D+04  0.1834737132D-02
      0.4573695180D+03  0.1403732281D-01
      0.1039486850D+03  0.6884262226D-01
      0.2921015530D+02  0.2321844432D+00
      0.9286662960D+01  0.4679413484D+00
      0.3163926960D+01  0.3623119853D+00
 Atom C10      Shell    30 SP   3    bf   85 -    88         10.916548135911          0.553906054989          0.912107460724
      0.7868272350D+01 -0.1193324198D+00  0.6899906659D-01
      0.1881288540D+01 -0.1608541517D+00  0.3164239610D+00
      0.5442492580D+00  0.1143456438D+01  0.7443082909D+00
 Atom C10      Shell    31 SP   1    bf   89 -    92         10.916548135911          0.553906054989          0.912107460724
      0.1687144782D+00  0.1000000000D+01  0.1000000000D+01
 Atom C10      Shell    32 D   1     bf   93 -    98         10.916548135911          0.553906054989          0.912107460724
      0.8000000000D+00  0.1000000000D+01
 Atom H11      Shell    33 S   3     bf   99 -    99         10.492710456663          1.831112232860          2.503337366947
      0.1873113696D+02  0.3349460434D-01
      0.2825394365D+01  0.2347269535D+00
      0.6401216923D+00  0.8137573261D+00
 Atom H11      Shell    34 S   1     bf  100 -   100         10.492710456663          1.831112232860          2.503337366947
      0.1612777588D+00  0.1000000000D+01
 Atom C12      Shell    35 S   6     bf  101 -   101         19.078400517098          2.298817561023          1.444159532184
      0.3047524880D+04  0.1834737132D-02
      0.4573695180D+03  0.1403732281D-01
      0.1039486850D+03  0.6884262226D-01
      0.2921015530D+02  0.2321844432D+00
      0.9286662960D+01  0.4679413484D+00
      0.3163926960D+01  0.3623119853D+00
 Atom C12      Shell    36 SP   3    bf  102 -   105         19.078400517098          2.298817561023          1.444159532184
      0.7868272350D+01 -0.1193324198D+00  0.6899906659D-01
      0.1881288540D+01 -0.1608541517D+00  0.3164239610D+00
      0.5442492580D+00  0.1143456438D+01  0.7443082909D+00
 Atom C12      Shell    37 SP   1    bf  106 -   109         19.078400517098          2.298817561023          1.444159532184
      0.1687144782D+00  0.1000000000D+01  0.1000000000D+01
 Atom C12      Shell    38 D   1     bf  110 -   115         19.078400517098          2.298817561023          1.444159532184
      0.8000000000D+00  0.1000000000D+01
 Atom H13      Shell    39 S   3     bf  116 -   116         18.609590946367          3.216244468531          3.249468971995
      0.1873113696D+02  0.3349460434D-01
      0.2825394365D+01  0.2347269535D+00
      0.6401216923D+00  0.8137573261D+00
 Atom H13      Shell    40 S   1     bf  117 -   117         18.609590946367          3.216244468531          3.249468971995
      0.1612777588D+00  0.1000000000D+01
 Atom C14      Shell    41 S   6     bf  118 -   118         15.277604890697         -0.639471266916          2.817197709577
      0.3047524880D+04  0.1834737132D-02
      0.4573695180D+03  0.1403732281D-01
      0.1039486850D+03  0.6884262226D-01
      0.2921015530D+02  0.2321844432D+00
      0.9286662960D+01  0.4679413484D+00
      0.3163926960D+01  0.3623119853D+00
 Atom C14      Shell    42 SP   3    bf  119 -   122         15.277604890697         -0.639471266916          2.817197709577
      0.7868272350D+01 -0.1193324198D+00  0.6899906659D-01
      0.1881288540D+01 -0.1608541517D+00  0.3164239610D+00
      0.5442492580D+00  0.1143456438D+01  0.7443082909D+00
 Atom C14      Shell    43 SP   1    bf  123 -   126         15.277604890697         -0.639471266916          2.817197709577
      0.1687144782D+00  0.1000000000D+01  0.1000000000D+01
 Atom C14      Shell    44 D   1     bf  127 -   132         15.277604890697         -0.639471266916          2.817197709577
      0.8000000000D+00  0.1000000000D+01
 Atom H15      Shell    45 S   3     bf  133 -   133         15.089790906295          0.643065677199          4.441108218288
      0.1873113696D+02  0.3349460434D-01
      0.2825394365D+01  0.2347269535D+00
      0.6401216923D+00  0.8137573261D+00
 Atom H15      Shell    46 S   1     bf  134 -   134         15.089790906295          0.643065677199          4.441108218288
      0.1612777588D+00  0.1000000000D+01
 Atom H16      Shell    47 S   3     bf  135 -   135         16.353244262084         -2.277043172760          3.481778636894
      0.1873113696D+02  0.3349460434D-01
      0.2825394365D+01  0.2347269535D+00
      0.6401216923D+00  0.8137573261D+00
 Atom H16      Shell    48 S   1     bf  136 -   136         16.353244262084         -2.277043172760          3.481778636894
      0.1612777588D+00  0.1000000000D+01
 Atom C17      Shell    49 S   6     bf  137 -   137          8.294409110504         -0.439312854421         -0.051476820161
      0.3047524880D+04  0.1834737132D-02
      0.4573695180D+03  0.1403732281D-01
      0.1039486850D+03  0.6884262226D-01
      0.2921015530D+02  0.2321844432D+00
      0.9286662960D+01  0.4679413484D+00
      0.3163926960D+01  0.3623119853D+00
 Atom C17      Shell    50 SP   3    bf  138 -   141          8.294409110504         -0.439312854421         -0.051476820161
      0.7868272350D+01 -0.1193324198D+00  0.6899906659D-01
      0.1881288540D+01 -0.1608541517D+00  0.3164239610D+00
      0.5442492580D+00  0.1143456438D+01  0.7443082909D+00
 Atom C17      Shell    51 SP   1    bf  142 -   145          8.294409110504         -0.439312854421         -0.051476820161
      0.1687144782D+00  0.1000000000D+01  0.1000000000D+01
 Atom C17      Shell    52 D   1     bf  146 -   151          8.294409110504         -0.439312854421         -0.051476820161
      0.8000000000D+00  0.1000000000D+01
 Atom C18      Shell    53 S   6     bf  152 -   152         16.568188761117          4.663374347840         -1.813133227254
      0.3047524880D+04  0.1834737132D-02
      0.4573695180D+03  0.1403732281D-01
      0.1039486850D+03  0.6884262226D-01
      0.2921015530D+02  0.2321844432D+00
      0.9286662960D+01  0.4679413484D+00
      0.3163926960D+01  0.3623119853D+00
 Atom C18      Shell    54 SP   3    bf  153 -   156         16.568188761117          4.663374347840         -1.813133227254
      0.7868272350D+01 -0.1193324198D+00  0.6899906659D-01
      0.1881288540D+01 -0.1608541517D+00  0.3164239610D+00
      0.5442492580D+00  0.1143456438D+01  0.7443082909D+00
 Atom C18      Shell    55 SP   1    bf  157 -   160         16.568188761117          4.663374347840         -1.813133227254
      0.1687144782D+00  0.1000000000D+01  0.1000000000D+01
 Atom C18      Shell    56 D   1     bf  161 -   166         16.568188761117          4.663374347840         -1.813133227254
      0.8000000000D+00  0.1000000000D+01
 Atom H19      Shell    57 S   3     bf  167 -   167         15.906204525376          6.620781456812         -1.839419279968
      0.1873113696D+02  0.3349460434D-01
      0.2825394365D+01  0.2347269535D+00
      0.6401216923D+00  0.8137573261D+00
 Atom H19      Shell    58 S   1     bf  168 -   168         15.906204525376          6.620781456812         -1.839419279968
      0.1612777588D+00  0.1000000000D+01
 Atom H20      Shell    59 S   3     bf  169 -   169         16.554984639914          3.989449423994         -3.774745165844
      0.1873113696D+02  0.3349460434D-01
      0.2825394365D+01  0.2347269535D+00
      0.6401216923D+00  0.8137573261D+00
 Atom H20      Shell    60 S   1     bf  170 -   170         16.554984639914          3.989449423994         -3.774745165844
      0.1612777588D+00  0.1000000000D+01
 Atom C21      Shell    61 S   6     bf  171 -   171         12.637447080948         -1.552803232379          1.984820893550
      0.3047524880D+04  0.1834737132D-02
      0.4573695180D+03  0.1403732281D-01
      0.1039486850D+03  0.6884262226D-01
      0.2921015530D+02  0.2321844432D+00
      0.9286662960D+01  0.4679413484D+00
      0.3163926960D+01  0.3623119853D+00
 Atom C21      Shell    62 SP   3    bf  172 -   175         12.637447080948         -1.552803232379          1.984820893550
      0.7868272350D+01 -0.1193324198D+00  0.6899906659D-01
      0.1881288540D+01 -0.1608541517D+00  0.3164239610D+00
      0.5442492580D+00  0.1143456438D+01  0.7443082909D+00
 Atom C21      Shell    63 SP   1    bf  176 -   179         12.637447080948         -1.552803232379          1.984820893550
      0.1687144782D+00  0.1000000000D+01  0.1000000000D+01
 Atom C21      Shell    64 D   1     bf  180 -   185         12.637447080948         -1.552803232379          1.984820893550
      0.8000000000D+00  0.1000000000D+01
 Atom H22      Shell    65 S   3     bf  186 -   186         12.880040200826         -3.046671292393          0.573988344678
      0.1873113696D+02  0.3349460434D-01
      0.2825394365D+01  0.2347269535D+00
      0.6401216923D+00  0.8137573261D+00
 Atom H22      Shell    66 S   1     bf  187 -   187         12.880040200826         -3.046671292393          0.573988344678
      0.1612777588D+00  0.1000000000D+01
 Atom H23      Shell    67 S   3     bf  188 -   188         11.710390960547         -2.448542357772          3.606285454139
      0.1873113696D+02  0.3349460434D-01
      0.2825394365D+01  0.2347269535D+00
      0.6401216923D+00  0.8137573261D+00
 Atom H23      Shell    68 S   1     bf  189 -   189         11.710390960547         -2.448542357772          3.606285454139
      0.1612777588D+00  0.1000000000D+01
 Atom C24      Shell    69 S   6     bf  190 -   190         19.244010880843          4.398845268114         -0.631271008232
      0.3047524880D+04  0.1834737132D-02
      0.4573695180D+03  0.1403732281D-01
      0.1039486850D+03  0.6884262226D-01
      0.2921015530D+02  0.2321844432D+00
      0.9286662960D+01  0.4679413484D+00
      0.3163926960D+01  0.3623119853D+00
 Atom C24      Shell    70 SP   3    bf  191 -   194         19.244010880843          4.398845268114         -0.631271008232
      0.7868272350D+01 -0.1193324198D+00  0.6899906659D-01
      0.1881288540D+01 -0.1608541517D+00  0.3164239610D+00
      0.5442492580D+00  0.1143456438D+01  0.7443082909D+00
 Atom C24      Shell    71 SP   1    bf  195 -   198         19.244010880843          4.398845268114         -0.631271008232
      0.1687144782D+00  0.1000000000D+01  0.1000000000D+01
 Atom C24      Shell    72 D   1     bf  199 -   204         19.244010880843          4.398845268114         -0.631271008232
      0.8000000000D+00  0.1000000000D+01
 Atom H25      Shell    73 S   3     bf  205 -   205         20.635820577187          3.874265665112         -2.074038379174
      0.1873113696D+02  0.3349460434D-01
      0.2825394365D+01  0.2347269535D+00
      0.6401216923D+00  0.8137573261D+00
 Atom H25      Shell    74 S   1     bf  206 -   206         20.635820577187          3.874265665112         -2.074038379174
      0.1612777588D+00  0.1000000000D+01
 Atom H26      Shell    75 S   3     bf  207 -   207         19.893456915973          6.188091355494          0.177209975180
      0.1873113696D+02  0.3349460434D-01
      0.2825394365D+01  0.2347269535D+00
      0.6401216923D+00  0.8137573261D+00
 Atom H26      Shell    76 S   1     bf  208 -   208         19.893456915973          6.188091355494          0.177209975180
      0.1612777588D+00  0.1000000000D+01
 Atom C27      Shell    77 S   6     bf  209 -   209         10.665714714053          4.510573908426         -1.800283599776
      0.3047524880D+04  0.1834737132D-02
      0.4573695180D+03  0.1403732281D-01
      0.1039486850D+03  0.6884262226D-01
      0.2921015530D+02  0.2321844432D+00
      0.9286662960D+01  0.4679413484D+00
      0.3163926960D+01  0.3623119853D+00
 Atom C27      Shell    78 SP   3    bf  210 -   213         10.665714714053          4.510573908426         -1.800283599776
      0.7868272350D+01 -0.1193324198D+00  0.6899906659D-01
      0.1881288540D+01 -0.1608541517D+00  0.3164239610D+00
      0.5442492580D+00  0.1143456438D+01  0.7443082909D+00
 Atom C27      Shell    79 SP   1    bf  214 -   217         10.665714714053          4.510573908426         -1.800283599776
      0.1687144782D+00  0.1000000000D+01  0.1000000000D+01
 Atom C27      Shell    80 D   1     bf  218 -   223         10.665714714053          4.510573908426         -1.800283599776
      0.8000000000D+00  0.1000000000D+01
 Atom H28      Shell    81 S   3     bf  224 -   224         11.421701505446          5.329969269680         -3.545924313331
      0.1873113696D+02  0.3349460434D-01
      0.2825394365D+01  0.2347269535D+00
      0.6401216923D+00  0.8137573261D+00
 Atom H28      Shell    82 S   1     bf  225 -   225         11.421701505446          5.329969269680         -3.545924313331
      0.1612777588D+00  0.1000000000D+01
 Atom C29      Shell    83 S   6     bf  226 -   226         21.617338982683          0.890269350895          1.814997234214
      0.3047524880D+04  0.1834737132D-02
      0.4573695180D+03  0.1403732281D-01
      0.1039486850D+03  0.6884262226D-01
      0.2921015530D+02  0.2321844432D+00
      0.9286662960D+01  0.4679413484D+00
      0.3163926960D+01  0.3623119853D+00
 Atom C29      Shell    84 SP   3    bf  227 -   230         21.617338982683          0.890269350895          1.814997234214
      0.7868272350D+01 -0.1193324198D+00  0.6899906659D-01
      0.1881288540D+01 -0.1608541517D+00  0.3164239610D+00
      0.5442492580D+00  0.1143456438D+01  0.7443082909D+00
 Atom C29      Shell    85 SP   1    bf  231 -   234         21.617338982683          0.890269350895          1.814997234214
      0.1687144782D+00  0.1000000000D+01  0.1000000000D+01
 Atom C29      Shell    86 D   1     bf  235 -   240         21.617338982683          0.890269350895          1.814997234214
      0.8000000000D+00  0.1000000000D+01
 Atom H30      Shell    87 S   3     bf  241 -   241         22.100571264514          0.000000000000          0.000000000000
      0.1873113696D+02  0.3349460434D-01
      0.2825394365D+01  0.2347269535D+00
      0.6401216923D+00  0.8137573261D+00
 Atom H30      Shell    88 S   1     bf  242 -   242         22.100571264514          0.000000000000          0.000000000000
      0.1612777588D+00  0.1000000000D+01
 Atom C31      Shell    89 S   6     bf  243 -   243         17.266588435178         -1.044531758034         -1.534162463578
      0.3047524880D+04  0.1834737132D-02
      0.4573695180D+03  0.1403732281D-01
      0.1039486850D+03  0.6884262226D-01
      0.2921015530D+02  0.2321844432D+00
      0.9286662960D+01  0.4679413484D+00
      0.3163926960D+01  0.3623119853D+00
 Atom C31      Shell    90 SP   3    bf  244 -   247         17.266588435178         -1.044531758034         -1.534162463578
      0.7868272350D+01 -0.1193324198D+00  0.6899906659D-01
      0.1881288540D+01 -0.1608541517D+00  0.3164239610D+00
      0.5442492580D+00  0.1143456438D+01  0.7443082909D+00
 Atom C31      Shell    91 SP   1    bf  248 -   251         17.266588435178         -1.044531758034         -1.534162463578
      0.1687144782D+00  0.1000000000D+01  0.1000000000D+01
 Atom C31      Shell    92 D   1     bf  252 -   257         17.266588435178         -1.044531758034         -1.534162463578
      0.8000000000D+00  0.1000000000D+01
 Atom H32      Shell    93 S   3     bf  258 -   258         15.564406377111         -1.844147639314         -2.388363953481
      0.1873113696D+02  0.3349460434D-01
      0.2825394365D+01  0.2347269535D+00
      0.6401216923D+00  0.8137573261D+00
 Atom H32      Shell    94 S   1     bf  259 -   259         15.564406377111         -1.844147639314         -2.388363953481
      0.1612777588D+00  0.1000000000D+01
 Atom H33      Shell    95 S   3     bf  260 -   260         18.317181962215         -0.099508688479         -3.043752780456
      0.1873113696D+02  0.3349460434D-01
      0.2825394365D+01  0.2347269535D+00
      0.6401216923D+00  0.8137573261D+00
 Atom H33      Shell    96 S   1     bf  261 -   261         18.317181962215         -0.099508688479         -3.043752780456
      0.1612777588D+00  0.1000000000D+01
 Atom H34      Shell    97 S   3     bf  262 -   262         18.422395885068         -2.632449881414         -0.880709396464
      0.1873113696D+02  0.3349460434D-01
      0.2825394365D+01  0.2347269535D+00
      0.6401216923D+00  0.8137573261D+00
 Atom H34      Shell    98 S   1     bf  263 -   263         18.422395885068         -2.632449881414         -0.880709396464
      0.1612777588D+00  0.1000000000D+01
 Atom C35      Shell    99 S   6     bf  264 -   264          6.848216837713          1.676407195170         -1.408385731475
      0.3047524880D+04  0.1834737132D-02
      0.4573695180D+03  0.1403732281D-01
      0.1039486850D+03  0.6884262226D-01
      0.2921015530D+02  0.2321844432D+00
      0.9286662960D+01  0.4679413484D+00
      0.3163926960D+01  0.3623119853D+00
 Atom C35      Shell   100 SP   3    bf  265 -   268          6.848216837713          1.676407195170         -1.408385731475
      0.7868272350D+01 -0.1193324198D+00  0.6899906659D-01
      0.1881288540D+01 -0.1608541517D+00  0.3164239610D+00
      0.5442492580D+00  0.1143456438D+01  0.7443082909D+00
 Atom C35      Shell   101 SP   1    bf  269 -   272          6.848216837713          1.676407195170         -1.408385731475
      0.1687144782D+00  0.1000000000D+01  0.1000000000D+01
 Atom C35      Shell   102 D   1     bf  273 -   278          6.848216837713          1.676407195170         -1.408385731475
      0.8000000000D+00  0.1000000000D+01
 Atom C36      Shell   103 S   6     bf  279 -   279          6.701465732905         -1.306231785458          2.273107988164
      0.3047524880D+04  0.1834737132D-02
      0.4573695180D+03  0.1403732281D-01
      0.1039486850D+03  0.6884262226D-01
      0.2921015530D+02  0.2321844432D+00
      0.9286662960D+01  0.4679413484D+00
      0.3163926960D+01  0.3623119853D+00
 Atom C36      Shell   104 SP   3    bf  280 -   283          6.701465732905         -1.306231785458          2.273107988164
      0.7868272350D+01 -0.1193324198D+00  0.6899906659D-01
      0.1881288540D+01 -0.1608541517D+00  0.3164239610D+00
      0.5442492580D+00  0.1143456438D+01  0.7443082909D+00
 Atom C36      Shell   105 SP   1    bf  284 -   287          6.701465732905         -1.306231785458          2.273107988164
      0.1687144782D+00  0.1000000000D+01  0.1000000000D+01
 Atom C36      Shell   106 D   1     bf  288 -   293          6.701465732905         -1.306231785458          2.273107988164
      0.8000000000D+00  0.1000000000D+01
 Atom H37      Shell   107 S   3     bf  294 -   294          6.792806288045          0.184491146662          3.716041730595
      0.1873113696D+02  0.3349460434D-01
      0.2825394365D+01  0.2347269535D+00
      0.6401216923D+00  0.8137573261D+00
 Atom H37      Shell   108 S   1     bf  295 -   295          6.792806288045          0.184491146662          3.716041730595
      0.1612777588D+00  0.1000000000D+01
 Atom H38      Shell   109 S   3     bf  296 -   296          7.573275709811         -2.985449211257          3.112104684909
      0.1873113696D+02  0.3349460434D-01
      0.2825394365D+01  0.2347269535D+00
      0.6401216923D+00  0.8137573261D+00
 Atom H38      Shell   110 S   1     bf  297 -   297          7.573275709811         -2.985449211257          3.112104684909
      0.1612777588D+00  0.1000000000D+01
 Atom C39      Shell   111 S   6     bf  298 -   298          7.936645176369          3.836346892961         -2.178788128597
      0.3047524880D+04  0.1834737132D-02
      0.4573695180D+03  0.1403732281D-01
      0.1039486850D+03  0.6884262226D-01
      0.2921015530D+02  0.2321844432D+00
      0.9286662960D+01  0.4679413484D+00
      0.3163926960D+01  0.3623119853D+00
 Atom C39      Shell   112 SP   3    bf  299 -   302          7.936645176369          3.836346892961         -2.178788128597
      0.7868272350D+01 -0.1193324198D+00  0.6899906659D-01
      0.1881288540D+01 -0.1608541517D+00  0.3164239610D+00
      0.5442492580D+00  0.1143456438D+01  0.7443082909D+00
 Atom C39      Shell   113 SP   1    bf  303 -   306          7.936645176369          3.836346892961         -2.178788128597
      0.1687144782D+00  0.1000000000D+01  0.1000000000D+01
 Atom C39      Shell   114 D   1     bf  307 -   312          7.936645176369          3.836346892961         -2.178788128597
      0.8000000000D+00  0.1000000000D+01
[...]
 1534 Fit      -0.000065
 1535 Fit       0.000811
 1536 Fit       0.000985
 1537 Fit      -0.000526
 1538 Fit       0.000999
 1539 Fit       0.001371
 1540 Fit      -0.001886
 1541 Fit      -0.000004
 1542 Fit      -0.003185
 1543 Fit      -0.002185
 1544 Fit      -0.001668
 1545 Fit       0.000738
 1546 Fit       0.000134
 1547 Fit      -0.001066
 1548 Fit       0.001726
 1549 Fit       0.000825
 1550 Fit      -0.001537
 1551 Fit       0.000322
 1552 Fit       0.000954
 1553 Fit       0.000332
 1554 Fit      -0.002608
 1555 Fit      -0.001082
 1556 Fit      -0.004884
 1557 Fit      -0.005276
 1558 Fit      -0.005920
 1559 Fit      -0.005533
 1560 Fit      -0.003980
 1561 Fit      -0.002330
 1562 Fit      -0.002832
 1563 Fit       0.001301
 1564 Fit       0.000777
 1565 Fit       0.000426
 1566 Fit      -0.000093
 1567 Fit      -0.001383
 1568 Fit      -0.001282
 1569 Fit      -0.001608
 1570 Fit      -0.002197
 1571 Fit      -0.002404
 1572 Fit      -0.003948
 1573 Fit      -0.004055
 1574 Fit      -0.004587
 1575 Fit      -0.003797
 1576 Fit      -0.000696
 1577 Fit      -0.001619
 1578 Fit      -0.003248
 1579 Fit       0.001481
 1580 Fit       0.000553
 1581 Fit      -0.000900
 1582 Fit      -0.003175
 1583 Fit       0.000197
 1584 Fit       0.000358
 1585 Fit      -0.001526
 1586 Fit      -0.003797
 1587 Fit      -0.001357
 1588 Fit      -0.001419
 1589 Fit      -0.003454
 1590 Fit      -0.005143
 1591 Fit      -0.003251
 1592 Fit      -0.004924
 1593 Fit      -0.002702
 1594 Fit      -0.004451
 1595 Fit      -0.003447
 1596 Fit      -0.004505
 1597 Fit      -0.015395
 1598 Fit      -0.015058
 1599 Fit      -0.009829
 1600 Fit      -0.022050
 1601 Fit      -0.021025
 1602 Fit      -0.016555
 1603 Fit      -0.008873
 1604 Fit      -0.024680
 1605 Fit      -0.023617
 1606 Fit      -0.019710
 1607 Fit      -0.013297
 1608 Fit      -0.005340
 1609 Fit      -0.023683
 1610 Fit      -0.022545
 1611 Fit      -0.017704
 1612 Fit      -0.016910
 1613 Fit      -0.018133
 1614 Fit      -0.013974
 1615 Fit       0.011735
 1616 Fit       0.004249
 1617 Fit       0.003645
 1618 Fit       0.009682
 1619 Fit       0.015177
 1620 Fit       0.000335
 1621 Fit       0.007512
 1622 Fit       0.012709
 1623 Fit       0.016400
 1624 Fit       0.000871
 1625 Fit       0.006822
 1626 Fit       0.009696
 1627 Fit      -0.014390
 1628 Fit      -0.018021
 1629 Fit      -0.018352
 1630 Fit      -0.022719
 1631 Fit      -0.022079
 1632 Fit      -0.017714
 1633 Fit      -0.011098
 1634 Fit      -0.021003
 1635 Fit      -0.024420
 1636 Fit      -0.023330
 1637 Fit      -0.018714
 1638 Fit      -0.011836
 1639 Fit      -0.004247
 1640 Fit      -0.017694
 1641 Fit      -0.022756
 1642 Fit      -0.023364
 1643 Fit      -0.020020
 1644 Fit      -0.013519
 1645 Fit      -0.004780
 1646 Fit      -0.019083
 1647 Fit      -0.019608
 1648 Fit      -0.014727
 1649 Fit      -0.005395
 1650 Fit      -0.013020
 1651 Fit      -0.011493
 1652 Fit      -0.003020
 1653 Fit      -0.003614
 1654 Fit      -0.000809
 1655 Fit       0.007472
 1656 Fit       0.012984
 1657 Fit       0.007259
 1658 Fit       0.014118
 1659 Fit       0.018949
 1660 Fit       0.000569
 1661 Fit       0.009889
 1662 Fit       0.016945
 1663 Fit       0.021786
 1664 Fit       0.025266
 1665 Fit       0.004666
 1666 Fit       0.011060
 1667 Fit       0.018540
 1668 Fit       0.022421
 1669 Fit       0.015290
 1670 Fit      -0.000591
 1671 Fit      -0.000123
 1672 Fit      -0.005455
 1673 Fit      -0.009764
 1674 Fit      -0.015297
 1675 Fit       0.004747
 1676 Fit       0.004729
 1677 Fit       0.003857
 1678 Fit       0.006483
 1679 Fit       0.005377
 1680 Fit       0.007605
 1681 Fit       0.007164
 1682 Fit       0.010576
 1683 Fit       0.005453
 1684 Fit       0.017386
 1685 Fit       0.000974
 1686 Fit       0.000769
 1687 Fit      -0.000237
 1688 Fit      -0.002743
 1689 Fit       0.002197
 1690 Fit       0.000742
 1691 Fit       0.002522
 1692 Fit       0.001833
 1693 Fit       0.002472
 1694 Fit       0.003544
 1695 Fit       0.003875
 1696 Fit       0.002501
 1697 Fit       0.001110
 1698 Fit       0.002134
 1699 Fit       0.002803
 1700 Fit       0.004885
 1701 Fit       0.006027
 1702 Fit       0.002189
 1703 Fit       0.001198
 1704 Fit       0.003547
 1705 Fit       0.002615
 1706 Fit       0.004536
 1707 Fit       0.004608
 1708 Fit       0.004941
 1709 Fit       0.005528
 1710 Fit      -0.012672
 1711 Fit      -0.003169
 1712 Fit      -0.004659
 1713 Fit      -0.005030
 1714 Fit      -0.017462
 1715 Fit      -0.009275
 1716 Fit      -0.016853
 1717 Fit      -0.006029
 1718 Fit      -0.007702
 1719 Fit      -0.012156
 1720 Fit      -0.006092
 1721 Fit      -0.007655
 1722 Fit      -0.009618
 1723 Fit      -0.005044
 1724 Fit       0.000904
 1725 Fit      -0.001971
 1726 Fit       0.001102
 1727 Fit      -0.000733
 1728 Fit      -0.000068
 1729 Fit       0.002524
 1730 Fit       0.003281
 1731 Fit       0.002749
 1732 Fit       0.001612
 1733 Fit       0.004518
 1734 Fit       0.007944
 1735 Fit       0.005386
 1736 Fit       0.007797
 1737 Fit       0.005701
 1738 Fit       0.005037
 1739 Fit       0.006537
 1740 Fit       0.004719
 1741 Fit       0.006076
 1742 Fit       0.005252
 1743 Fit       0.005966
 1744 Fit       0.006830
 1745 Fit       0.006736
 1746 Fit       0.004865
 1747 Fit       0.006954
 1748 Fit       0.004956
 1749 Fit       0.007991
 1750 Fit       0.005530
 1751 Fit      -0.003366
 1752 Fit      -0.004788
 1753 Fit      -0.004067
 1754 Fit       0.001231
 1755 Fit      -0.000299
 1756 Fit      -0.002569
 1757 Fit       0.002164
 1758 Fit       0.001267
 1759 Fit      -0.000748
 1760 Fit       0.002774
 1761 Fit       0.001091
 1762 Fit      -0.005685
 1763 Fit      -0.004385
 1764 Fit      -0.005424
 1765 Fit      -0.004174
 1766 Fit      -0.005638
 1767 Fit      -0.012031
 1768 Fit      -0.012143
 1769 Fit      -0.002468
 1770 Fit      -0.003433
 1771 Fit      -0.003373
 1772 Fit      -0.000407
 1773 Fit       0.002280
 1774 Fit       0.000710
 1775 Fit       0.001159
 1776 Fit       0.002012
 1777 Fit       0.002717
 1778 Fit       0.003975
 1779 Fit       0.002678
 1780 Fit       0.001312
 1781 Fit       0.000767
 1782 Fit       0.000476
 1783 Fit       0.000429
 1784 Fit       0.001385
 1785 Fit       0.001117
 1786 Fit       0.001719
 1787 Fit       0.001643
 1788 Fit       0.004530
 1789 Fit       0.003631
 1790 Fit       0.001947
 1791 Fit       0.000867
 1792 Fit       0.000504
 1793 Fit       0.000616
 1794 Fit       0.001711
 1795 Fit       0.000430
 1796 Fit       0.000581
 1797 Fit       0.003597
 1798 Fit       0.002209
 1799 Fit       0.001012
 1800 Fit       0.005146
 1801 Fit       0.004141
 1802 Fit       0.007270
 1803 Fit       0.004922
 1804 Fit       0.003210
 1805 Fit       0.002660
 1806 Fit       0.001404
 1807 Fit       0.002696
 1808 Fit       0.003179
 1809 Fit       0.002842
 1810 Fit       0.001646
 1811 Fit       0.002618
 1812 Fit       0.004415
 1813 Fit       0.004373
 1814 Fit       0.003447
 1815 Fit       0.003011
 1816 Fit       0.002991
 1817 Fit       0.002590
 1818 Fit       0.001793
 1819 Fit       0.001351
 1820 Fit       0.000941
 1821 Fit       0.006463
 1822 Fit       0.006223
 1823 Fit       0.006176
 1824 Fit       0.006600
 1825 Fit       0.006934
 1826 Fit       0.008212
 1827 Fit       0.007592
 1828 Fit       0.006350
 1829 Fit       0.011689
 1830 Fit       0.010553
 1831 Fit       0.008275
 1832 Fit       0.006377
 1833 Fit       0.013634
 1834 Fit       0.006471
 1835 Fit       0.007022
 1836 Fit       0.007810
 1837 Fit       0.007371
 1838 Fit       0.008130
 1839 Fit       0.008839
 1840 Fit       0.008696
 1841 Fit       0.009383
 1842 Fit       0.009717
 1843 Fit       0.001715
 1844 Fit       0.002256
 1845 Fit       0.001682
 1846 Fit       0.000457
 1847 Fit      -0.001097
 1848 Fit      -0.000154
 1849 Fit      -0.000037
 1850 Fit       0.000625
 1851 Fit      -0.003857
 1852 Fit       0.000831
 1853 Fit      -0.006571
 1854 Fit      -0.000917
 1855 Fit       0.002372
 1856 Fit      -0.000925
 1857 Fit       0.001179
 1858 Fit       0.003394
 1859 Fit       0.004913
 1860 Fit       0.001720
 1861 Fit       0.002793
 1862 Fit       0.003055
 1863 Fit       0.001407
 1864 Fit       0.007729
 1865 Fit       0.006245
 1866 Fit       0.005354
 1867 Fit       0.005533
 1868 Fit       0.006004
 1869 Fit       0.005194
 1870 Fit       0.003634
 1871 Fit       0.006172
 1872 Fit       0.009698
 1873 Fit       0.008830
 1874 Fit       0.009376
 1875 Fit       0.008622
 1876 Fit       0.008364
 1877 Fit       0.008126
 1878 Fit       0.007525
 1879 Fit       0.007253
 1880 Fit       0.007188
 1881 Fit       0.005875
 1882 Fit       0.021552
 1883 Fit       0.014086
 1884 Fit       0.009492
 1885 Fit       0.017095
 1886 Fit       0.012426
 1887 Fit       0.008506
 1888 Fit       0.011237
 1889 Fit       0.009117
 1890 Fit       0.006806
 1891 Fit       0.005631
 1892 Fit       0.006712
 1893 Fit       0.006718
 1894 Fit       0.005786
 1895 Fit       0.003503
 1896 Fit       0.004996
 1897 Fit       0.005477
 1898 Fit       0.005946
 1899 Fit       0.005493
 1900 Fit       0.000731
 1901 Fit       0.001084
 1902 Fit       0.001155
 1903 Fit       0.001256
 1904 Fit      -0.003634
 1905 Fit       0.003123
 1906 Fit      -0.000712
 1907 Fit      -0.006546
 1908 Fit       0.004384
 1909 Fit       0.001482
 1910 Fit      -0.001223
 1911 Fit       0.003549
 1912 Fit       0.003054
 1913 Fit       0.002395
 1914 Fit       0.013434
 1915 Fit       0.016848
 1916 Fit       0.015644
 1917 Fit       0.004468
 1918 Fit       0.007799
 1919 Fit       0.010835
 1920 Fit       0.009048
 1921 Fit       0.006480
 1922 Fit      -0.000821
 1923 Fit       0.004563
 1924 Fit       0.006368
 1925 Fit       0.007713
 1926 Fit       0.007888
 1927 Fit       0.008313
 1928 Fit       0.008866
 1929 Fit       0.013406
 1930 Fit       0.011496
 1931 Fit       0.010669
 1932 Fit       0.019563
 1933 Fit       0.014871
 1934 Fit       0.021732
 1935 Fit       0.004797
 1936 Fit       0.006248
 1937 Fit       0.005852
 1938 Fit       0.002938
 1939 Fit       0.002080
 1940 Fit       0.004245
 1941 Fit       0.005859
 1942 Fit      -0.002436
 1943 Fit      -0.004389
 1944 Fit      -0.000959
 1945 Fit       0.002760
 1946 Fit       0.004976
 1947 Fit       0.006547
 1948 Fit      -0.002965
 1949 Fit       0.002352
 1950 Fit       0.004766
 1951 Fit      -0.001078
 1952 Fit      -0.000783
 1953 Fit       0.001725
 1954 Fit       0.002234
 1955 Fit       0.001782
 1956 Fit       0.000467
 1957 Fit       0.001562
 1958 Fit       0.001210
 1959 Fit      -0.000470
 1960 Fit       0.000557
 1961 Fit       0.000345
 1962 Fit      -0.000272
 1963 Fit       0.000457
 1964 Fit       0.000441
 1965 Fit       0.000672
 1966 Fit       0.004528
 1967 Fit       0.007153
 1968 Fit       0.001656
 1969 Fit      -0.002663
 1970 Fit       0.008309
 1971 Fit       0.002771
 1972 Fit      -0.003317
 1973 Fit      -0.011055
 1974 Fit       0.012022
 1975 Fit       0.005376
 1976 Fit       0.000221
 1977 Fit      -0.006751
 1978 Fit       0.002645
 1979 Fit      -0.001234
 1980 Fit      -0.010280
 1981 Fit      -0.000904
 1982 Fit      -0.000062
 1983 Fit      -0.000909
 1984 Fit      -0.001172
 1985 Fit       0.000943
 1986 Fit      -0.000365
 1987 Fit      -0.000852
 1988 Fit       0.000004
 1989 Fit       0.000695
 1990 Fit       0.000198
 1991 Fit       0.001150
 1992 Fit       0.001479
 1993 Fit       0.000686
 1994 Fit       0.002036
 1995 Fit       0.001822
 1996 Fit       0.000875
 1997 Fit       0.000025
 1998 Fit       0.001850
 1999 Fit       0.001784
 2000 Fit       0.000852
 2001 Fit       0.000485
 2002 Fit      -0.000215
 2003 Fit      -0.000601
 2004 Fit       0.001028
 2005 Fit       0.000154
 2006 Fit       0.001030
 2007 Fit       0.002093
 2008 Fit       0.000086
 2009 Fit       0.001211
 2010 Fit       0.001913
 2011 Fit       0.000120
 2012 Fit       0.001153
 2013 Fit       0.001928
 2014 Fit       0.000248
 2015 Fit       0.001075
 2016 Fit       0.001056
 2017 Fit       0.003237
 2018 Fit       0.001127
 2019 Fit       0.004427
 2020 Fit       0.002279
 2021 Fit       0.002426
 2022 Fit      -0.001584
 2023 Fit      -0.001287
 2024 Fit      -0.001444
 2025 Fit      -0.000628
 2026 Fit       0.000086
 2027 Fit      -0.001874
 2028 Fit      -0.001077
 2029 Fit       0.000135
 2030 Fit      -0.000961
 2031 Fit      -0.000656
 2032 Fit       0.000540
 2033 Fit       0.001206
 2034 Fit       0.000380
 2035 Fit      -0.000307
 2036 Fit       0.000061
 2037 Fit      -0.000641
 2038 Fit      -0.003083
 2039 Fit      -0.001867
 2040 Fit      -0.002691
 2041 Fit      -0.001823
 2042 Fit      -0.001569
 2043 Fit      -0.000644
 2044 Fit      -0.000197
 2045 Fit      -0.000390
 2046 Fit       0.000955
 2047 Fit       0.001061
 2048 Fit       0.000851
 2049 Fit       0.001602
 2050 Fit       0.001510
 2051 Fit       0.000931
 2052 Fit      -0.000116
 2053 Fit      -0.000956
 2054 Fit       0.000268
 2055 Fit       0.000500
 2056 Fit      -0.000038
 2057 Fit      -0.000588
 2058 Fit      -0.001290
 2059 Fit      -0.002502
 2060 Fit       0.001061
 2061 Fit       0.000309
 2062 Fit      -0.000548
 2063 Fit      -0.001001
 2064 Fit      -0.001592
 2065 Fit      -0.000590
 2066 Fit      -0.000987
 2067 Fit      -0.000704
 2068 Fit      -0.000328
 2069 Fit      -0.000046
 2070 Fit      -0.000388
 2071 Fit      -0.000967
 2072 Fit       0.000352
 2073 Fit       0.000242
 2074 Fit      -0.002915
 2075 Fit      -0.003007
 2076 Fit      -0.002735
 2077 Fit      -0.002984
 2078 Fit      -0.003350
 2079 Fit      -0.003365
 2080 Fit      -0.003257
 2081 Fit      -0.003050
 2082 Fit      -0.003142
 2083 Fit      -0.002854
 2084 Fit      -0.002446
 2085 Fit      -0.001806
 2086 Fit       0.000004
 2087 Fit      -0.001028
 2088 Fit      -0.000144
 2089 Fit       0.000583
 2090 Fit       0.000908
 2091 Fit      -0.001556
 2092 Fit      -0.002388
 2093 Fit      -0.001652
 2094 Fit      -0.000953
 2095 Fit      -0.000386
 2096 Fit       0.000462
 2097 Fit      -0.002694
 2098 Fit      -0.002245
 2099 Fit      -0.002000
 2100 Fit      -0.002731
 2101 Fit      -0.002075
 2102 Fit      -0.002004
 2103 Fit      -0.002623
 2104 Fit      -0.002350
 2105 Fit      -0.001292
 2106 Fit      -0.000553
 2107 Fit      -0.000351
 2108 Fit      -0.000489
 2109 Fit      -0.001276
 2110 Fit      -0.000141
 2111 Fit       0.000514
 2112 Fit       0.000795
 2113 Fit      -0.000534
 2114 Fit       0.000473
 2115 Fit       0.000766
 2116 Fit      -0.000178
 2117 Fit      -0.002337
 2118 Fit      -0.001882
 2119 Fit      -0.000160
 2120 Fit      -0.000587
 2121 Fit      -0.001227
 2122 Fit       0.000986
 2123 Fit       0.000186
 2124 Fit      -0.001161
 2125 Fit       0.001354
 2126 Fit       0.001057
 2127 Fit       0.000256
 2128 Fit      -0.001605
 2129 Fit       0.000254
 2130 Fit      -0.000265
 2131 Fit      -0.001158
 2132 Fit      -0.003561
 2133 Fit      -0.003326
 2134 Fit      -0.003613
 2135 Fit      -0.004178
 2136 Fit      -0.004761
 2137 Fit      -0.005088
 2138 Fit      -0.005114
 2139 Fit      -0.005480
 2140 Fit      -0.005175
 2141 Fit      -0.003583
 2142 Fit      -0.002260
 2143 Fit      -0.002354
 2144 Fit       0.000889
 2145 Fit       0.000527
 2146 Fit       0.000140
 2147 Fit      -0.000146
 2148 Fit      -0.000847
 2149 Fit      -0.000942
 2150 Fit      -0.001234
 2151 Fit      -0.001612
 2152 Fit      -0.001700
 2153 Fit      -0.003023
 2154 Fit      -0.002660
 2155 Fit      -0.002710
 2156 Fit      -0.003082
 2157 Fit      -0.003561
 2158 Fit      -0.001897
 2159 Fit      -0.002354
 2160 Fit      -0.003368
 2161 Fit      -0.000025
 2162 Fit      -0.000888
 2163 Fit      -0.002112
 2164 Fit      -0.003799
 2165 Fit       0.000850
 2166 Fit       0.000115
 2167 Fit      -0.001106
 2168 Fit      -0.002898
 2169 Fit      -0.000220
 2170 Fit      -0.000250
 2171 Fit      -0.001713
 2172 Fit      -0.003270
 2173 Fit      -0.001493
 2174 Fit      -0.004554
 2175 Fit      -0.002817
 2176 Fit      -0.004788
 2177 Fit      -0.004740
 -----------------------------------------------------------------
 Leave Link  602 at Thu May 18 14:08:15 2017, MaxMem=   33554432 cpu:      15.0
 (Enter /scratch/michal/g09/l9999.exe)

 Test job not archived.
 1\1\GINC-RZEPICHA\SP\RHF\6-31G(d)\C27H46O2\MICHAL\18-May-2017\0\\#P HF
 /6-31G* SCF(Conver=6) NoSymm Test Pop=mk IOp(6/33=2) GFInput GFPrint\\
 MEP - Input generated by R.E.D.-III.x MOLECULE\\0,1\O,0,5.74843874,3.4
 7140173,0.\H,0,5.11328177,3.30889887,0.71019552\O,0,0.,0.,0.\H,0,-0.08
 129474,-0.74247201,-0.6150564\C,0,8.81594282,0.40726448,0.35621753\C,0
 ,7.88831577,1.58028029,-0.06638851\H,0,7.70823107,2.15655532,0.8522556
 9\C,0,6.5035661,1.16195238,-0.5751715\H,0,6.62067124,0.58117214,-1.501
 62745\C,0,5.77678847,0.29311446,0.48266648\H,0,5.55250323,0.96898286,1
 .32470908\C,0,10.09585473,1.21648186,0.76421631\H,0,9.84777139,1.70196
 327,1.71954492\C,0,8.08456031,-0.33839362,1.49079682\H,0,7.98517343,0.
 3402957,2.35013325\H,0,8.65376415,-1.20495935,1.8424779\C,0,4.38921226
 ,-0.23247435,-0.02724036\C,0,8.76750788,2.46775142,-0.95946878\H,0,8.4
 1720091,3.50356665,-0.97337876\H,0,8.76052056,2.11112571,-1.99750911\C
 ,0,6.68744897,-0.82170808,1.05032198\H,0,6.81582372,-1.61222901,0.3037
 4155\H,0,6.196872,-1.29571281,1.90836407\C,0,10.18349196,2.32776866,-0
 .33405423\H,0,10.92000593,2.05017309,-1.09753384\H,0,10.527164,3.27459
 691,0.09377548\C,0,5.64405314,2.38689291,-0.95266905\H,0,6.04410412,2.
 82049826,-1.87642233\C,0,11.4394031,0.47111025,0.96045517\H,0,11.69511
 861,0.,0.\C,0,9.13708507,-0.5527424,-0.81184381\H,0,8.23632912,-0.9758
 809,-1.26386777\H,0,9.69303522,-0.05265773,-1.6106846\H,0,9.74871203,-
 1.39303248,-0.46605134\C,0,3.62392027,0.88711648,-0.74528563\C,0,3.546
 26293,-0.69122809,1.20287694\H,0,3.59459827,0.09762851,1.96644459\H,0,
 4.0076049,-1.57983168,1.64685487\C,0,4.19989174,2.03010734,-1.15296502
 \H,0,3.5878712,2.790772,-1.63683637\C,0,4.55502197,-1.41999364,-1.0143
 2859\H,0,4.92923182,-2.31235341,-0.50371965\H,0,3.60474429,-1.69136337
 ,-1.48075741\H,0,5.25000385,-1.17020438,-1.82162518\C,0,2.14644412,0.6
 5210558,-1.00084353\H,0,1.68742668,1.55210514,-1.42158302\H,0,2.020120
 45,-0.14573425,-1.75006252\C,0,2.06771896,-0.98323784,0.90466012\H,0,1
 .97447949,-1.84646637,0.22923598\H,0,1.54441143,-1.2509612,1.82956015\
 C,0,12.61101216,1.44376243,1.26742464\H,0,13.53447712,0.84722829,1.301
 72374\H,0,12.73329796,2.13245008,0.42397979\C,0,1.38674002,0.22631907,
 0.26475449\H,0,1.39008533,1.05939652,0.9784736\C,0,11.38053996,-0.6502
 9712,2.01496518\H,0,10.9629539,-0.29964747,2.96525137\H,0,12.38583006,
 -1.03858444,2.21744218\H,0,10.7697324,-1.4927065,1.68056673\C,0,12.506
 5073,2.2484519,2.57434393\H,0,11.64962267,2.9318966,2.52910924\H,0,12.
 29986884,1.56513089,3.40755117\C,0,13.7821684,3.03733875,2.92704826\H,
 0,14.61613324,2.32582986,3.01478986\H,0,13.65649133,3.48055509,3.92619
 368\C,0,14.2010616,4.16080342,1.95477762\H,0,14.32414811,3.72388424,0.
 95349503\C,0,15.56109607,4.74293435,2.37252582\H,0,15.5022969,5.196755
 37,3.37030763\H,0,15.89362299,5.51938482,1.67407898\H,0,16.33486259,3.
 96725645,2.40527665\C,0,13.1466618,5.27482987,1.85777578\H,0,12.975029
 22,5.73433298,2.83997929\H,0,13.47461418,6.06619187,1.17417324\H,0,12.
 18427028,4.90300526,1.49191339\\Version=EM64L-G09RevC.01\HF=-1198.9264
 694\RMSD=4.891e-07\Dipole=0.0908332,-1.0377788,-0.1712433\Quadrupole=-
 4.8949154,-1.3860382,6.2809536,-9.4844708,0.0464568,1.1566927\PG=C01 [
 X(C27H46O2)]\\@


 Where a calculator on the ENIAC is equipped with 18,000
 vacuum tubes and weighs 30 tons, computers inthe future
 may  have only 1,000 vacuum tubes and weigh only 1 1/2 tons.
              ---Popular Mechanics, March 1949
 Job cpu time:  0 days  0 hours 36 minutes 14.8 seconds.
 File lengths (MBytes):  RWF=    151 Int=      0 D2E=      0 Chk=     11 Scr=      1
 Normal termination of Gaussian 09 at Thu May 18 14:08:15 2017.
