 Entering Gaussian System, Link 0=/scratch/michal/g09//g09
 Input=JOB2-gau_m1-4-1.com
 Output=JOB2-gau_m1-4-1.log
 Initial command:
 /scratch/michal/g09/l1.exe /scratch/michal/gauss_scratch/Gau-4601.inp -scrdir=/scratch/michal/gauss_scratch/
 Entering Link 1 = /scratch/michal/g09/l1.exe PID=      4603.
  
 Copyright (c) 1988,1990,1992,1993,1995,1998,2003,2009,2011,
            Gaussian, Inc.  All Rights Reserved.
  
 This is part of the Gaussian(R) 09 program.  It is based on
 the Gaussian(R) 03 system (copyright 2003, Gaussian, Inc.),
 the Gaussian(R) 98 system (copyright 1998, Gaussian, Inc.),
 the Gaussian(R) 94 system (copyright 1995, Gaussian, Inc.),
 the Gaussian 92(TM) system (copyright 1992, Gaussian, Inc.),
 the Gaussian 90(TM) system (copyright 1990, Gaussian, Inc.),
 the Gaussian 88(TM) system (copyright 1988, Gaussian, Inc.),
 the Gaussian 86(TM) system (copyright 1986, Carnegie Mellon
 University), and the Gaussian 82(TM) system (copyright 1983,
 Carnegie Mellon University). Gaussian is a federally registered
 trademark of Gaussian, Inc.
  
 This software contains proprietary and confidential information,
 including trade secrets, belonging to Gaussian, Inc.
  
 This software is provided under written license and may be
 used, copied, transmitted, or stored only in accord with that
 written license.
  
 The following legend is applicable only to US Government
 contracts under FAR:
  
                    RESTRICTED RIGHTS LEGEND
  
 Use, reproduction and disclosure by the US Government is
 subject to restrictions as set forth in subparagraphs (a)
 and (c) of the Commercial Computer Software - Restricted
 Rights clause in FAR 52.227-19.
  
 Gaussian, Inc.
 340 Quinnipiac St., Bldg. 40, Wallingford CT 06492
  
  
 ---------------------------------------------------------------
 Warning -- This program may not be used in any manner that
 competes with the business of Gaussian, Inc. or will provide
 assistance to any competitor of Gaussian, Inc.  The licensee
 of this program is prohibited from giving any competitor of
 Gaussian, Inc. access to this program.  By using this program,
 the user acknowledges that Gaussian, Inc. is engaged in the
 business of creating and licensing software in the field of
 computational chemistry and represents and warrants to the
 licensee that it is not a competitor of Gaussian, Inc. and that
 it will not use this program in any manner prohibited above.
 ---------------------------------------------------------------
  

 Cite this work as:
 Gaussian 09, Revision C.01,
 M. J. Frisch, G. W. Trucks, H. B. Schlegel, G. E. Scuseria, 
 M. A. Robb, J. R. Cheeseman, G. Scalmani, V. Barone, B. Mennucci, 
 G. A. Petersson, H. Nakatsuji, M. Caricato, X. Li, H. P. Hratchian, 
 A. F. Izmaylov, J. Bloino, G. Zheng, J. L. Sonnenberg, M. Hada, 
 M. Ehara, K. Toyota, R. Fukuda, J. Hasegawa, M. Ishida, T. Nakajima, 
 Y. Honda, O. Kitao, H. Nakai, T. Vreven, J. A. Montgomery, Jr., 
 J. E. Peralta, F. Ogliaro, M. Bearpark, J. J. Heyd, E. Brothers, 
 K. N. Kudin, V. N. Staroverov, T. Keith, R. Kobayashi, J. Normand, 
 K. Raghavachari, A. Rendell, J. C. Burant, S. S. Iyengar, J. Tomasi, 
 M. Cossi, N. Rega, J. M. Millam, M. Klene, J. E. Knox, J. B. Cross, 
 V. Bakken, C. Adamo, J. Jaramillo, R. Gomperts, R. E. Stratmann, 
 O. Yazyev, A. J. Austin, R. Cammi, C. Pomelli, J. W. Ochterski, 
 R. L. Martin, K. Morokuma, V. G. Zakrzewski, G. A. Voth, 
 P. Salvador, J. J. Dannenberg, S. Dapprich, A. D. Daniels, 
 O. Farkas, J. B. Foresman, J. V. Ortiz, J. Cioslowski, 
 and D. J. Fox, Gaussian, Inc., Wallingford CT, 2010.
 
 ******************************************
 Gaussian 09:  EM64L-G09RevC.01 23-Sep-2011
                18-May-2017 
 ******************************************
 %Mem=256MB
 %NProc=48
 Will use up to   48 processors via shared memory.
 ----------------------------------------------------------------------
 #P HF/6-31G* SCF(Conver=6) NoSymm Test Pop=mk IOp(6/33=2) GFInput GFPr
 int
 ----------------------------------------------------------------------
 1/38=1/1;
 2/12=2,15=1,17=6,18=5,40=1/2;
 3/5=1,6=6,7=1,11=9,16=1,24=110,25=1,30=1/1,2,3;
 4//1;
 5/5=2,6=6,38=5/2;
 6/7=2,8=2,9=2,10=2,15=8,20=1,28=1,33=2/1,2;
 99/5=1,9=1/99;
 Leave Link    1 at Thu May 18 12:38:12 2017, MaxMem=   33554432 cpu:       7.8
 (Enter /scratch/michal/g09/l101.exe)
 ----------------------------------------------
 MEP - Input generated by R.E.D.-III.x MOLECULE
 ----------------------------------------------
 Charge =  0 Multiplicity = 1
 Symbolic Z-Matrix:
 O                     0.        0.        0. 
 H                     0.96656   0.        0. 
 O                     4.35716  -1.30564  -4.93981 
 H                     4.08429  -1.11339  -5.84796 
 C                    -1.23088   4.1052   -0.75243 
 C                    -1.13218   2.57238  -0.51649 
 H                    -0.43841   2.44881   0.32732 
 C                    -0.52712   1.77332  -1.67729 
 H                    -1.18721   1.85511  -2.55295 
 C                     0.87437   2.32408  -2.04358 
 H                     1.52712   2.07977  -1.18896 
 C                    -1.9043    4.5421    0.59509 
 H                    -1.11823   4.47606   1.36418 
 C                     0.20948   4.60227  -0.99229 
 H                     0.79374   4.43937  -0.07517 
 H                     0.24203   5.67753  -1.19481 
 C                     1.49855   1.59349  -3.28388 
 C                    -2.51794   2.17533   0.01035 
 H                    -2.48366   1.25076   0.5933 
 H                    -3.21993   2.00963  -0.81692 
 C                     0.88095   3.86605  -2.16957 
 H                     0.37783   4.1649   -3.09499 
 H                     1.91328   4.22343  -2.25995 
 C                    -2.94378   3.39935   0.86703 
 H                    -3.95479   3.73249   0.60366 
 H                    -2.97246   3.14009   1.92931 
 C                    -0.44893   0.26721  -1.34968 
 H                    -1.46439  -0.14505  -1.36609 
 C                    -2.53458   5.95324   0.71582 
 H                    -3.36863   6.0003    0. 
 C                    -2.14301   4.46452  -1.94821 
 H                    -1.81887   3.989    -2.87758 
 H                    -3.17986   4.1602   -1.7763 
 H                    -2.14652   5.54525  -2.12415 
 C                     1.28215   0.07811  -3.17769 
 C                     3.0341    1.86861  -3.30457 
 H                     3.42973   1.6854   -2.29582 
 H                     3.20935   2.92859  -3.51745 
 C                     0.41074  -0.48428  -2.32401 
 H                     0.32704  -1.5701   -2.2882 
 C                     0.865     2.08411  -4.6144 
 H                     1.14802   3.11828  -4.83229 
 H                     1.18921   1.47668  -5.46303 
 H                    -0.22711   2.02815  -4.57725 
 C                     2.10276  -0.79771  -4.10667 
 H                     1.94154  -1.85427  -3.87124 
 H                     1.76977  -0.65234  -5.14674 
 C                     3.83389   1.0129   -4.29871 
 H                     3.54487   1.25296  -5.33259 
 H                     4.90291   1.23792  -4.21188 
 C                    -3.13004   6.17632   2.14016 
 H                    -3.18718   5.22245   2.67433 
 H                    -2.43731   6.79968   2.72367 
 C                     3.60431  -0.47758  -4.04992 
 H                     3.98586  -0.73835  -3.05501 
 C                    -1.55528   7.09187   0.37429 
 H                    -0.64046   7.01097   0.97451 
 H                    -2.00228   8.06697   0.58992 
 H                    -1.26443   7.09298  -0.67933 
 C                    -4.5356    6.80716   2.18077 
 H                    -5.22321   6.15605   1.625 
 H                    -4.8858    6.7997    3.22317 
 C                    -4.63387   8.24464   1.64777 
 H                    -4.38036   8.26926   0.57811 
 H                    -3.87642   8.8584    2.15645 
 C                    -6.00979   8.91655   1.83864 
 H                    -6.26675   8.84842   2.90719 
 C                    -7.1236    8.21857   1.04118 
 H                    -6.89967   8.23441  -0.03358 
 H                    -8.08474   8.72479   1.18653 
 H                    -7.25349   7.17376   1.34007 
 C                    -5.93825   10.4067   1.46896 
 H                    -5.68201   10.53463   0.40932 
 H                    -6.89883   10.90598   1.63993 
 H                    -5.17803   10.92965   2.06055 
 
 NAtoms=     75 NQM=        0 NQMF=       0 NMMI=     75 NMMIF=      0
                NMic=       0 NMicF=      0.
                    Isotopes and Nuclear Properties:
 (Nuclear quadrupole moments (NQMom) in fm**2, nuclear magnetic moments (NMagM)
  in nuclear magnetons)

  Atom         1           2           3           4           5           6           7           8           9          10
 IAtWgt=          16           1          16           1          12          12           1          12           1          12
 AtmWgt=  15.9949146   1.0078250  15.9949146   1.0078250  12.0000000  12.0000000   1.0078250  12.0000000   1.0078250  12.0000000
 NucSpn=           0           1           0           1           0           0           1           0           1           0
 AtZEff=   0.0000000   0.0000000   0.0000000   0.0000000   0.0000000   0.0000000   0.0000000   0.0000000   0.0000000   0.0000000
 NQMom=    0.0000000   0.0000000   0.0000000   0.0000000   0.0000000   0.0000000   0.0000000   0.0000000   0.0000000   0.0000000
 NMagM=    0.0000000   2.7928460   0.0000000   2.7928460   0.0000000   0.0000000   2.7928460   0.0000000   2.7928460   0.0000000

  Atom        11          12          13          14          15          16          17          18          19          20
 IAtWgt=           1          12           1          12           1           1          12          12           1           1
 AtmWgt=   1.0078250  12.0000000   1.0078250  12.0000000   1.0078250   1.0078250  12.0000000  12.0000000   1.0078250   1.0078250
 NucSpn=           1           0           1           0           1           1           0           0           1           1
 AtZEff=   0.0000000   0.0000000   0.0000000   0.0000000   0.0000000   0.0000000   0.0000000   0.0000000   0.0000000   0.0000000
 NQMom=    0.0000000   0.0000000   0.0000000   0.0000000   0.0000000   0.0000000   0.0000000   0.0000000   0.0000000   0.0000000
 NMagM=    2.7928460   0.0000000   2.7928460   0.0000000   2.7928460   2.7928460   0.0000000   0.0000000   2.7928460   2.7928460

  Atom        21          22          23          24          25          26          27          28          29          30
 IAtWgt=          12           1           1          12           1           1          12           1          12           1
 AtmWgt=  12.0000000   1.0078250   1.0078250  12.0000000   1.0078250   1.0078250  12.0000000   1.0078250  12.0000000   1.0078250
 NucSpn=           0           1           1           0           1           1           0           1           0           1
 AtZEff=   0.0000000   0.0000000   0.0000000   0.0000000   0.0000000   0.0000000   0.0000000   0.0000000   0.0000000   0.0000000
 NQMom=    0.0000000   0.0000000   0.0000000   0.0000000   0.0000000   0.0000000   0.0000000   0.0000000   0.0000000   0.0000000
 NMagM=    0.0000000   2.7928460   2.7928460   0.0000000   2.7928460   2.7928460   0.0000000   2.7928460   0.0000000   2.7928460

  Atom        31          32          33          34          35          36          37          38          39          40
 IAtWgt=          12           1           1           1          12          12           1           1          12           1
 AtmWgt=  12.0000000   1.0078250   1.0078250   1.0078250  12.0000000  12.0000000   1.0078250   1.0078250  12.0000000   1.0078250
 NucSpn=           0           1           1           1           0           0           1           1           0           1
 AtZEff=   0.0000000   0.0000000   0.0000000   0.0000000   0.0000000   0.0000000   0.0000000   0.0000000   0.0000000   0.0000000
 NQMom=    0.0000000   0.0000000   0.0000000   0.0000000   0.0000000   0.0000000   0.0000000   0.0000000   0.0000000   0.0000000
 NMagM=    0.0000000   2.7928460   2.7928460   2.7928460   0.0000000   0.0000000   2.7928460   2.7928460   0.0000000   2.7928460

  Atom        41          42          43          44          45          46          47          48          49          50
 IAtWgt=          12           1           1           1          12           1           1          12           1           1
 AtmWgt=  12.0000000   1.0078250   1.0078250   1.0078250  12.0000000   1.0078250   1.0078250  12.0000000   1.0078250   1.0078250
 NucSpn=           0           1           1           1           0           1           1           0           1           1
 AtZEff=   0.0000000   0.0000000   0.0000000   0.0000000   0.0000000   0.0000000   0.0000000   0.0000000   0.0000000   0.0000000
 NQMom=    0.0000000   0.0000000   0.0000000   0.0000000   0.0000000   0.0000000   0.0000000   0.0000000   0.0000000   0.0000000
 NMagM=    0.0000000   2.7928460   2.7928460   2.7928460   0.0000000   2.7928460   2.7928460   0.0000000   2.7928460   2.7928460

  Atom        51          52          53          54          55          56          57          58          59          60
 IAtWgt=          12           1           1          12           1          12           1           1           1          12
 AtmWgt=  12.0000000   1.0078250   1.0078250  12.0000000   1.0078250  12.0000000   1.0078250   1.0078250   1.0078250  12.0000000
 NucSpn=           0           1           1           0           1           0           1           1           1           0
 AtZEff=   0.0000000   0.0000000   0.0000000   0.0000000   0.0000000   0.0000000   0.0000000   0.0000000   0.0000000   0.0000000
 NQMom=    0.0000000   0.0000000   0.0000000   0.0000000   0.0000000   0.0000000   0.0000000   0.0000000   0.0000000   0.0000000
 NMagM=    0.0000000   2.7928460   2.7928460   0.0000000   2.7928460   0.0000000   2.7928460   2.7928460   2.7928460   0.0000000

  Atom        61          62          63          64          65          66          67          68          69          70
 IAtWgt=           1           1          12           1           1          12           1          12           1           1
 AtmWgt=   1.0078250   1.0078250  12.0000000   1.0078250   1.0078250  12.0000000   1.0078250  12.0000000   1.0078250   1.0078250
 NucSpn=           1           1           0           1           1           0           1           0           1           1
 AtZEff=   0.0000000   0.0000000   0.0000000   0.0000000   0.0000000   0.0000000   0.0000000   0.0000000   0.0000000   0.0000000
 NQMom=    0.0000000   0.0000000   0.0000000   0.0000000   0.0000000   0.0000000   0.0000000   0.0000000   0.0000000   0.0000000
 NMagM=    2.7928460   2.7928460   0.0000000   2.7928460   2.7928460   0.0000000   2.7928460   0.0000000   2.7928460   2.7928460

  Atom        71          72          73          74          75
 IAtWgt=           1          12           1           1           1
 AtmWgt=   1.0078250  12.0000000   1.0078250   1.0078250   1.0078250
 NucSpn=           1           0           1           1           1
 AtZEff=   0.0000000   0.0000000   0.0000000   0.0000000   0.0000000
 NQMom=    0.0000000   0.0000000   0.0000000   0.0000000   0.0000000
 NMagM=    2.7928460   0.0000000   2.7928460   2.7928460   2.7928460
 Leave Link  101 at Thu May 18 12:38:12 2017, MaxMem=   33554432 cpu:       8.9
 (Enter /scratch/michal/g09/l202.exe)
 Symmetry turned off by external request.
 Stoichiometry    C27H46O2
 Framework group  C1[X(C27H46O2)]
 Deg. of freedom   219
 Full point group                 C1      NOp   1
                          Input orientation:                          
 ---------------------------------------------------------------------
 Center     Atomic      Atomic             Coordinates (Angstroms)
 Number     Number       Type             X           Y           Z
 ---------------------------------------------------------------------
      1          8           0        0.000000    0.000000    0.000000
      2          1           0        0.966555    0.000000    0.000000
      3          8           0        4.357159   -1.305638   -4.939810
      4          1           0        4.084290   -1.113387   -5.847965
      5          6           0       -1.230879    4.105202   -0.752430
      6          6           0       -1.132184    2.572384   -0.516490
      7          1           0       -0.438412    2.448810    0.327322
      8          6           0       -0.527116    1.773318   -1.677291
      9          1           0       -1.187210    1.855112   -2.552951
     10          6           0        0.874367    2.324079   -2.043576
     11          1           0        1.527119    2.079768   -1.188962
     12          6           0       -1.904300    4.542099    0.595089
     13          1           0       -1.118228    4.476063    1.364181
     14          6           0        0.209477    4.602269   -0.992293
     15          1           0        0.793745    4.439371   -0.075168
     16          1           0        0.242027    5.677533   -1.194809
     17          6           0        1.498548    1.593486   -3.283882
     18          6           0       -2.517941    2.175326    0.010353
     19          1           0       -2.483663    1.250758    0.593297
     20          1           0       -3.219929    2.009631   -0.816922
     21          6           0        0.880950    3.866053   -2.169573
     22          1           0        0.377827    4.164900   -3.094993
     23          1           0        1.913279    4.223433   -2.259951
     24          6           0       -2.943779    3.399353    0.867028
     25          1           0       -3.954793    3.732493    0.603662
     26          1           0       -2.972461    3.140093    1.929312
     27          6           0       -0.448934    0.267214   -1.349679
     28          1           0       -1.464391   -0.145045   -1.366086
     29          6           0       -2.534576    5.953240    0.715818
     30          1           0       -3.368635    6.000297    0.000000
     31          6           0       -2.143015    4.464524   -1.948213
     32          1           0       -1.818873    3.989001   -2.877577
     33          1           0       -3.179863    4.160196   -1.776304
     34          1           0       -2.146524    5.545247   -2.124149
     35          6           0        1.282150    0.078108   -3.177693
     36          6           0        3.034103    1.868614   -3.304567
     37          1           0        3.429726    1.685399   -2.295815
     38          1           0        3.209352    2.928587   -3.517451
     39          6           0        0.410741   -0.484275   -2.324010
     40          1           0        0.327041   -1.570100   -2.288205
     41          6           0        0.865004    2.084112   -4.614404
     42          1           0        1.148018    3.118280   -4.832286
     43          1           0        1.189209    1.476684   -5.463027
     44          1           0       -0.227114    2.028148   -4.577248
     45          6           0        2.102756   -0.797714   -4.106671
     46          1           0        1.941540   -1.854267   -3.871237
     47          1           0        1.769769   -0.652342   -5.146742
     48          6           0        3.833891    1.012896   -4.298712
     49          1           0        3.544865    1.252956   -5.332593
     50          1           0        4.902912    1.237923   -4.211884
     51          6           0       -3.130044    6.176322    2.140164
     52          1           0       -3.187185    5.222446    2.674330
     53          1           0       -2.437308    6.799676    2.723668
     54          6           0        3.604309   -0.477576   -4.049921
     55          1           0        3.985860   -0.738353   -3.055009
     56          6           0       -1.555276    7.091873    0.374290
     57          1           0       -0.640463    7.010970    0.974512
     58          1           0       -2.002277    8.066966    0.589925
     59          1           0       -1.264428    7.092982   -0.679333
     60          6           0       -4.535599    6.807161    2.180772
     61          1           0       -5.223209    6.156045    1.624999
     62          1           0       -4.885800    6.799702    3.223169
     63          6           0       -4.633872    8.244641    1.647769
     64          1           0       -4.380360    8.269265    0.578112
     65          1           0       -3.876422    8.858397    2.156454
     66          6           0       -6.009790    8.916551    1.838639
     67          1           0       -6.266745    8.848424    2.907192
     68          6           0       -7.123602    8.218570    1.041175
     69          1           0       -6.899666    8.234412   -0.033581
     70          1           0       -8.084735    8.724787    1.186530
     71          1           0       -7.253488    7.173762    1.340074
     72          6           0       -5.938245   10.406703    1.468964
     73          1           0       -5.682008   10.534626    0.409316
     74          1           0       -6.898833   10.905983    1.639930
     75          1           0       -5.178028   10.929647    2.060549
 ---------------------------------------------------------------------
 Rotational constants (GHZ):      0.4851067      0.0551242      0.0526059
 Leave Link  202 at Thu May 18 12:38:12 2017, MaxMem=   33554432 cpu:       0.1
 (Enter /scratch/michal/g09/l301.exe)
 Standard basis: 6-31G(d) (6D, 7F)
 Ernie: Thresh=  0.10000D-02 Tol=  0.10000D-05 Strict=F.
 AO basis set in the form of general basis input (Overlap normalization):
      1 0
 S   6 1.00       0.000000000000
      0.5484671660D+04  0.1831074430D-02
      0.8252349460D+03  0.1395017220D-01
      0.1880469580D+03  0.6844507810D-01
      0.5296450000D+02  0.2327143360D+00
      0.1689757040D+02  0.4701928980D+00
      0.5799635340D+01  0.3585208530D+00
 SP   3 1.00       0.000000000000
      0.1553961625D+02 -0.1107775495D+00  0.7087426823D-01
      0.3599933586D+01 -0.1480262627D+00  0.3397528391D+00
      0.1013761750D+01  0.1130767015D+01  0.7271585773D+00
 SP   1 1.00       0.000000000000
      0.2700058226D+00  0.1000000000D+01  0.1000000000D+01
 D   1 1.00       0.000000000000
      0.8000000000D+00  0.1000000000D+01
 ****
      2 0
 S   3 1.00       0.000000000000
      0.1873113696D+02  0.3349460434D-01
      0.2825394365D+01  0.2347269535D+00
      0.6401216923D+00  0.8137573261D+00
 S   1 1.00       0.000000000000
      0.1612777588D+00  0.1000000000D+01
 ****
      3 0
 S   6 1.00       0.000000000000
      0.5484671660D+04  0.1831074430D-02
      0.8252349460D+03  0.1395017220D-01
      0.1880469580D+03  0.6844507810D-01
      0.5296450000D+02  0.2327143360D+00
      0.1689757040D+02  0.4701928980D+00
      0.5799635340D+01  0.3585208530D+00
 SP   3 1.00       0.000000000000
      0.1553961625D+02 -0.1107775495D+00  0.7087426823D-01
      0.3599933586D+01 -0.1480262627D+00  0.3397528391D+00
      0.1013761750D+01  0.1130767015D+01  0.7271585773D+00
 SP   1 1.00       0.000000000000
      0.2700058226D+00  0.1000000000D+01  0.1000000000D+01
 D   1 1.00       0.000000000000
      0.8000000000D+00  0.1000000000D+01
 ****
      4 0
 S   3 1.00       0.000000000000
      0.1873113696D+02  0.3349460434D-01
      0.2825394365D+01  0.2347269535D+00
      0.6401216923D+00  0.8137573261D+00
 S   1 1.00       0.000000000000
      0.1612777588D+00  0.1000000000D+01
 ****
      5 0
 S   6 1.00       0.000000000000
      0.3047524880D+04  0.1834737132D-02
      0.4573695180D+03  0.1403732281D-01
      0.1039486850D+03  0.6884262226D-01
      0.2921015530D+02  0.2321844432D+00
      0.9286662960D+01  0.4679413484D+00
      0.3163926960D+01  0.3623119853D+00
 SP   3 1.00       0.000000000000
      0.7868272350D+01 -0.1193324198D+00  0.6899906659D-01
      0.1881288540D+01 -0.1608541517D+00  0.3164239610D+00
      0.5442492580D+00  0.1143456438D+01  0.7443082909D+00
 SP   1 1.00       0.000000000000
      0.1687144782D+00  0.1000000000D+01  0.1000000000D+01
 D   1 1.00       0.000000000000
      0.8000000000D+00  0.1000000000D+01
 ****
      6 0
 S   6 1.00       0.000000000000
      0.3047524880D+04  0.1834737132D-02
      0.4573695180D+03  0.1403732281D-01
      0.1039486850D+03  0.6884262226D-01
      0.2921015530D+02  0.2321844432D+00
      0.9286662960D+01  0.4679413484D+00
      0.3163926960D+01  0.3623119853D+00
 SP   3 1.00       0.000000000000
      0.7868272350D+01 -0.1193324198D+00  0.6899906659D-01
      0.1881288540D+01 -0.1608541517D+00  0.3164239610D+00
      0.5442492580D+00  0.1143456438D+01  0.7443082909D+00
 SP   1 1.00       0.000000000000
      0.1687144782D+00  0.1000000000D+01  0.1000000000D+01
 D   1 1.00       0.000000000000
      0.8000000000D+00  0.1000000000D+01
 ****
      7 0
 S   3 1.00       0.000000000000
      0.1873113696D+02  0.3349460434D-01
      0.2825394365D+01  0.2347269535D+00
      0.6401216923D+00  0.8137573261D+00
 S   1 1.00       0.000000000000
      0.1612777588D+00  0.1000000000D+01
 ****
      8 0
 S   6 1.00       0.000000000000
      0.3047524880D+04  0.1834737132D-02
      0.4573695180D+03  0.1403732281D-01
      0.1039486850D+03  0.6884262226D-01
      0.2921015530D+02  0.2321844432D+00
      0.9286662960D+01  0.4679413484D+00
      0.3163926960D+01  0.3623119853D+00
 SP   3 1.00       0.000000000000
      0.7868272350D+01 -0.1193324198D+00  0.6899906659D-01
      0.1881288540D+01 -0.1608541517D+00  0.3164239610D+00
      0.5442492580D+00  0.1143456438D+01  0.7443082909D+00
 SP   1 1.00       0.000000000000
      0.1687144782D+00  0.1000000000D+01  0.1000000000D+01
 D   1 1.00       0.000000000000
      0.8000000000D+00  0.1000000000D+01
 ****
      9 0
 S   3 1.00       0.000000000000
      0.1873113696D+02  0.3349460434D-01
      0.2825394365D+01  0.2347269535D+00
      0.6401216923D+00  0.8137573261D+00
 S   1 1.00       0.000000000000
      0.1612777588D+00  0.1000000000D+01
 ****
     10 0
 S   6 1.00       0.000000000000
      0.3047524880D+04  0.1834737132D-02
      0.4573695180D+03  0.1403732281D-01
      0.1039486850D+03  0.6884262226D-01
      0.2921015530D+02  0.2321844432D+00
      0.9286662960D+01  0.4679413484D+00
      0.3163926960D+01  0.3623119853D+00
 SP   3 1.00       0.000000000000
      0.7868272350D+01 -0.1193324198D+00  0.6899906659D-01
      0.1881288540D+01 -0.1608541517D+00  0.3164239610D+00
      0.5442492580D+00  0.1143456438D+01  0.7443082909D+00
 SP   1 1.00       0.000000000000
      0.1687144782D+00  0.1000000000D+01  0.1000000000D+01
 D   1 1.00       0.000000000000
      0.8000000000D+00  0.1000000000D+01
 ****
     11 0
 S   3 1.00       0.000000000000
      0.1873113696D+02  0.3349460434D-01
      0.2825394365D+01  0.2347269535D+00
      0.6401216923D+00  0.8137573261D+00
 S   1 1.00       0.000000000000
      0.1612777588D+00  0.1000000000D+01
 ****
     12 0
 S   6 1.00       0.000000000000
      0.3047524880D+04  0.1834737132D-02
      0.4573695180D+03  0.1403732281D-01
      0.1039486850D+03  0.6884262226D-01
      0.2921015530D+02  0.2321844432D+00
      0.9286662960D+01  0.4679413484D+00
      0.3163926960D+01  0.3623119853D+00
 SP   3 1.00       0.000000000000
      0.7868272350D+01 -0.1193324198D+00  0.6899906659D-01
      0.1881288540D+01 -0.1608541517D+00  0.3164239610D+00
      0.5442492580D+00  0.1143456438D+01  0.7443082909D+00
 SP   1 1.00       0.000000000000
      0.1687144782D+00  0.1000000000D+01  0.1000000000D+01
 D   1 1.00       0.000000000000
      0.8000000000D+00  0.1000000000D+01
 ****
     13 0
 S   3 1.00       0.000000000000
      0.1873113696D+02  0.3349460434D-01
      0.2825394365D+01  0.2347269535D+00
      0.6401216923D+00  0.8137573261D+00
 S   1 1.00       0.000000000000
      0.1612777588D+00  0.1000000000D+01
 ****
     14 0
 S   6 1.00       0.000000000000
      0.3047524880D+04  0.1834737132D-02
      0.4573695180D+03  0.1403732281D-01
      0.1039486850D+03  0.6884262226D-01
      0.2921015530D+02  0.2321844432D+00
      0.9286662960D+01  0.4679413484D+00
      0.3163926960D+01  0.3623119853D+00
 SP   3 1.00       0.000000000000
      0.7868272350D+01 -0.1193324198D+00  0.6899906659D-01
      0.1881288540D+01 -0.1608541517D+00  0.3164239610D+00
      0.5442492580D+00  0.1143456438D+01  0.7443082909D+00
 SP   1 1.00       0.000000000000
      0.1687144782D+00  0.1000000000D+01  0.1000000000D+01
 D   1 1.00       0.000000000000
      0.8000000000D+00  0.1000000000D+01
 ****
     15 0
 S   3 1.00       0.000000000000
      0.1873113696D+02  0.3349460434D-01
      0.2825394365D+01  0.2347269535D+00
      0.6401216923D+00  0.8137573261D+00
 S   1 1.00       0.000000000000
      0.1612777588D+00  0.1000000000D+01
 ****
     16 0
 S   3 1.00       0.000000000000
      0.1873113696D+02  0.3349460434D-01
      0.2825394365D+01  0.2347269535D+00
      0.6401216923D+00  0.8137573261D+00
 S   1 1.00       0.000000000000
      0.1612777588D+00  0.1000000000D+01
 ****
     17 0
 S   6 1.00       0.000000000000
      0.3047524880D+04  0.1834737132D-02
      0.4573695180D+03  0.1403732281D-01
      0.1039486850D+03  0.6884262226D-01
      0.2921015530D+02  0.2321844432D+00
      0.9286662960D+01  0.4679413484D+00
      0.3163926960D+01  0.3623119853D+00
 SP   3 1.00       0.000000000000
      0.7868272350D+01 -0.1193324198D+00  0.6899906659D-01
      0.1881288540D+01 -0.1608541517D+00  0.3164239610D+00
      0.5442492580D+00  0.1143456438D+01  0.7443082909D+00
 SP   1 1.00       0.000000000000
      0.1687144782D+00  0.1000000000D+01  0.1000000000D+01
 D   1 1.00       0.000000000000
      0.8000000000D+00  0.1000000000D+01
 ****
     18 0
 S   6 1.00       0.000000000000
      0.3047524880D+04  0.1834737132D-02
      0.4573695180D+03  0.1403732281D-01
      0.1039486850D+03  0.6884262226D-01
      0.2921015530D+02  0.2321844432D+00
      0.9286662960D+01  0.4679413484D+00
      0.3163926960D+01  0.3623119853D+00
 SP   3 1.00       0.000000000000
      0.7868272350D+01 -0.1193324198D+00  0.6899906659D-01
      0.1881288540D+01 -0.1608541517D+00  0.3164239610D+00
      0.5442492580D+00  0.1143456438D+01  0.7443082909D+00
 SP   1 1.00       0.000000000000
      0.1687144782D+00  0.1000000000D+01  0.1000000000D+01
 D   1 1.00       0.000000000000
      0.8000000000D+00  0.1000000000D+01
 ****
     19 0
 S   3 1.00       0.000000000000
      0.1873113696D+02  0.3349460434D-01
      0.2825394365D+01  0.2347269535D+00
      0.6401216923D+00  0.8137573261D+00
 S   1 1.00       0.000000000000
      0.1612777588D+00  0.1000000000D+01
 ****
     20 0
 S   3 1.00       0.000000000000
      0.1873113696D+02  0.3349460434D-01
      0.2825394365D+01  0.2347269535D+00
      0.6401216923D+00  0.8137573261D+00
 S   1 1.00       0.000000000000
      0.1612777588D+00  0.1000000000D+01
 ****
     21 0
 S   6 1.00       0.000000000000
      0.3047524880D+04  0.1834737132D-02
      0.4573695180D+03  0.1403732281D-01
      0.1039486850D+03  0.6884262226D-01
      0.2921015530D+02  0.2321844432D+00
      0.9286662960D+01  0.4679413484D+00
      0.3163926960D+01  0.3623119853D+00
 SP   3 1.00       0.000000000000
      0.7868272350D+01 -0.1193324198D+00  0.6899906659D-01
      0.1881288540D+01 -0.1608541517D+00  0.3164239610D+00
      0.5442492580D+00  0.1143456438D+01  0.7443082909D+00
 SP   1 1.00       0.000000000000
      0.1687144782D+00  0.1000000000D+01  0.1000000000D+01
 D   1 1.00       0.000000000000
      0.8000000000D+00  0.1000000000D+01
 ****
     22 0
 S   3 1.00       0.000000000000
      0.1873113696D+02  0.3349460434D-01
      0.2825394365D+01  0.2347269535D+00
      0.6401216923D+00  0.8137573261D+00
 S   1 1.00       0.000000000000
      0.1612777588D+00  0.1000000000D+01
 ****
     23 0
 S   3 1.00       0.000000000000
      0.1873113696D+02  0.3349460434D-01
      0.2825394365D+01  0.2347269535D+00
      0.6401216923D+00  0.8137573261D+00
 S   1 1.00       0.000000000000
      0.1612777588D+00  0.1000000000D+01
 ****
     24 0
 S   6 1.00       0.000000000000
      0.3047524880D+04  0.1834737132D-02
      0.4573695180D+03  0.1403732281D-01
      0.1039486850D+03  0.6884262226D-01
      0.2921015530D+02  0.2321844432D+00
      0.9286662960D+01  0.4679413484D+00
      0.3163926960D+01  0.3623119853D+00
 SP   3 1.00       0.000000000000
      0.7868272350D+01 -0.1193324198D+00  0.6899906659D-01
      0.1881288540D+01 -0.1608541517D+00  0.3164239610D+00
      0.5442492580D+00  0.1143456438D+01  0.7443082909D+00
 SP   1 1.00       0.000000000000
      0.1687144782D+00  0.1000000000D+01  0.1000000000D+01
 D   1 1.00       0.000000000000
      0.8000000000D+00  0.1000000000D+01
 ****
     25 0
 S   3 1.00       0.000000000000
      0.1873113696D+02  0.3349460434D-01
      0.2825394365D+01  0.2347269535D+00
      0.6401216923D+00  0.8137573261D+00
 S   1 1.00       0.000000000000
      0.1612777588D+00  0.1000000000D+01
 ****
     26 0
 S   3 1.00       0.000000000000
      0.1873113696D+02  0.3349460434D-01
      0.2825394365D+01  0.2347269535D+00
      0.6401216923D+00  0.8137573261D+00
 S   1 1.00       0.000000000000
      0.1612777588D+00  0.1000000000D+01
 ****
     27 0
 S   6 1.00       0.000000000000
      0.3047524880D+04  0.1834737132D-02
      0.4573695180D+03  0.1403732281D-01
      0.1039486850D+03  0.6884262226D-01
      0.2921015530D+02  0.2321844432D+00
      0.9286662960D+01  0.4679413484D+00
      0.3163926960D+01  0.3623119853D+00
 SP   3 1.00       0.000000000000
      0.7868272350D+01 -0.1193324198D+00  0.6899906659D-01
      0.1881288540D+01 -0.1608541517D+00  0.3164239610D+00
      0.5442492580D+00  0.1143456438D+01  0.7443082909D+00
 SP   1 1.00       0.000000000000
      0.1687144782D+00  0.1000000000D+01  0.1000000000D+01
 D   1 1.00       0.000000000000
      0.8000000000D+00  0.1000000000D+01
 ****
     28 0
 S   3 1.00       0.000000000000
      0.1873113696D+02  0.3349460434D-01
      0.2825394365D+01  0.2347269535D+00
      0.6401216923D+00  0.8137573261D+00
 S   1 1.00       0.000000000000
      0.1612777588D+00  0.1000000000D+01
 ****
     29 0
 S   6 1.00       0.000000000000
      0.3047524880D+04  0.1834737132D-02
      0.4573695180D+03  0.1403732281D-01
      0.1039486850D+03  0.6884262226D-01
      0.2921015530D+02  0.2321844432D+00
      0.9286662960D+01  0.4679413484D+00
      0.3163926960D+01  0.3623119853D+00
 SP   3 1.00       0.000000000000
      0.7868272350D+01 -0.1193324198D+00  0.6899906659D-01
      0.1881288540D+01 -0.1608541517D+00  0.3164239610D+00
      0.5442492580D+00  0.1143456438D+01  0.7443082909D+00
 SP   1 1.00       0.000000000000
      0.1687144782D+00  0.1000000000D+01  0.1000000000D+01
 D   1 1.00       0.000000000000
      0.8000000000D+00  0.1000000000D+01
 ****
     30 0
 S   3 1.00       0.000000000000
      0.1873113696D+02  0.3349460434D-01
      0.2825394365D+01  0.2347269535D+00
      0.6401216923D+00  0.8137573261D+00
 S   1 1.00       0.000000000000
      0.1612777588D+00  0.1000000000D+01
 ****
     31 0
 S   6 1.00       0.000000000000
      0.3047524880D+04  0.1834737132D-02
      0.4573695180D+03  0.1403732281D-01
      0.1039486850D+03  0.6884262226D-01
      0.2921015530D+02  0.2321844432D+00
      0.9286662960D+01  0.4679413484D+00
      0.3163926960D+01  0.3623119853D+00
 SP   3 1.00       0.000000000000
      0.7868272350D+01 -0.1193324198D+00  0.6899906659D-01
      0.1881288540D+01 -0.1608541517D+00  0.3164239610D+00
      0.5442492580D+00  0.1143456438D+01  0.7443082909D+00
 SP   1 1.00       0.000000000000
      0.1687144782D+00  0.1000000000D+01  0.1000000000D+01
 D   1 1.00       0.000000000000
      0.8000000000D+00  0.1000000000D+01
 ****
     32 0
 S   3 1.00       0.000000000000
      0.1873113696D+02  0.3349460434D-01
      0.2825394365D+01  0.2347269535D+00
      0.6401216923D+00  0.8137573261D+00
 S   1 1.00       0.000000000000
      0.1612777588D+00  0.1000000000D+01
 ****
     33 0
 S   3 1.00       0.000000000000
      0.1873113696D+02  0.3349460434D-01
      0.2825394365D+01  0.2347269535D+00
      0.6401216923D+00  0.8137573261D+00
 S   1 1.00       0.000000000000
      0.1612777588D+00  0.1000000000D+01
 ****
     34 0
 S   3 1.00       0.000000000000
      0.1873113696D+02  0.3349460434D-01
      0.2825394365D+01  0.2347269535D+00
      0.6401216923D+00  0.8137573261D+00
 S   1 1.00       0.000000000000
      0.1612777588D+00  0.1000000000D+01
 ****
     35 0
 S   6 1.00       0.000000000000
      0.3047524880D+04  0.1834737132D-02
      0.4573695180D+03  0.1403732281D-01
      0.1039486850D+03  0.6884262226D-01
      0.2921015530D+02  0.2321844432D+00
      0.9286662960D+01  0.4679413484D+00
      0.3163926960D+01  0.3623119853D+00
 SP   3 1.00       0.000000000000
      0.7868272350D+01 -0.1193324198D+00  0.6899906659D-01
      0.1881288540D+01 -0.1608541517D+00  0.3164239610D+00
      0.5442492580D+00  0.1143456438D+01  0.7443082909D+00
 SP   1 1.00       0.000000000000
      0.1687144782D+00  0.1000000000D+01  0.1000000000D+01
 D   1 1.00       0.000000000000
      0.8000000000D+00  0.1000000000D+01
 ****
     36 0
 S   6 1.00       0.000000000000
      0.3047524880D+04  0.1834737132D-02
      0.4573695180D+03  0.1403732281D-01
      0.1039486850D+03  0.6884262226D-01
      0.2921015530D+02  0.2321844432D+00
      0.9286662960D+01  0.4679413484D+00
      0.3163926960D+01  0.3623119853D+00
 SP   3 1.00       0.000000000000
      0.7868272350D+01 -0.1193324198D+00  0.6899906659D-01
      0.1881288540D+01 -0.1608541517D+00  0.3164239610D+00
      0.5442492580D+00  0.1143456438D+01  0.7443082909D+00
 SP   1 1.00       0.000000000000
      0.1687144782D+00  0.1000000000D+01  0.1000000000D+01
 D   1 1.00       0.000000000000
      0.8000000000D+00  0.1000000000D+01
 ****
     37 0
 S   3 1.00       0.000000000000
      0.1873113696D+02  0.3349460434D-01
      0.2825394365D+01  0.2347269535D+00
      0.6401216923D+00  0.8137573261D+00
 S   1 1.00       0.000000000000
      0.1612777588D+00  0.1000000000D+01
 ****
     38 0
 S   3 1.00       0.000000000000
      0.1873113696D+02  0.3349460434D-01
      0.2825394365D+01  0.2347269535D+00
      0.6401216923D+00  0.8137573261D+00
 S   1 1.00       0.000000000000
      0.1612777588D+00  0.1000000000D+01
 ****
     39 0
 S   6 1.00       0.000000000000
      0.3047524880D+04  0.1834737132D-02
      0.4573695180D+03  0.1403732281D-01
      0.1039486850D+03  0.6884262226D-01
      0.2921015530D+02  0.2321844432D+00
      0.9286662960D+01  0.4679413484D+00
      0.3163926960D+01  0.3623119853D+00
 SP   3 1.00       0.000000000000
      0.7868272350D+01 -0.1193324198D+00  0.6899906659D-01
      0.1881288540D+01 -0.1608541517D+00  0.3164239610D+00
      0.5442492580D+00  0.1143456438D+01  0.7443082909D+00
 SP   1 1.00       0.000000000000
      0.1687144782D+00  0.1000000000D+01  0.1000000000D+01
 D   1 1.00       0.000000000000
      0.8000000000D+00  0.1000000000D+01
 ****
     40 0
 S   3 1.00       0.000000000000
      0.1873113696D+02  0.3349460434D-01
      0.2825394365D+01  0.2347269535D+00
      0.6401216923D+00  0.8137573261D+00
 S   1 1.00       0.000000000000
      0.1612777588D+00  0.1000000000D+01
 ****
     41 0
 S   6 1.00       0.000000000000
      0.3047524880D+04  0.1834737132D-02
      0.4573695180D+03  0.1403732281D-01
      0.1039486850D+03  0.6884262226D-01
      0.2921015530D+02  0.2321844432D+00
      0.9286662960D+01  0.4679413484D+00
      0.3163926960D+01  0.3623119853D+00
 SP   3 1.00       0.000000000000
      0.7868272350D+01 -0.1193324198D+00  0.6899906659D-01
      0.1881288540D+01 -0.1608541517D+00  0.3164239610D+00
      0.5442492580D+00  0.1143456438D+01  0.7443082909D+00
 SP   1 1.00       0.000000000000
      0.1687144782D+00  0.1000000000D+01  0.1000000000D+01
 D   1 1.00       0.000000000000
      0.8000000000D+00  0.1000000000D+01
 ****
     42 0
 S   3 1.00       0.000000000000
      0.1873113696D+02  0.3349460434D-01
      0.2825394365D+01  0.2347269535D+00
      0.6401216923D+00  0.8137573261D+00
 S   1 1.00       0.000000000000
      0.1612777588D+00  0.1000000000D+01
 ****
     43 0
 S   3 1.00       0.000000000000
      0.1873113696D+02  0.3349460434D-01
      0.2825394365D+01  0.2347269535D+00
      0.6401216923D+00  0.8137573261D+00
 S   1 1.00       0.000000000000
      0.1612777588D+00  0.1000000000D+01
 ****
     44 0
 S   3 1.00       0.000000000000
      0.1873113696D+02  0.3349460434D-01
      0.2825394365D+01  0.2347269535D+00
      0.6401216923D+00  0.8137573261D+00
 S   1 1.00       0.000000000000
      0.1612777588D+00  0.1000000000D+01
 ****
     45 0
 S   6 1.00       0.000000000000
      0.3047524880D+04  0.1834737132D-02
      0.4573695180D+03  0.1403732281D-01
      0.1039486850D+03  0.6884262226D-01
      0.2921015530D+02  0.2321844432D+00
      0.9286662960D+01  0.4679413484D+00
      0.3163926960D+01  0.3623119853D+00
 SP   3 1.00       0.000000000000
      0.7868272350D+01 -0.1193324198D+00  0.6899906659D-01
      0.1881288540D+01 -0.1608541517D+00  0.3164239610D+00
      0.5442492580D+00  0.1143456438D+01  0.7443082909D+00
 SP   1 1.00       0.000000000000
      0.1687144782D+00  0.1000000000D+01  0.1000000000D+01
 D   1 1.00       0.000000000000
      0.8000000000D+00  0.1000000000D+01
 ****
     46 0
 S   3 1.00       0.000000000000
      0.1873113696D+02  0.3349460434D-01
      0.2825394365D+01  0.2347269535D+00
      0.6401216923D+00  0.8137573261D+00
 S   1 1.00       0.000000000000
      0.1612777588D+00  0.1000000000D+01
 ****
     47 0
 S   3 1.00       0.000000000000
      0.1873113696D+02  0.3349460434D-01
      0.2825394365D+01  0.2347269535D+00
      0.6401216923D+00  0.8137573261D+00
 S   1 1.00       0.000000000000
      0.1612777588D+00  0.1000000000D+01
 ****
     48 0
 S   6 1.00       0.000000000000
      0.3047524880D+04  0.1834737132D-02
      0.4573695180D+03  0.1403732281D-01
      0.1039486850D+03  0.6884262226D-01
      0.2921015530D+02  0.2321844432D+00
      0.9286662960D+01  0.4679413484D+00
      0.3163926960D+01  0.3623119853D+00
 SP   3 1.00       0.000000000000
      0.7868272350D+01 -0.1193324198D+00  0.6899906659D-01
      0.1881288540D+01 -0.1608541517D+00  0.3164239610D+00
      0.5442492580D+00  0.1143456438D+01  0.7443082909D+00
 SP   1 1.00       0.000000000000
      0.1687144782D+00  0.1000000000D+01  0.1000000000D+01
 D   1 1.00       0.000000000000
      0.8000000000D+00  0.1000000000D+01
 ****
     49 0
 S   3 1.00       0.000000000000
      0.1873113696D+02  0.3349460434D-01
      0.2825394365D+01  0.2347269535D+00
      0.6401216923D+00  0.8137573261D+00
 S   1 1.00       0.000000000000
      0.1612777588D+00  0.1000000000D+01
 ****
     50 0
 S   3 1.00       0.000000000000
      0.1873113696D+02  0.3349460434D-01
      0.2825394365D+01  0.2347269535D+00
      0.6401216923D+00  0.8137573261D+00
 S   1 1.00       0.000000000000
      0.1612777588D+00  0.1000000000D+01
 ****
     51 0
 S   6 1.00       0.000000000000
      0.3047524880D+04  0.1834737132D-02
      0.4573695180D+03  0.1403732281D-01
      0.1039486850D+03  0.6884262226D-01
      0.2921015530D+02  0.2321844432D+00
      0.9286662960D+01  0.4679413484D+00
      0.3163926960D+01  0.3623119853D+00
 SP   3 1.00       0.000000000000
      0.7868272350D+01 -0.1193324198D+00  0.6899906659D-01
      0.1881288540D+01 -0.1608541517D+00  0.3164239610D+00
      0.5442492580D+00  0.1143456438D+01  0.7443082909D+00
 SP   1 1.00       0.000000000000
      0.1687144782D+00  0.1000000000D+01  0.1000000000D+01
 D   1 1.00       0.000000000000
      0.8000000000D+00  0.1000000000D+01
 ****
     52 0
 S   3 1.00       0.000000000000
      0.1873113696D+02  0.3349460434D-01
      0.2825394365D+01  0.2347269535D+00
      0.6401216923D+00  0.8137573261D+00
 S   1 1.00       0.000000000000
      0.1612777588D+00  0.1000000000D+01
 ****
     53 0
 S   3 1.00       0.000000000000
      0.1873113696D+02  0.3349460434D-01
      0.2825394365D+01  0.2347269535D+00
      0.6401216923D+00  0.8137573261D+00
 S   1 1.00       0.000000000000
      0.1612777588D+00  0.1000000000D+01
 ****
     54 0
 S   6 1.00       0.000000000000
      0.3047524880D+04  0.1834737132D-02
      0.4573695180D+03  0.1403732281D-01
      0.1039486850D+03  0.6884262226D-01
      0.2921015530D+02  0.2321844432D+00
      0.9286662960D+01  0.4679413484D+00
      0.3163926960D+01  0.3623119853D+00
 SP   3 1.00       0.000000000000
      0.7868272350D+01 -0.1193324198D+00  0.6899906659D-01
      0.1881288540D+01 -0.1608541517D+00  0.3164239610D+00
      0.5442492580D+00  0.1143456438D+01  0.7443082909D+00
 SP   1 1.00       0.000000000000
      0.1687144782D+00  0.1000000000D+01  0.1000000000D+01
 D   1 1.00       0.000000000000
      0.8000000000D+00  0.1000000000D+01
 ****
     55 0
 S   3 1.00       0.000000000000
      0.1873113696D+02  0.3349460434D-01
      0.2825394365D+01  0.2347269535D+00
      0.6401216923D+00  0.8137573261D+00
 S   1 1.00       0.000000000000
      0.1612777588D+00  0.1000000000D+01
 ****
     56 0
 S   6 1.00       0.000000000000
      0.3047524880D+04  0.1834737132D-02
      0.4573695180D+03  0.1403732281D-01
      0.1039486850D+03  0.6884262226D-01
      0.2921015530D+02  0.2321844432D+00
      0.9286662960D+01  0.4679413484D+00
      0.3163926960D+01  0.3623119853D+00
 SP   3 1.00       0.000000000000
      0.7868272350D+01 -0.1193324198D+00  0.6899906659D-01
      0.1881288540D+01 -0.1608541517D+00  0.3164239610D+00
      0.5442492580D+00  0.1143456438D+01  0.7443082909D+00
 SP   1 1.00       0.000000000000
      0.1687144782D+00  0.1000000000D+01  0.1000000000D+01
 D   1 1.00       0.000000000000
      0.8000000000D+00  0.1000000000D+01
 ****
     57 0
 S   3 1.00       0.000000000000
      0.1873113696D+02  0.3349460434D-01
      0.2825394365D+01  0.2347269535D+00
      0.6401216923D+00  0.8137573261D+00
 S   1 1.00       0.000000000000
      0.1612777588D+00  0.1000000000D+01
 ****
     58 0
 S   3 1.00       0.000000000000
      0.1873113696D+02  0.3349460434D-01
      0.2825394365D+01  0.2347269535D+00
      0.6401216923D+00  0.8137573261D+00
 S   1 1.00       0.000000000000
      0.1612777588D+00  0.1000000000D+01
 ****
     59 0
 S   3 1.00       0.000000000000
      0.1873113696D+02  0.3349460434D-01
      0.2825394365D+01  0.2347269535D+00
      0.6401216923D+00  0.8137573261D+00
 S   1 1.00       0.000000000000
      0.1612777588D+00  0.1000000000D+01
 ****
     60 0
 S   6 1.00       0.000000000000
      0.3047524880D+04  0.1834737132D-02
      0.4573695180D+03  0.1403732281D-01
      0.1039486850D+03  0.6884262226D-01
      0.2921015530D+02  0.2321844432D+00
      0.9286662960D+01  0.4679413484D+00
      0.3163926960D+01  0.3623119853D+00
 SP   3 1.00       0.000000000000
      0.7868272350D+01 -0.1193324198D+00  0.6899906659D-01
      0.1881288540D+01 -0.1608541517D+00  0.3164239610D+00
      0.5442492580D+00  0.1143456438D+01  0.7443082909D+00
 SP   1 1.00       0.000000000000
      0.1687144782D+00  0.1000000000D+01  0.1000000000D+01
 D   1 1.00       0.000000000000
      0.8000000000D+00  0.1000000000D+01
 ****
     61 0
 S   3 1.00       0.000000000000
      0.1873113696D+02  0.3349460434D-01
      0.2825394365D+01  0.2347269535D+00
      0.6401216923D+00  0.8137573261D+00
 S   1 1.00       0.000000000000
      0.1612777588D+00  0.1000000000D+01
 ****
     62 0
 S   3 1.00       0.000000000000
      0.1873113696D+02  0.3349460434D-01
      0.2825394365D+01  0.2347269535D+00
      0.6401216923D+00  0.8137573261D+00
 S   1 1.00       0.000000000000
      0.1612777588D+00  0.1000000000D+01
 ****
     63 0
 S   6 1.00       0.000000000000
      0.3047524880D+04  0.1834737132D-02
      0.4573695180D+03  0.1403732281D-01
      0.1039486850D+03  0.6884262226D-01
      0.2921015530D+02  0.2321844432D+00
      0.9286662960D+01  0.4679413484D+00
      0.3163926960D+01  0.3623119853D+00
 SP   3 1.00       0.000000000000
      0.7868272350D+01 -0.1193324198D+00  0.6899906659D-01
      0.1881288540D+01 -0.1608541517D+00  0.3164239610D+00
      0.5442492580D+00  0.1143456438D+01  0.7443082909D+00
 SP   1 1.00       0.000000000000
      0.1687144782D+00  0.1000000000D+01  0.1000000000D+01
 D   1 1.00       0.000000000000
      0.8000000000D+00  0.1000000000D+01
 ****
     64 0
 S   3 1.00       0.000000000000
      0.1873113696D+02  0.3349460434D-01
      0.2825394365D+01  0.2347269535D+00
      0.6401216923D+00  0.8137573261D+00
 S   1 1.00       0.000000000000
      0.1612777588D+00  0.1000000000D+01
 ****
     65 0
 S   3 1.00       0.000000000000
      0.1873113696D+02  0.3349460434D-01
      0.2825394365D+01  0.2347269535D+00
      0.6401216923D+00  0.8137573261D+00
 S   1 1.00       0.000000000000
      0.1612777588D+00  0.1000000000D+01
 ****
     66 0
 S   6 1.00       0.000000000000
      0.3047524880D+04  0.1834737132D-02
      0.4573695180D+03  0.1403732281D-01
      0.1039486850D+03  0.6884262226D-01
      0.2921015530D+02  0.2321844432D+00
      0.9286662960D+01  0.4679413484D+00
      0.3163926960D+01  0.3623119853D+00
 SP   3 1.00       0.000000000000
      0.7868272350D+01 -0.1193324198D+00  0.6899906659D-01
      0.1881288540D+01 -0.1608541517D+00  0.3164239610D+00
      0.5442492580D+00  0.1143456438D+01  0.7443082909D+00
 SP   1 1.00       0.000000000000
      0.1687144782D+00  0.1000000000D+01  0.1000000000D+01
 D   1 1.00       0.000000000000
      0.8000000000D+00  0.1000000000D+01
 ****
     67 0
 S   3 1.00       0.000000000000
      0.1873113696D+02  0.3349460434D-01
      0.2825394365D+01  0.2347269535D+00
      0.6401216923D+00  0.8137573261D+00
 S   1 1.00       0.000000000000
      0.1612777588D+00  0.1000000000D+01
 ****
     68 0
 S   6 1.00       0.000000000000
      0.3047524880D+04  0.1834737132D-02
      0.4573695180D+03  0.1403732281D-01
      0.1039486850D+03  0.6884262226D-01
      0.2921015530D+02  0.2321844432D+00
      0.9286662960D+01  0.4679413484D+00
      0.3163926960D+01  0.3623119853D+00
 SP   3 1.00       0.000000000000
      0.7868272350D+01 -0.1193324198D+00  0.6899906659D-01
      0.1881288540D+01 -0.1608541517D+00  0.3164239610D+00
      0.5442492580D+00  0.1143456438D+01  0.7443082909D+00
 SP   1 1.00       0.000000000000
      0.1687144782D+00  0.1000000000D+01  0.1000000000D+01
 D   1 1.00       0.000000000000
      0.8000000000D+00  0.1000000000D+01
 ****
     69 0
 S   3 1.00       0.000000000000
      0.1873113696D+02  0.3349460434D-01
      0.2825394365D+01  0.2347269535D+00
      0.6401216923D+00  0.8137573261D+00
 S   1 1.00       0.000000000000
      0.1612777588D+00  0.1000000000D+01
 ****
     70 0
 S   3 1.00       0.000000000000
      0.1873113696D+02  0.3349460434D-01
      0.2825394365D+01  0.2347269535D+00
      0.6401216923D+00  0.8137573261D+00
 S   1 1.00       0.000000000000
      0.1612777588D+00  0.1000000000D+01
 ****
     71 0
 S   3 1.00       0.000000000000
      0.1873113696D+02  0.3349460434D-01
      0.2825394365D+01  0.2347269535D+00
      0.6401216923D+00  0.8137573261D+00
 S   1 1.00       0.000000000000
      0.1612777588D+00  0.1000000000D+01
 ****
     72 0
 S   6 1.00       0.000000000000
      0.3047524880D+04  0.1834737132D-02
      0.4573695180D+03  0.1403732281D-01
      0.1039486850D+03  0.6884262226D-01
      0.2921015530D+02  0.2321844432D+00
      0.9286662960D+01  0.4679413484D+00
      0.3163926960D+01  0.3623119853D+00
 SP   3 1.00       0.000000000000
      0.7868272350D+01 -0.1193324198D+00  0.6899906659D-01
      0.1881288540D+01 -0.1608541517D+00  0.3164239610D+00
      0.5442492580D+00  0.1143456438D+01  0.7443082909D+00
 SP   1 1.00       0.000000000000
      0.1687144782D+00  0.1000000000D+01  0.1000000000D+01
 D   1 1.00       0.000000000000
      0.8000000000D+00  0.1000000000D+01
 ****
     73 0
 S   3 1.00       0.000000000000
      0.1873113696D+02  0.3349460434D-01
      0.2825394365D+01  0.2347269535D+00
      0.6401216923D+00  0.8137573261D+00
 S   1 1.00       0.000000000000
      0.1612777588D+00  0.1000000000D+01
 ****
     74 0
 S   3 1.00       0.000000000000
      0.1873113696D+02  0.3349460434D-01
      0.2825394365D+01  0.2347269535D+00
      0.6401216923D+00  0.8137573261D+00
 S   1 1.00       0.000000000000
      0.1612777588D+00  0.1000000000D+01
 ****
     75 0
 S   3 1.00       0.000000000000
      0.1873113696D+02  0.3349460434D-01
      0.2825394365D+01  0.2347269535D+00
      0.6401216923D+00  0.8137573261D+00
 S   1 1.00       0.000000000000
      0.1612777588D+00  0.1000000000D+01
 ****

 AO basis set (Overlap normalization):
 Atom O1       Shell     1 S   6     bf    1 -     1          0.000000000000          0.000000000000          0.000000000000
      0.5484671660D+04  0.1831074430D-02
      0.8252349460D+03  0.1395017220D-01
      0.1880469580D+03  0.6844507810D-01
      0.5296450000D+02  0.2327143360D+00
      0.1689757040D+02  0.4701928980D+00
      0.5799635340D+01  0.3585208530D+00
 Atom O1       Shell     2 SP   3    bf    2 -     5          0.000000000000          0.000000000000          0.000000000000
      0.1553961625D+02 -0.1107775495D+00  0.7087426823D-01
      0.3599933586D+01 -0.1480262627D+00  0.3397528391D+00
      0.1013761750D+01  0.1130767015D+01  0.7271585773D+00
 Atom O1       Shell     3 SP   1    bf    6 -     9          0.000000000000          0.000000000000          0.000000000000
      0.2700058226D+00  0.1000000000D+01  0.1000000000D+01
 Atom O1       Shell     4 D   1     bf   10 -    15          0.000000000000          0.000000000000          0.000000000000
      0.8000000000D+00  0.1000000000D+01
 Atom H2       Shell     5 S   3     bf   16 -    16          1.826524865981          0.000000000000          0.000000000000
      0.1873113696D+02  0.3349460434D-01
      0.2825394365D+01  0.2347269535D+00
      0.6401216923D+00  0.8137573261D+00
 Atom H2       Shell     6 S   1     bf   17 -    17          1.826524865981          0.000000000000          0.000000000000
      0.1612777588D+00  0.1000000000D+01
 Atom O3       Shell     7 S   6     bf   18 -    18          8.233838021123         -2.467299061271         -9.334888804380
      0.5484671660D+04  0.1831074430D-02
      0.8252349460D+03  0.1395017220D-01
      0.1880469580D+03  0.6844507810D-01
      0.5296450000D+02  0.2327143360D+00
      0.1689757040D+02  0.4701928980D+00
      0.5799635340D+01  0.3585208530D+00
 Atom O3       Shell     8 SP   3    bf   19 -    22          8.233838021123         -2.467299061271         -9.334888804380
      0.1553961625D+02 -0.1107775495D+00  0.7087426823D-01
      0.3599933586D+01 -0.1480262627D+00  0.3397528391D+00
      0.1013761750D+01  0.1130767015D+01  0.7271585773D+00
 Atom O3       Shell     9 SP   1    bf   23 -    26          8.233838021123         -2.467299061271         -9.334888804380
      0.2700058226D+00  0.1000000000D+01  0.1000000000D+01
 Atom O3       Shell    10 D   1     bf   27 -    32          8.233838021123         -2.467299061271         -9.334888804380
      0.8000000000D+00  0.1000000000D+01
 Atom H4       Shell    11 S   3     bf   33 -    33          7.718188659112         -2.103996018586        -11.051052228009
      0.1873113696D+02  0.3349460434D-01
      0.2825394365D+01  0.2347269535D+00
      0.6401216923D+00  0.8137573261D+00
 Atom H4       Shell    12 S   1     bf   34 -    34          7.718188659112         -2.103996018586        -11.051052228009
      0.1612777588D+00  0.1000000000D+01
 Atom C5       Shell    13 S   6     bf   35 -    35         -2.326023683597          7.757707084435         -1.421885821585
      0.3047524880D+04  0.1834737132D-02
      0.4573695180D+03  0.1403732281D-01
      0.1039486850D+03  0.6884262226D-01
      0.2921015530D+02  0.2321844432D+00
      0.9286662960D+01  0.4679413484D+00
      0.3163926960D+01  0.3623119853D+00
 Atom C5       Shell    14 SP   3    bf   36 -    39         -2.326023683597          7.757707084435         -1.421885821585
      0.7868272350D+01 -0.1193324198D+00  0.6899906659D-01
      0.1881288540D+01 -0.1608541517D+00  0.3164239610D+00
      0.5442492580D+00  0.1143456438D+01  0.7443082909D+00
 Atom C5       Shell    15 SP   1    bf   40 -    43         -2.326023683597          7.757707084435         -1.421885821585
      0.1687144782D+00  0.1000000000D+01  0.1000000000D+01
 Atom C5       Shell    16 D   1     bf   44 -    49         -2.326023683597          7.757707084435         -1.421885821585
      0.8000000000D+00  0.1000000000D+01
 Atom C6       Shell    17 S   6     bf   50 -    50         -2.139517692035          4.861100323754         -0.976023951175
      0.3047524880D+04  0.1834737132D-02
      0.4573695180D+03  0.1403732281D-01
      0.1039486850D+03  0.6884262226D-01
      0.2921015530D+02  0.2321844432D+00
      0.9286662960D+01  0.4679413484D+00
      0.3163926960D+01  0.3623119853D+00
 Atom C6       Shell    18 SP   3    bf   51 -    54         -2.139517692035          4.861100323754         -0.976023951175
      0.7868272350D+01 -0.1193324198D+00  0.6899906659D-01
      0.1881288540D+01 -0.1608541517D+00  0.3164239610D+00
      0.5442492580D+00  0.1143456438D+01  0.7443082909D+00
 Atom C6       Shell    19 SP   1    bf   55 -    58         -2.139517692035          4.861100323754         -0.976023951175
      0.1687144782D+00  0.1000000000D+01  0.1000000000D+01
 Atom C6       Shell    20 D   1     bf   59 -    64         -2.139517692035          4.861100323754         -0.976023951175
      0.8000000000D+00  0.1000000000D+01
 Atom H7       Shell    21 S   3     bf   65 -    65         -0.828478953521          4.627580062499          0.618549088446
      0.1873113696D+02  0.3349460434D-01
      0.2825394365D+01  0.2347269535D+00
      0.6401216923D+00  0.8137573261D+00
 Atom H7       Shell    22 S   1     bf   66 -    66         -0.828478953521          4.627580062499          0.618549088446
      0.1612777588D+00  0.1000000000D+01
 Atom C8       Shell    23 S   6     bf   67 -    67         -0.996105390488          3.351084440551         -3.169619898161
      0.3047524880D+04  0.1834737132D-02
      0.4573695180D+03  0.1403732281D-01
      0.1039486850D+03  0.6884262226D-01
      0.2921015530D+02  0.2321844432D+00
      0.9286662960D+01  0.4679413484D+00
      0.3163926960D+01  0.3623119853D+00
 Atom C8       Shell    24 SP   3    bf   68 -    71         -0.996105390488          3.351084440551         -3.169619898161
      0.7868272350D+01 -0.1193324198D+00  0.6899906659D-01
      0.1881288540D+01 -0.1608541517D+00  0.3164239610D+00
      0.5442492580D+00  0.1143456438D+01  0.7443082909D+00
 Atom C8       Shell    25 SP   1    bf   72 -    75         -0.996105390488          3.351084440551         -3.169619898161
      0.1687144782D+00  0.1000000000D+01  0.1000000000D+01
 Atom C8       Shell    26 D   1     bf   76 -    81         -0.996105390488          3.351084440551         -3.169619898161
      0.8000000000D+00  0.1000000000D+01
 Atom H9       Shell    27 S   3     bf   82 -    82         -2.243502593703          3.505653058912         -4.824377389197
      0.1873113696D+02  0.3349460434D-01
      0.2825394365D+01  0.2347269535D+00
      0.6401216923D+00  0.8137573261D+00
 Atom H9       Shell    28 S   1     bf   83 -    83         -2.243502593703          3.505653058912         -4.824377389197
      0.1612777588D+00  0.1000000000D+01
 Atom C10      Shell    29 S   6     bf   84 -    84          1.652314906626          4.391872140889         -3.861798858354
      0.3047524880D+04  0.1834737132D-02
      0.4573695180D+03  0.1403732281D-01
      0.1039486850D+03  0.6884262226D-01
      0.2921015530D+02  0.2321844432D+00
      0.9286662960D+01  0.4679413484D+00
      0.3163926960D+01  0.3623119853D+00
 Atom C10      Shell    30 SP   3    bf   85 -    88          1.652314906626          4.391872140889         -3.861798858354
      0.7868272350D+01 -0.1193324198D+00  0.6899906659D-01
      0.1881288540D+01 -0.1608541517D+00  0.3164239610D+00
      0.5442492580D+00  0.1143456438D+01  0.7443082909D+00
 Atom C10      Shell    31 SP   1    bf   89 -    92          1.652314906626          4.391872140889         -3.861798858354
      0.1687144782D+00  0.1000000000D+01  0.1000000000D+01
 Atom C10      Shell    32 D   1     bf   93 -    98          1.652314906626          4.391872140889         -3.861798858354
      0.8000000000D+00  0.1000000000D+01
 Atom H11      Shell    33 S   3     bf   99 -    99          2.885836739018          3.930190995076         -2.246811655339
      0.1873113696D+02  0.3349460434D-01
      0.2825394365D+01  0.2347269535D+00
      0.6401216923D+00  0.8137573261D+00
 Atom H11      Shell    34 S   1     bf  100 -   100          2.885836739018          3.930190995076         -2.246811655339
      0.1612777588D+00  0.1000000000D+01
 Atom C12      Shell    35 S   6     bf  101 -   101         -3.598605248087          8.583322517050          1.124555858302
      0.3047524880D+04  0.1834737132D-02
      0.4573695180D+03  0.1403732281D-01
      0.1039486850D+03  0.6884262226D-01
      0.2921015530D+02  0.2321844432D+00
      0.9286662960D+01  0.4679413484D+00
      0.3163926960D+01  0.3623119853D+00
 Atom C12      Shell    36 SP   3    bf  102 -   105         -3.598605248087          8.583322517050          1.124555858302
      0.7868272350D+01 -0.1193324198D+00  0.6899906659D-01
      0.1881288540D+01 -0.1608541517D+00  0.3164239610D+00
      0.5442492580D+00  0.1143456438D+01  0.7443082909D+00
 Atom C12      Shell    37 SP   1    bf  106 -   109         -3.598605248087          8.583322517050          1.124555858302
      0.1687144782D+00  0.1000000000D+01  0.1000000000D+01
 Atom C12      Shell    38 D   1     bf  110 -   115         -3.598605248087          8.583322517050          1.124555858302
      0.8000000000D+00  0.1000000000D+01
 Atom H13      Shell    39 S   3     bf  116 -   116         -2.113145486707          8.458532883392          2.577928315611
      0.1873113696D+02  0.3349460434D-01
      0.2825394365D+01  0.2347269535D+00
      0.6401216923D+00  0.8137573261D+00
 Atom H13      Shell    40 S   1     bf  117 -   117         -2.113145486707          8.458532883392          2.577928315611
      0.1612777588D+00  0.1000000000D+01
 Atom C14      Shell    41 S   6     bf  118 -   118          0.395853537529          8.697028869143         -1.875162599395
      0.3047524880D+04  0.1834737132D-02
      0.4573695180D+03  0.1403732281D-01
      0.1039486850D+03  0.6884262226D-01
      0.2921015530D+02  0.2321844432D+00
      0.9286662960D+01  0.4679413484D+00
      0.3163926960D+01  0.3623119853D+00
 Atom C14      Shell    42 SP   3    bf  119 -   122          0.395853537529          8.697028869143         -1.875162599395
      0.7868272350D+01 -0.1193324198D+00  0.6899906659D-01
      0.1881288540D+01 -0.1608541517D+00  0.3164239610D+00
      0.5442492580D+00  0.1143456438D+01  0.7443082909D+00
 Atom C14      Shell    43 SP   1    bf  123 -   126          0.395853537529          8.697028869143         -1.875162599395
      0.1687144782D+00  0.1000000000D+01  0.1000000000D+01
 Atom C14      Shell    44 D   1     bf  127 -   132          0.395853537529          8.697028869143         -1.875162599395
      0.8000000000D+00  0.1000000000D+01
 Atom H15      Shell    45 S   3     bf  133 -   133          1.499960215813          8.389195789117         -0.142046537114
      0.1873113696D+02  0.3349460434D-01
      0.2825394365D+01  0.2347269535D+00
      0.6401216923D+00  0.8137573261D+00
 Atom H15      Shell    46 S   1     bf  134 -   134          1.499960215813          8.389195789117         -0.142046537114
      0.1612777588D+00  0.1000000000D+01
 Atom H16      Shell    47 S   3     bf  135 -   135          0.457364690072         10.728983104030         -2.257860846244
      0.1873113696D+02  0.3349460434D-01
      0.2825394365D+01  0.2347269535D+00
      0.6401216923D+00  0.8137573261D+00
 Atom H16      Shell    48 S   1     bf  136 -   136          0.457364690072         10.728983104030         -2.257860846244
      0.1612777588D+00  0.1000000000D+01
 Atom C17      Shell    49 S   6     bf  137 -   137          2.831845789415          3.011251645259         -6.205636782336
      0.3047524880D+04  0.1834737132D-02
      0.4573695180D+03  0.1403732281D-01
      0.1039486850D+03  0.6884262226D-01
      0.2921015530D+02  0.2321844432D+00
      0.9286662960D+01  0.4679413484D+00
      0.3163926960D+01  0.3623119853D+00
 Atom C17      Shell    50 SP   3    bf  138 -   141          2.831845789415          3.011251645259         -6.205636782336
      0.7868272350D+01 -0.1193324198D+00  0.6899906659D-01
      0.1881288540D+01 -0.1608541517D+00  0.3164239610D+00
      0.5442492580D+00  0.1143456438D+01  0.7443082909D+00
 Atom C17      Shell    51 SP   1    bf  142 -   145          2.831845789415          3.011251645259         -6.205636782336
      0.1687144782D+00  0.1000000000D+01  0.1000000000D+01
 Atom C17      Shell    52 D   1     bf  146 -   151          2.831845789415          3.011251645259         -6.205636782336
      0.8000000000D+00  0.1000000000D+01
 Atom C18      Shell    53 S   6     bf  152 -   152         -4.758218209566          4.110770503129          0.019565052750
      0.3047524880D+04  0.1834737132D-02
      0.4573695180D+03  0.1403732281D-01
      0.1039486850D+03  0.6884262226D-01
      0.2921015530D+02  0.2321844432D+00
      0.9286662960D+01  0.4679413484D+00
      0.3163926960D+01  0.3623119853D+00
 Atom C18      Shell    54 SP   3    bf  153 -   156         -4.758218209566          4.110770503129          0.019565052750
      0.7868272350D+01 -0.1193324198D+00  0.6899906659D-01
      0.1881288540D+01 -0.1608541517D+00  0.3164239610D+00
      0.5442492580D+00  0.1143456438D+01  0.7443082909D+00
 Atom C18      Shell    55 SP   1    bf  157 -   160         -4.758218209566          4.110770503129          0.019565052750
      0.1687144782D+00  0.1000000000D+01  0.1000000000D+01
 Atom C18      Shell    56 D   1     bf  161 -   166         -4.758218209566          4.110770503129          0.019565052750
      0.8000000000D+00  0.1000000000D+01
 Atom H19      Shell    57 S   3     bf  167 -   167         -4.693442744100          2.363589265934          1.121169506867
      0.1873113696D+02  0.3349460434D-01
      0.2825394365D+01  0.2347269535D+00
      0.6401216923D+00  0.8137573261D+00
 Atom H19      Shell    58 S   1     bf  168 -   168         -4.693442744100          2.363589265934          1.121169506867
      0.1612777588D+00  0.1000000000D+01
 Atom H20      Shell    59 S   3     bf  169 -   169         -6.084783807261          3.797652161465         -1.543759740100
      0.1873113696D+02  0.3349460434D-01
      0.2825394365D+01  0.2347269535D+00
      0.6401216923D+00  0.8137573261D+00
 Atom H20      Shell    60 S   1     bf  170 -   170         -6.084783807261          3.797652161465         -1.543759740100
      0.1612777588D+00  0.1000000000D+01
 Atom C21      Shell    61 S   6     bf  171 -   171          1.664754180074          7.305781385221         -4.099899211043
      0.3047524880D+04  0.1834737132D-02
      0.4573695180D+03  0.1403732281D-01
      0.1039486850D+03  0.6884262226D-01
      0.2921015530D+02  0.2321844432D+00
      0.9286662960D+01  0.4679413484D+00
      0.3163926960D+01  0.3623119853D+00
 Atom C21      Shell    62 SP   3    bf  172 -   175          1.664754180074          7.305781385221         -4.099899211043
      0.7868272350D+01 -0.1193324198D+00  0.6899906659D-01
      0.1881288540D+01 -0.1608541517D+00  0.3164239610D+00
      0.5442492580D+00  0.1143456438D+01  0.7443082909D+00
 Atom C21      Shell    63 SP   1    bf  176 -   179          1.664754180074          7.305781385221         -4.099899211043
      0.1687144782D+00  0.1000000000D+01  0.1000000000D+01
 Atom C21      Shell    64 D   1     bf  180 -   185          1.664754180074          7.305781385221         -4.099899211043
      0.8000000000D+00  0.1000000000D+01
 Atom H22      Shell    65 S   3     bf  186 -   186          0.713988761925          7.870520616520         -5.848689852397
      0.1873113696D+02  0.3349460434D-01
      0.2825394365D+01  0.2347269535D+00
      0.6401216923D+00  0.8137573261D+00
 Atom H22      Shell    66 S   1     bf  187 -   187          0.713988761925          7.870520616520         -5.848689852397
      0.1612777588D+00  0.1000000000D+01
 Atom H23      Shell    67 S   3     bf  188 -   188          3.615572702192          7.981132239715         -4.270688444844
      0.1873113696D+02  0.3349460434D-01
      0.2825394365D+01  0.2347269535D+00
      0.6401216923D+00  0.8137573261D+00
 Atom H23      Shell    68 S   1     bf  189 -   189          3.615572702192          7.981132239715         -4.270688444844
      0.1612777588D+00  0.1000000000D+01
 Atom C24      Shell    69 S   6     bf  190 -   190         -5.562935255363          6.423845707674          1.638446301023
      0.3047524880D+04  0.1834737132D-02
      0.4573695180D+03  0.1403732281D-01
      0.1039486850D+03  0.6884262226D-01
      0.2921015530D+02  0.2321844432D+00
      0.9286662960D+01  0.4679413484D+00
      0.3163926960D+01  0.3623119853D+00
 Atom C24      Shell    70 SP   3    bf  191 -   194         -5.562935255363          6.423845707674          1.638446301023
      0.7868272350D+01 -0.1193324198D+00  0.6899906659D-01
      0.1881288540D+01 -0.1608541517D+00  0.3164239610D+00
      0.5442492580D+00  0.1143456438D+01  0.7443082909D+00
 Atom C24      Shell    71 SP   1    bf  195 -   198         -5.562935255363          6.423845707674          1.638446301023
      0.1687144782D+00  0.1000000000D+01  0.1000000000D+01
 Atom C24      Shell    72 D   1     bf  199 -   204         -5.562935255363          6.423845707674          1.638446301023
      0.8000000000D+00  0.1000000000D+01
 Atom H25      Shell    73 S   3     bf  205 -   205         -7.473476551527          7.053389468426          1.140755082042
      0.1873113696D+02  0.3349460434D-01
      0.2825394365D+01  0.2347269535D+00
      0.6401216923D+00  0.8137573261D+00
 Atom H25      Shell    74 S   1     bf  206 -   206         -7.473476551527          7.053389468426          1.140755082042
      0.1612777588D+00  0.1000000000D+01
 Atom H26      Shell    75 S   3     bf  207 -   207         -5.617136928327          5.933914951415          3.645871040328
      0.1873113696D+02  0.3349460434D-01
      0.2825394365D+01  0.2347269535D+00
      0.6401216923D+00  0.8137573261D+00
 Atom H26      Shell    76 S   1     bf  208 -   208         -5.617136928327          5.933914951415          3.645871040328
      0.1612777588D+00  0.1000000000D+01
 Atom C27      Shell    77 S   6     bf  209 -   209         -0.848361952693          0.504960522982         -2.550524395403
      0.3047524880D+04  0.1834737132D-02
      0.4573695180D+03  0.1403732281D-01
      0.1039486850D+03  0.6884262226D-01
      0.2921015530D+02  0.2321844432D+00
      0.9286662960D+01  0.4679413484D+00
      0.3163926960D+01  0.3623119853D+00
 Atom C27      Shell    78 SP   3    bf  210 -   213         -0.848361952693          0.504960522982         -2.550524395403
      0.7868272350D+01 -0.1193324198D+00  0.6899906659D-01
      0.1881288540D+01 -0.1608541517D+00  0.3164239610D+00
      0.5442492580D+00  0.1143456438D+01  0.7443082909D+00
 Atom C27      Shell    79 SP   1    bf  214 -   217         -0.848361952693          0.504960522982         -2.550524395403
      0.1687144782D+00  0.1000000000D+01  0.1000000000D+01
 Atom C27      Shell    80 D   1     bf  218 -   223         -0.848361952693          0.504960522982         -2.550524395403
      0.8000000000D+00  0.1000000000D+01
 Atom H28      Shell    81 S   3     bf  224 -   224         -2.767297865873         -0.274095931657         -2.581529245449
      0.1873113696D+02  0.3349460434D-01
      0.2825394365D+01  0.2347269535D+00
      0.6401216923D+00  0.8137573261D+00
 Atom H28      Shell    82 S   1     bf  225 -   225         -2.767297865873         -0.274095931657         -2.581529245449
      0.1612777588D+00  0.1000000000D+01
 Atom C29      Shell    83 S   6     bf  226 -   226         -4.789655315567         11.249992371861          1.352699697531
      0.3047524880D+04  0.1834737132D-02
      0.4573695180D+03  0.1403732281D-01
      0.1039486850D+03  0.6884262226D-01
      0.2921015530D+02  0.2321844432D+00
      0.9286662960D+01  0.4679413484D+00
      0.3163926960D+01  0.3623119853D+00
 Atom C29      Shell    84 SP   3    bf  227 -   230         -4.789655315567         11.249992371861          1.352699697531
      0.7868272350D+01 -0.1193324198D+00  0.6899906659D-01
      0.1881288540D+01 -0.1608541517D+00  0.3164239610D+00
      0.5442492580D+00  0.1143456438D+01  0.7443082909D+00
 Atom C29      Shell    85 SP   1    bf  231 -   234         -4.789655315567         11.249992371861          1.352699697531
      0.1687144782D+00  0.1000000000D+01  0.1000000000D+01
 Atom C29      Shell    86 D   1     bf  235 -   240         -4.789655315567         11.249992371861          1.352699697531
      0.8000000000D+00  0.1000000000D+01
 Atom H30      Shell    87 S   3     bf  241 -   241         -6.365796930249         11.338918499510          0.000000000000
      0.1873113696D+02  0.3349460434D-01
      0.2825394365D+01  0.2347269535D+00
      0.6401216923D+00  0.8137573261D+00
 Atom H30      Shell    88 S   1     bf  242 -   242         -6.365796930249         11.338918499510          0.000000000000
      0.1612777588D+00  0.1000000000D+01
 Atom C31      Shell    89 S   6     bf  243 -   243         -4.049711165207          8.436728410688         -3.681588489404
      0.3047524880D+04  0.1834737132D-02
      0.4573695180D+03  0.1403732281D-01
      0.1039486850D+03  0.6884262226D-01
      0.2921015530D+02  0.2321844432D+00
      0.9286662960D+01  0.4679413484D+00
      0.3163926960D+01  0.3623119853D+00
 Atom C31      Shell    90 SP   3    bf  244 -   247         -4.049711165207          8.436728410688         -3.681588489404
      0.7868272350D+01 -0.1193324198D+00  0.6899906659D-01
      0.1881288540D+01 -0.1608541517D+00  0.3164239610D+00
      0.5442492580D+00  0.1143456438D+01  0.7443082909D+00
 Atom C31      Shell    91 SP   1    bf  248 -   251         -4.049711165207          8.436728410688         -3.681588489404
      0.1687144782D+00  0.1000000000D+01  0.1000000000D+01
 Atom C31      Shell    92 D   1     bf  252 -   257         -4.049711165207          8.436728410688         -3.681588489404
      0.8000000000D+00  0.1000000000D+01
 Atom H32      Shell    93 S   3     bf  258 -   258         -3.437172709774          7.538119868444         -5.437832191729
      0.1873113696D+02  0.3349460434D-01
      0.2825394365D+01  0.2347269535D+00
      0.6401216923D+00  0.8137573261D+00
 Atom H32      Shell    94 S   1     bf  259 -   259         -3.437172709774          7.538119868444         -5.437832191729
      0.1612777588D+00  0.1000000000D+01
 Atom H33      Shell    95 S   3     bf  260 -   260         -6.009069416411          7.861631855017         -3.356728315516
      0.1873113696D+02  0.3349460434D-01
      0.2825394365D+01  0.2347269535D+00
      0.6401216923D+00  0.8137573261D+00
 Atom H33      Shell    96 S   1     bf  261 -   261         -6.009069416411          7.861631855017         -3.356728315516
      0.1612777588D+00  0.1000000000D+01
 Atom H34      Shell    97 S   3     bf  262 -   262         -4.056343253557         10.478998584945         -4.014059006169
      0.1873113696D+02  0.3349460434D-01
      0.2825394365D+01  0.2347269535D+00
      0.6401216923D+00  0.8137573261D+00
 Atom H34      Shell    98 S   1     bf  263 -   263         -4.056343253557         10.478998584945         -4.014059006169
      0.1612777588D+00  0.1000000000D+01
 Atom C35      Shell    99 S   6     bf  264 -   264          2.422912474663          0.147602294150         -6.004968616216
      0.3047524880D+04  0.1834737132D-02
      0.4573695180D+03  0.1403732281D-01
      0.1039486850D+03  0.6884262226D-01
      0.2921015530D+02  0.2321844432D+00
      0.9286662960D+01  0.4679413484D+00
      0.3163926960D+01  0.3623119853D+00
 Atom C35      Shell   100 SP   3    bf  265 -   268          2.422912474663          0.147602294150         -6.004968616216
      0.7868272350D+01 -0.1193324198D+00  0.6899906659D-01
      0.1881288540D+01 -0.1608541517D+00  0.3164239610D+00
      0.5442492580D+00  0.1143456438D+01  0.7443082909D+00
 Atom C35      Shell   101 SP   1    bf  269 -   272          2.422912474663          0.147602294150         -6.004968616216
      0.1687144782D+00  0.1000000000D+01  0.1000000000D+01
 Atom C35      Shell   102 D   1     bf  273 -   278          2.422912474663          0.147602294150         -6.004968616216
      0.8000000000D+00  0.1000000000D+01
 Atom C36      Shell   103 S   6     bf  279 -   279          5.733622935282          3.531168783665         -6.244725842984
      0.3047524880D+04  0.1834737132D-02
      0.4573695180D+03  0.1403732281D-01
      0.1039486850D+03  0.6884262226D-01
      0.2921015530D+02  0.2321844432D+00
      0.9286662960D+01  0.4679413484D+00
      0.3163926960D+01  0.3623119853D+00
 Atom C36      Shell   104 SP   3    bf  280 -   283          5.733622935282          3.531168783665         -6.244725842984
      0.7868272350D+01 -0.1193324198D+00  0.6899906659D-01
      0.1881288540D+01 -0.1608541517D+00  0.3164239610D+00
      0.5442492580D+00  0.1143456438D+01  0.7443082909D+00
 Atom C36      Shell   105 SP   1    bf  284 -   287          5.733622935282          3.531168783665         -6.244725842984
      0.1687144782D+00  0.1000000000D+01  0.1000000000D+01
 Atom C36      Shell   106 D   1     bf  288 -   293          5.733622935282          3.531168783665         -6.244725842984
      0.8000000000D+00  0.1000000000D+01
 Atom H37      Shell   107 S   3     bf  294 -   294          6.481242019358          3.184943196043         -4.338462452148
      0.1873113696D+02  0.3349460434D-01
      0.2825394365D+01  0.2347269535D+00
      0.6401216923D+00  0.8137573261D+00
 Atom H37      Shell   108 S   1     bf  295 -   295          6.481242019358          3.184943196043         -4.338462452148
      0.1612777588D+00  0.1000000000D+01
 Atom H38      Shell   109 S   3     bf  296 -   296          6.064796457412          5.534226932795         -6.647019623865
      0.1873113696D+02  0.3349460434D-01
      0.2825394365D+01  0.2347269535D+00
      0.6401216923D+00  0.8137573261D+00
 Atom H38      Shell   110 S   1     bf  297 -   297          6.064796457412          5.534226932795         -6.647019623865
      0.1612777588D+00  0.1000000000D+01
 Atom C39      Shell   111 S   6     bf  298 -   298          0.776188360596         -0.915147595435         -4.391741995451
      0.3047524880D+04  0.1834737132D-02
      0.4573695180D+03  0.1403732281D-01
      0.1039486850D+03  0.6884262226D-01
      0.2921015530D+02  0.2321844432D+00
      0.9286662960D+01  0.4679413484D+00
      0.3163926960D+01  0.3623119853D+00
 Atom C39      Shell   112 SP   3    bf  299 -   302          0.776188360596         -0.915147595435         -4.391741995451
      0.7868272350D+01 -0.1193324198D+00  0.6899906659D-01
      0.1881288540D+01 -0.1608541517D+00  0.3164239610D+00
      0.5442492580D+00  0.1143456438D+01  0.7443082909D+00
 Atom C39      Shell   113 SP   1    bf  303 -   306          0.776188360596         -0.915147595435         -4.391741995451
      0.1687144782D+00  0.1000000000D+01  0.1000000000D+01
 Atom C39      Shell   114 D   1     bf  307 -   312          0.776188360596         -0.915147595435         -4.391741995451
      0.8000000000D+00  0.1000000000D+01
 Atom H40      Shell   115 S   3     bf  313 -   313          0.618017300615         -2.967059284703         -4.324080540235
[...]
 1564 Fit      -0.000296
 1565 Fit      -0.001537
 1566 Fit       0.000441
 1567 Fit       0.001150
 1568 Fit      -0.002235
 1569 Fit      -0.000071
 1570 Fit       0.001533
 1571 Fit      -0.000698
 1572 Fit       0.000989
 1573 Fit      -0.001726
 1574 Fit      -0.002150
 1575 Fit      -0.002985
 1576 Fit      -0.002121
 1577 Fit      -0.002217
 1578 Fit      -0.002603
 1579 Fit      -0.003034
 1580 Fit      -0.002982
 1581 Fit      -0.002519
 1582 Fit      -0.002594
 1583 Fit       0.000542
 1584 Fit       0.000016
 1585 Fit      -0.000559
 1586 Fit      -0.001266
 1587 Fit      -0.001913
 1588 Fit      -0.002357
 1589 Fit       0.002378
 1590 Fit       0.001537
 1591 Fit       0.000688
 1592 Fit       0.000538
 1593 Fit       0.003311
 1594 Fit       0.002403
 1595 Fit      -0.000529
 1596 Fit       0.000446
 1597 Fit      -0.000892
 1598 Fit       0.001133
 1599 Fit       0.002080
 1600 Fit       0.002121
 1601 Fit      -0.002323
 1602 Fit      -0.000027
 1603 Fit       0.001613
 1604 Fit       0.002389
 1605 Fit      -0.001949
 1606 Fit      -0.000069
 1607 Fit       0.000710
 1608 Fit      -0.002361
 1609 Fit       0.000384
 1610 Fit       0.002135
 1611 Fit       0.001373
 1612 Fit      -0.000785
 1613 Fit       0.001092
 1614 Fit       0.002868
 1615 Fit       0.002334
 1616 Fit       0.001207
 1617 Fit      -0.000757
 1618 Fit       0.001468
 1619 Fit       0.001175
 1620 Fit       0.000443
 1621 Fit      -0.001088
 1622 Fit      -0.001591
 1623 Fit      -0.001365
 1624 Fit      -0.002191
 1625 Fit      -0.019408
 1626 Fit      -0.009960
 1627 Fit      -0.013762
 1628 Fit      -0.020117
 1629 Fit      -0.023431
 1630 Fit      -0.023126
 1631 Fit      -0.016272
 1632 Fit      -0.024161
 1633 Fit      -0.024433
 1634 Fit      -0.020461
 1635 Fit      -0.012155
 1636 Fit      -0.021042
 1637 Fit      -0.022392
 1638 Fit      -0.019975
 1639 Fit      -0.013139
 1640 Fit      -0.015614
 1641 Fit      -0.015658
 1642 Fit      -0.012353
 1643 Fit      -0.005802
 1644 Fit       0.001983
 1645 Fit       0.010600
 1646 Fit       0.009730
 1647 Fit       0.003468
 1648 Fit      -0.002398
 1649 Fit       0.006629
 1650 Fit       0.015373
 1651 Fit       0.016078
 1652 Fit       0.005263
 1653 Fit       0.011678
 1654 Fit       0.016919
 1655 Fit       0.005329
 1656 Fit       0.011827
 1657 Fit      -0.013787
 1658 Fit      -0.014882
 1659 Fit      -0.018235
 1660 Fit      -0.017827
 1661 Fit      -0.019640
 1662 Fit      -0.018646
 1663 Fit      -0.022719
 1664 Fit      -0.023980
 1665 Fit      -0.023055
 1666 Fit      -0.020345
 1667 Fit      -0.015021
 1668 Fit      -0.016028
 1669 Fit      -0.020752
 1670 Fit      -0.023121
 1671 Fit      -0.023806
 1672 Fit      -0.023004
 1673 Fit      -0.015337
 1674 Fit      -0.010208
 1675 Fit      -0.006333
 1676 Fit      -0.012695
 1677 Fit      -0.016408
 1678 Fit      -0.017964
 1679 Fit      -0.017706
 1680 Fit      -0.004814
 1681 Fit      -0.002649
 1682 Fit      -0.006401
 1683 Fit      -0.007146
 1684 Fit       0.002911
 1685 Fit       0.008318
 1686 Fit       0.015284
 1687 Fit       0.018870
 1688 Fit       0.012015
 1689 Fit       0.005895
 1690 Fit       0.001807
 1691 Fit       0.000666
 1692 Fit       0.012589
 1693 Fit       0.017788
 1694 Fit       0.022433
 1695 Fit       0.021234
 1696 Fit       0.015809
 1697 Fit       0.011763
 1698 Fit       0.018359
 1699 Fit      -0.006378
 1700 Fit      -0.004064
 1701 Fit      -0.013350
 1702 Fit       0.000447
 1703 Fit       0.004618
 1704 Fit       0.005860
 1705 Fit       0.004555
 1706 Fit       0.008697
 1707 Fit       0.010403
 1708 Fit       0.007094
 1709 Fit       0.016893
 1710 Fit      -0.001761
 1711 Fit      -0.000511
 1712 Fit      -0.001918
 1713 Fit       0.000858
 1714 Fit       0.000982
 1715 Fit      -0.004377
 1716 Fit      -0.000851
 1717 Fit       0.000267
 1718 Fit       0.002805
 1719 Fit       0.001294
 1720 Fit       0.002452
 1721 Fit       0.001812
 1722 Fit       0.001689
 1723 Fit       0.003405
 1724 Fit       0.002139
 1725 Fit       0.001247
 1726 Fit       0.004198
 1727 Fit       0.004153
 1728 Fit       0.002443
 1729 Fit       0.000709
 1730 Fit       0.006055
 1731 Fit       0.001517
 1732 Fit       0.001229
 1733 Fit       0.003352
 1734 Fit       0.003062
 1735 Fit       0.003097
 1736 Fit       0.004210
 1737 Fit       0.004344
 1738 Fit       0.005242
 1739 Fit       0.004919
 1740 Fit      -0.005892
 1741 Fit      -0.003770
 1742 Fit      -0.004878
 1743 Fit      -0.003686
 1744 Fit      -0.013042
 1745 Fit      -0.008438
 1746 Fit      -0.014061
 1747 Fit      -0.005991
 1748 Fit      -0.007377
 1749 Fit      -0.012618
 1750 Fit      -0.005800
 1751 Fit      -0.006888
 1752 Fit      -0.011690
 1753 Fit      -0.005374
 1754 Fit      -0.001415
 1755 Fit      -0.002834
 1756 Fit       0.002759
 1757 Fit       0.000909
 1758 Fit      -0.000154
 1759 Fit      -0.000784
 1760 Fit       0.003002
 1761 Fit       0.002097
 1762 Fit       0.001882
 1763 Fit       0.003301
 1764 Fit       0.003878
 1765 Fit       0.004880
 1766 Fit       0.004835
 1767 Fit       0.006600
 1768 Fit       0.005910
 1769 Fit       0.005242
 1770 Fit       0.005887
 1771 Fit       0.004566
 1772 Fit       0.007001
 1773 Fit       0.006378
 1774 Fit       0.004991
 1775 Fit       0.003531
 1776 Fit       0.008150
 1777 Fit       0.006303
 1778 Fit       0.004758
 1779 Fit       0.006630
 1780 Fit       0.009318
 1781 Fit      -0.003447
 1782 Fit      -0.004521
 1783 Fit      -0.005664
 1784 Fit      -0.004237
 1785 Fit      -0.002600
 1786 Fit       0.000312
 1787 Fit      -0.001742
 1788 Fit       0.001494
 1789 Fit      -0.000250
 1790 Fit       0.002953
 1791 Fit       0.001930
 1792 Fit      -0.000541
 1793 Fit      -0.001535
 1794 Fit      -0.000695
 1795 Fit      -0.001889
 1796 Fit      -0.002631
 1797 Fit      -0.002796
 1798 Fit      -0.002431
 1799 Fit      -0.003313
 1800 Fit      -0.004779
 1801 Fit      -0.006499
 1802 Fit      -0.005693
 1803 Fit      -0.005226
 1804 Fit       0.002660
 1805 Fit      -0.010493
 1806 Fit      -0.002137
 1807 Fit      -0.003455
 1808 Fit      -0.005696
 1809 Fit       0.001716
 1810 Fit       0.001305
 1811 Fit       0.000621
 1812 Fit       0.000521
 1813 Fit       0.004337
 1814 Fit       0.003136
 1815 Fit       0.002191
 1816 Fit       0.003557
 1817 Fit       0.002084
 1818 Fit       0.000885
 1819 Fit       0.000412
 1820 Fit       0.000631
 1821 Fit       0.004136
 1822 Fit       0.000814
 1823 Fit       0.000536
 1824 Fit       0.001386
 1825 Fit       0.001894
 1826 Fit       0.002524
 1827 Fit       0.005608
 1828 Fit       0.005577
 1829 Fit       0.003356
 1830 Fit       0.003905
 1831 Fit       0.007171
 1832 Fit       0.006116
 1833 Fit       0.002919
 1834 Fit       0.003394
 1835 Fit       0.001874
 1836 Fit       0.002656
 1837 Fit       0.002992
 1838 Fit       0.001271
 1839 Fit       0.002103
 1840 Fit       0.002621
 1841 Fit       0.003254
 1842 Fit       0.002410
 1843 Fit       0.001168
 1844 Fit       0.004592
 1845 Fit       0.004289
 1846 Fit       0.003377
 1847 Fit       0.002073
 1848 Fit       0.003153
 1849 Fit       0.001994
 1850 Fit       0.006181
 1851 Fit       0.009200
 1852 Fit       0.008495
 1853 Fit       0.012582
 1854 Fit       0.007242
 1855 Fit       0.006725
 1856 Fit       0.006671
 1857 Fit       0.008465
 1858 Fit       0.006207
 1859 Fit       0.005995
 1860 Fit       0.006525
 1861 Fit       0.006402
 1862 Fit       0.006678
 1863 Fit       0.007733
 1864 Fit       0.007286
 1865 Fit       0.008171
 1866 Fit       0.009055
 1867 Fit       0.007921
 1868 Fit       0.009005
 1869 Fit       0.010223
 1870 Fit       0.009371
 1871 Fit       0.001103
 1872 Fit       0.006614
 1873 Fit       0.001655
 1874 Fit       0.000616
 1875 Fit       0.000211
 1876 Fit      -0.001228
 1877 Fit      -0.000312
 1878 Fit      -0.005753
 1879 Fit      -0.003084
 1880 Fit      -0.001489
 1881 Fit       0.000029
 1882 Fit       0.000494
 1883 Fit       0.001537
 1884 Fit       0.002096
 1885 Fit       0.002023
 1886 Fit       0.001679
 1887 Fit       0.002557
 1888 Fit       0.003637
 1889 Fit       0.004503
 1890 Fit       0.002413
 1891 Fit       0.004450
 1892 Fit       0.006942
 1893 Fit       0.005459
 1894 Fit       0.009537
 1895 Fit       0.005199
 1896 Fit       0.005118
 1897 Fit       0.005513
 1898 Fit       0.007840
 1899 Fit       0.006153
 1900 Fit       0.006387
 1901 Fit       0.009473
 1902 Fit       0.008437
 1903 Fit       0.007820
 1904 Fit       0.007144
 1905 Fit       0.008999
 1906 Fit       0.008309
 1907 Fit       0.007440
 1908 Fit       0.006266
 1909 Fit       0.007633
 1910 Fit       0.006408
 1911 Fit       0.009341
 1912 Fit       0.015069
 1913 Fit       0.010017
 1914 Fit       0.007662
 1915 Fit       0.008170
 1916 Fit       0.011757
 1917 Fit       0.016832
 1918 Fit       0.011235
 1919 Fit       0.007099
 1920 Fit       0.006963
 1921 Fit       0.005814
 1922 Fit       0.003099
 1923 Fit       0.005616
 1924 Fit       0.005989
 1925 Fit       0.005700
 1926 Fit       0.004795
 1927 Fit       0.005331
 1928 Fit       0.001250
 1929 Fit       0.003253
 1930 Fit       0.005879
 1931 Fit       0.001527
 1932 Fit       0.002956
 1933 Fit      -0.000844
 1934 Fit       0.002374
 1935 Fit      -0.001962
 1936 Fit      -0.009665
 1937 Fit       0.002857
 1938 Fit       0.003223
 1939 Fit       0.001138
 1940 Fit      -0.004211
 1941 Fit       0.002721
 1942 Fit       0.000160
 1943 Fit      -0.007740
 1944 Fit       0.003486
 1945 Fit       0.003311
 1946 Fit       0.007620
 1947 Fit       0.007076
 1948 Fit       0.007489
 1949 Fit       0.023394
 1950 Fit       0.012547
 1951 Fit       0.012350
 1952 Fit       0.018273
 1953 Fit       0.007313
 1954 Fit       0.005539
 1955 Fit       0.007465
 1956 Fit       0.004214
 1957 Fit       0.005924
 1958 Fit       0.007246
 1959 Fit       0.008595
 1960 Fit       0.010010
 1961 Fit       0.013017
 1962 Fit       0.011205
 1963 Fit       0.012914
 1964 Fit       0.017540
 1965 Fit       0.024695
 1966 Fit       0.016226
 1967 Fit       0.005451
 1968 Fit       0.002684
 1969 Fit       0.005070
 1970 Fit      -0.001049
 1971 Fit       0.000877
 1972 Fit       0.004031
 1973 Fit       0.005689
 1974 Fit      -0.005395
 1975 Fit      -0.000282
 1976 Fit       0.003414
 1977 Fit       0.005249
 1978 Fit       0.006816
 1979 Fit      -0.008610
 1980 Fit      -0.000115
 1981 Fit       0.003569
 1982 Fit       0.005420
 1983 Fit      -0.001727
 1984 Fit      -0.002426
 1985 Fit      -0.001610
 1986 Fit      -0.002311
 1987 Fit      -0.000753
 1988 Fit      -0.001134
 1989 Fit      -0.000753
 1990 Fit      -0.001612
 1991 Fit      -0.001247
 1992 Fit      -0.000717
 1993 Fit       0.000081
 1994 Fit      -0.000304
 1995 Fit      -0.002255
 1996 Fit      -0.000113
 1997 Fit       0.000600
 1998 Fit       0.000935
 1999 Fit      -0.001566
 2000 Fit       0.000518
 2001 Fit       0.000436
 2002 Fit      -0.000297
 2003 Fit       0.009534
 2004 Fit       0.005480
 2005 Fit       0.005852
 2006 Fit       0.003716
 2007 Fit       0.001056
 2008 Fit       0.005658
 2009 Fit      -0.000032
 2010 Fit      -0.002254
 2011 Fit      -0.001895
 2012 Fit      -0.005536
 2013 Fit      -0.010460
 2014 Fit      -0.012573
 2015 Fit      -0.010633
 2016 Fit      -0.000610
 2017 Fit      -0.001318
 2018 Fit      -0.001441
 2019 Fit      -0.000330
 2020 Fit      -0.001122
 2021 Fit      -0.001326
 2022 Fit      -0.000095
 2023 Fit      -0.000654
 2024 Fit       0.001169
 2025 Fit       0.002203
 2026 Fit       0.001004
 2027 Fit       0.000429
 2028 Fit       0.000365
 2029 Fit       0.001511
 2030 Fit       0.000766
 2031 Fit      -0.000429
 2032 Fit       0.001580
 2033 Fit       0.001280
 2034 Fit       0.000673
 2035 Fit      -0.000549
 2036 Fit       0.000223
 2037 Fit       0.000027
 2038 Fit       0.000084
 2039 Fit      -0.001006
 2040 Fit       0.000251
 2041 Fit      -0.000116
 2042 Fit      -0.000015
 2043 Fit       0.000025
 2044 Fit       0.001554
 2045 Fit       0.003612
 2046 Fit       0.002121
 2047 Fit       0.001400
 2048 Fit       0.001602
 2049 Fit       0.004368
 2050 Fit       0.003917
 2051 Fit      -0.002110
 2052 Fit      -0.002712
 2053 Fit      -0.000246
 2054 Fit       0.001353
 2055 Fit       0.002255
 2056 Fit       0.002619
 2057 Fit       0.000506
 2058 Fit      -0.000366
 2059 Fit       0.000473
 2060 Fit       0.001041
 2061 Fit       0.000729
 2062 Fit       0.000095
 2063 Fit      -0.000386
 2064 Fit       0.000445
 2065 Fit       0.000745
 2066 Fit      -0.000078
 2067 Fit      -0.000681
 2068 Fit      -0.000962
 2069 Fit      -0.000739
 2070 Fit      -0.001094
 2071 Fit      -0.001837
 2072 Fit       0.000997
 2073 Fit       0.002123
 2074 Fit       0.003079
 2075 Fit       0.002607
 2076 Fit       0.002735
 2077 Fit       0.000596
 2078 Fit       0.001020
 2079 Fit       0.001412
 2080 Fit       0.000937
 2081 Fit       0.001743
 2082 Fit       0.002177
 2083 Fit       0.001261
 2084 Fit       0.001740
 2085 Fit       0.000675
 2086 Fit       0.001020
 2087 Fit       0.000926
 2088 Fit       0.000653
 2089 Fit       0.000614
 2090 Fit       0.000774
 2091 Fit       0.000906
 2092 Fit       0.000769
 2093 Fit      -0.000565
 2094 Fit       0.000070
 2095 Fit       0.000328
 2096 Fit       0.000073
 2097 Fit      -0.000004
 2098 Fit       0.000496
 2099 Fit      -0.001368
 2100 Fit      -0.001752
 2101 Fit      -0.002030
 2102 Fit      -0.001743
 2103 Fit      -0.002069
 2104 Fit      -0.002153
 2105 Fit      -0.001406
 2106 Fit      -0.001577
 2107 Fit      -0.001785
 2108 Fit      -0.001896
 2109 Fit      -0.001518
 2110 Fit       0.000050
 2111 Fit      -0.000975
 2112 Fit      -0.001346
 2113 Fit      -0.001380
 2114 Fit      -0.000892
 2115 Fit       0.000106
 2116 Fit       0.001307
 2117 Fit       0.002391
 2118 Fit       0.002685
 2119 Fit       0.002217
 2120 Fit       0.000914
 2121 Fit       0.000395
 2122 Fit       0.000867
 2123 Fit       0.001928
 2124 Fit       0.001833
 2125 Fit       0.000518
 2126 Fit      -0.000225
 2127 Fit       0.001722
 2128 Fit       0.000989
 2129 Fit      -0.000329
 2130 Fit       0.002134
 2131 Fit       0.001587
 2132 Fit       0.000655
 2133 Fit      -0.000785
 2134 Fit       0.001157
 2135 Fit       0.001016
 2136 Fit       0.000227
 2137 Fit      -0.001138
 2138 Fit      -0.000441
 2139 Fit      -0.000449
 2140 Fit      -0.001449
 2141 Fit      -0.000579
 2142 Fit      -0.001250
 2143 Fit      -0.000061
 2144 Fit       0.000138
 2145 Fit      -0.000986
 2146 Fit       0.000319
 2147 Fit       0.001081
 2148 Fit      -0.001442
 2149 Fit       0.000012
 2150 Fit       0.001157
 2151 Fit      -0.001002
 2152 Fit       0.000363
 2153 Fit      -0.001000
 2154 Fit      -0.001332
 2155 Fit      -0.001650
 2156 Fit      -0.001903
 2157 Fit      -0.001875
 2158 Fit      -0.002306
 2159 Fit      -0.001953
 2160 Fit      -0.001940
 2161 Fit      -0.002157
 2162 Fit      -0.001826
 2163 Fit      -0.001779
 2164 Fit      -0.000746
 2165 Fit      -0.001001
 2166 Fit      -0.001376
 2167 Fit       0.001041
 2168 Fit       0.000519
 2169 Fit       0.000015
 2170 Fit      -0.000533
 2171 Fit      -0.000990
 2172 Fit      -0.001301
 2173 Fit       0.002072
 2174 Fit       0.001352
 2175 Fit       0.000738
 2176 Fit       0.000741
 2177 Fit       0.002826
 2178 Fit       0.001977
 2179 Fit      -0.000580
 2180 Fit       0.000131
 2181 Fit      -0.000838
 2182 Fit       0.000566
 2183 Fit       0.001289
 2184 Fit       0.001267
 2185 Fit      -0.000523
 2186 Fit       0.000855
 2187 Fit       0.001692
 2188 Fit       0.002179
 2189 Fit      -0.000907
 2190 Fit       0.000440
 2191 Fit       0.001237
 2192 Fit       0.001783
 2193 Fit      -0.000627
 2194 Fit      -0.000125
 2195 Fit       0.000339
 2196 Fit       0.001542
 2197 Fit       0.000943
 2198 Fit      -0.000478
 2199 Fit       0.002309
 2200 Fit       0.001826
 2201 Fit       0.000942
 2202 Fit      -0.000447
 2203 Fit       0.001489
 2204 Fit       0.000904
 2205 Fit      -0.000157
 2206 Fit      -0.001502
 2207 Fit       0.000247
 2208 Fit       0.000134
 2209 Fit      -0.000331
 2210 Fit      -0.001316
 -----------------------------------------------------------------
 Leave Link  602 at Thu May 18 12:39:32 2017, MaxMem=   33554432 cpu:      14.3
 (Enter /scratch/michal/g09/l9999.exe)

 Test job not archived.
 1\1\GINC-RZEPICHA\SP\RHF\6-31G(d)\C27H46O2\MICHAL\18-May-2017\0\\#P HF
 /6-31G* SCF(Conver=6) NoSymm Test Pop=mk IOp(6/33=2) GFInput GFPrint\\
 MEP - Input generated by R.E.D.-III.x MOLECULE\\0,1\O,0,0.,0.,0.\H,0,0
 .96655533,0.,0.\O,0,4.35715942,-1.30563843,-4.9398104\H,0,4.08428953,-
 1.11338674,-5.84796497\C,0,-1.23087872,4.10520178,-0.75242957\C,0,-1.1
 32184,2.5723835,-0.51648963\H,0,-0.43841218,2.4488099,0.32732208\C,0,-
 0.52711627,1.77331751,-1.67729061\H,0,-1.18721044,1.8551117,-2.5529505
 6\C,0,0.87436739,2.32407864,-2.04357594\H,0,1.52711903,2.0797675,-1.18
 896152\C,0,-1.90429988,4.54209865,0.59508933\H,0,-1.11822843,4.4760628
 2,1.36418091\C,0,0.20947667,4.60226946,-0.99229331\H,0,0.79374476,4.43
 937121,-0.07516779\H,0,0.24202697,5.67753333,-1.1948085\C,0,1.49854825
 ,1.59348574,-3.28388155\C,0,-2.51794063,2.17532606,0.01035338\H,0,-2.4
 8366293,1.25075757,0.59329735\H,0,-3.21992891,2.00963097,-0.81692247\C
 ,0,0.88094997,3.866053,-2.16957322\H,0,0.37782658,4.16490013,-3.094993
 37\H,0,1.91327867,4.22343328,-2.25995099\C,0,-2.94377855,3.39935274,0.
 86702844\H,0,-3.95479346,3.73249295,0.60366159\H,0,-2.97246084,3.14009
 255,1.92931186\C,0,-0.44893381,0.2672136,-1.34967938\H,0,-1.46439096,-
 0.14504532,-1.36608644\C,0,-2.53457643,5.95323956,0.71581785\H,0,-3.36
 863465,6.00029724,0.\C,0,-2.14301485,4.46452439,-1.94821272\H,0,-1.818
 87346,3.98900123,-2.87757686\H,0,-3.17986258,4.1601964,-1.77630412\H,0
 ,-2.1465244,5.54524722,-2.12414854\C,0,1.28215006,0.07810777,-3.177692
 53\C,0,3.03410258,1.86861404,-3.30456659\H,0,3.42972556,1.68539935,-2.
 29581545\H,0,3.20935206,2.92858676,-3.51745129\C,0,0.41074119,-0.48427
 525,-2.32400977\H,0,0.32704067,-1.57010015,-2.28820487\C,0,0.86500366,
 2.08411196,-4.61440425\H,0,1.1480175,3.11828048,-4.83228647\H,0,1.1892
 0919,1.47668357,-5.46302723\H,0,-0.22711415,2.02814829,-4.57724848\C,0
 ,2.10275649,-0.79771402,-4.10667071\H,0,1.94154004,-1.8542672,-3.87123
 697\H,0,1.76976853,-0.65234176,-5.14674158\C,0,3.83389137,1.01289604,-
 4.298712\H,0,3.54486523,1.25295553,-5.33259348\H,0,4.90291213,1.237923
 23,-4.21188375\C,0,-3.13004388,6.1763217,2.14016354\H,0,-3.18718467,5.
 22244558,2.67432989\H,0,-2.4373084,6.79967591,2.72366809\C,0,3.6043091
 6,-0.47757601,-4.04992072\H,0,3.98586014,-0.73835283,-3.05500859\C,0,-
 1.55527642,7.09187319,0.37428955\H,0,-0.6404632,7.01096994,0.97451196\
 H,0,-2.00227671,8.06696564,0.58992461\H,0,-1.26442821,7.09298203,-0.67
 933317\C,0,-4.53559851,6.80716126,2.18077192\H,0,-5.2232089,6.15604528
 ,1.62499941\H,0,-4.88580048,6.79970183,3.2231692\C,0,-4.63387207,8.244
 64081,1.64776921\H,0,-4.38035965,8.26926481,0.57811181\H,0,-3.87642175
 ,8.85839711,2.15645415\C,0,-6.0097895,8.91655069,1.83863908\H,0,-6.266
 74528,8.84842404,2.90719214\C,0,-7.12360207,8.21857008,1.04117538\H,0,
 -6.8996657,8.23441238,-0.03358058\H,0,-8.08473523,8.72478669,1.1865302
 1\H,0,-7.25348787,7.17376198,1.34007433\C,0,-5.93824501,10.40670333,1.
 46896408\H,0,-5.68200822,10.53462608,0.40931629\H,0,-6.89883269,10.905
 98321,1.63992962\H,0,-5.17802827,10.92964687,2.06054935\\Version=EM64L
 -G09RevC.01\HF=-1198.9239428\RMSD=4.907e-07\Dipole=-0.0118295,0.657281
 ,-0.7092659\Quadrupole=-5.7593991,-2.4200302,8.1794293,5.762926,2.0906
 559,-3.8949317\PG=C01 [X(C27H46O2)]\\@


 DEMOCRATS BUY MOST OF THE BOOKS THAT HAVE BEEN
 BANNED; REPUBLICANS FORM CENSORSHIP COMMITTEES AND
 READ THEM AS A GROUP.
 Job cpu time:  0 days  0 hours 40 minutes  5.2 seconds.
 File lengths (MBytes):  RWF=    151 Int=      0 D2E=      0 Chk=     11 Scr=      1
 Normal termination of Gaussian 09 at Thu May 18 12:39:32 2017.
