 Entering Gaussian System, Link 0=/scratch/michal/g09//g09
 Input=JOB2-gau_m1-1-3.com
 Output=JOB2-gau_m1-1-3.log
 Initial command:
 /scratch/michal/g09/l1.exe /scratch/michal/gauss_scratch/Gau-48138.inp -scrdir=/scratch/michal/gauss_scratch/
 Entering Link 1 = /scratch/michal/g09/l1.exe PID=     48140.
  
 Copyright (c) 1988,1990,1992,1993,1995,1998,2003,2009,2011,
            Gaussian, Inc.  All Rights Reserved.
  
 This is part of the Gaussian(R) 09 program.  It is based on
 the Gaussian(R) 03 system (copyright 2003, Gaussian, Inc.),
 the Gaussian(R) 98 system (copyright 1998, Gaussian, Inc.),
 the Gaussian(R) 94 system (copyright 1995, Gaussian, Inc.),
 the Gaussian 92(TM) system (copyright 1992, Gaussian, Inc.),
 the Gaussian 90(TM) system (copyright 1990, Gaussian, Inc.),
 the Gaussian 88(TM) system (copyright 1988, Gaussian, Inc.),
 the Gaussian 86(TM) system (copyright 1986, Carnegie Mellon
 University), and the Gaussian 82(TM) system (copyright 1983,
 Carnegie Mellon University). Gaussian is a federally registered
 trademark of Gaussian, Inc.
  
 This software contains proprietary and confidential information,
 including trade secrets, belonging to Gaussian, Inc.
  
 This software is provided under written license and may be
 used, copied, transmitted, or stored only in accord with that
 written license.
  
 The following legend is applicable only to US Government
 contracts under FAR:
  
                    RESTRICTED RIGHTS LEGEND
  
 Use, reproduction and disclosure by the US Government is
 subject to restrictions as set forth in subparagraphs (a)
 and (c) of the Commercial Computer Software - Restricted
 Rights clause in FAR 52.227-19.
  
 Gaussian, Inc.
 340 Quinnipiac St., Bldg. 40, Wallingford CT 06492
  
  
 ---------------------------------------------------------------
 Warning -- This program may not be used in any manner that
 competes with the business of Gaussian, Inc. or will provide
 assistance to any competitor of Gaussian, Inc.  The licensee
 of this program is prohibited from giving any competitor of
 Gaussian, Inc. access to this program.  By using this program,
 the user acknowledges that Gaussian, Inc. is engaged in the
 business of creating and licensing software in the field of
 computational chemistry and represents and warrants to the
 licensee that it is not a competitor of Gaussian, Inc. and that
 it will not use this program in any manner prohibited above.
 ---------------------------------------------------------------
  

 Cite this work as:
 Gaussian 09, Revision C.01,
 M. J. Frisch, G. W. Trucks, H. B. Schlegel, G. E. Scuseria, 
 M. A. Robb, J. R. Cheeseman, G. Scalmani, V. Barone, B. Mennucci, 
 G. A. Petersson, H. Nakatsuji, M. Caricato, X. Li, H. P. Hratchian, 
 A. F. Izmaylov, J. Bloino, G. Zheng, J. L. Sonnenberg, M. Hada, 
 M. Ehara, K. Toyota, R. Fukuda, J. Hasegawa, M. Ishida, T. Nakajima, 
 Y. Honda, O. Kitao, H. Nakai, T. Vreven, J. A. Montgomery, Jr., 
 J. E. Peralta, F. Ogliaro, M. Bearpark, J. J. Heyd, E. Brothers, 
 K. N. Kudin, V. N. Staroverov, T. Keith, R. Kobayashi, J. Normand, 
 K. Raghavachari, A. Rendell, J. C. Burant, S. S. Iyengar, J. Tomasi, 
 M. Cossi, N. Rega, J. M. Millam, M. Klene, J. E. Knox, J. B. Cross, 
 V. Bakken, C. Adamo, J. Jaramillo, R. Gomperts, R. E. Stratmann, 
 O. Yazyev, A. J. Austin, R. Cammi, C. Pomelli, J. W. Ochterski, 
 R. L. Martin, K. Morokuma, V. G. Zakrzewski, G. A. Voth, 
 P. Salvador, J. J. Dannenberg, S. Dapprich, A. D. Daniels, 
 O. Farkas, J. B. Foresman, J. V. Ortiz, J. Cioslowski, 
 and D. J. Fox, Gaussian, Inc., Wallingford CT, 2010.
 
 ******************************************
 Gaussian 09:  EM64L-G09RevC.01 23-Sep-2011
                18-May-2017 
 ******************************************
 %Mem=256MB
 %NProc=48
 Will use up to   48 processors via shared memory.
 ----------------------------------------------------------------------
 #P HF/6-31G* SCF(Conver=6) NoSymm Test Pop=mk IOp(6/33=2) GFInput GFPr
 int
 ----------------------------------------------------------------------
 1/38=1/1;
 2/12=2,15=1,17=6,18=5,40=1/2;
 3/5=1,6=6,7=1,11=9,16=1,24=110,25=1,30=1/1,2,3;
 4//1;
 5/5=2,6=6,38=5/2;
 6/7=2,8=2,9=2,10=2,15=8,20=1,28=1,33=2/1,2;
 99/5=1,9=1/99;
 Leave Link    1 at Thu May 18 12:25:36 2017, MaxMem=   33554432 cpu:       6.8
 (Enter /scratch/michal/g09/l101.exe)
 ----------------------------------------------
 MEP - Input generated by R.E.D.-III.x MOLECULE
 ----------------------------------------------
 Charge =  0 Multiplicity = 1
 Symbolic Z-Matrix:
 O                     5.76396   3.44631   0. 
 H                     5.12877   3.28789   0.71111 
 O                     0.        0.        0. 
 H                    -0.08312  -0.74405  -0.6129 
 C                     8.81915   0.3699    0.37596 
 C                     7.89607   1.54474  -0.05259 
 H                     7.7176    2.12647   0.86301 
 C                     6.51039   1.13071  -0.56298 
 H                     6.62749   0.54586  -1.48685 
 C                     5.77676   0.26877   0.49533 
 H                     5.55379   0.94769   1.33528 
 C                     10.10371   1.17303   0.78508 
 H                     9.86852   1.65069   1.74949 
 C                     8.07945  -0.36942   1.51018 
 H                     7.98025   0.31279   2.36674 
 H                     8.64185  -1.23754   1.86802 
 C                     4.38812  -0.25235  -0.01615 
 C                     8.78006   2.42247  -0.94856 
 H                     8.42652   3.45671  -0.98251 
 H                     8.78642   2.04935  -1.98077 
 C                     6.68186  -0.84814   1.06658 
 H                     6.80952  -1.63978   0.32101 
 H                     6.1878   -1.31982   1.92393 
 C                     10.18728   2.29898  -0.30264 
 H                     10.9436   2.04567  -1.05544 
 H                     10.50029   3.24836   0.14152 
 C                     5.65734   2.35795  -0.94795 
 H                     6.06145   2.7858   -1.87261 
 C                     11.45048   0.42674   0.9736 
 H                     11.73681   0.        0. 
 C                     9.13982  -0.59223  -0.79094 
 H                     8.23877  -1.01179  -1.24591 
 H                     9.7003   -0.09404  -1.58779 
 H                     9.74754  -1.43461  -0.44423 
 C                     3.62972   0.86805  -0.73989 
 C                     3.5403   -0.70307   1.21351 
 H                     3.59041   0.08828   1.97438 
 H                     3.99661  -1.59215   1.66174 
 C                     4.21203   2.00684  -1.15028 
 H                     3.60467   2.7687   -1.63814 
 C                     4.55117  -1.44386  -0.99898 
 H                     4.91979  -2.33641  -0.48463 
 H                     3.60101  -1.71235  -1.46734 
 H                     5.24955  -1.19968  -1.80509 
 C                     2.15168   0.63926  -0.998 
 H                     1.69789   1.5401   -1.42261 
 H                     2.02318  -0.1603   -1.74499 
 C                     2.06116  -0.9894    0.91278 
 H                     1.96555  -1.85461   0.24021 
 H                     1.53448  -1.25155   1.83737 
 C                     12.56314   1.42596   1.3779 
 H                     12.52277   2.29942   0.71738 
 H                     12.34877   1.80159   2.39042 
 C                     1.38713   0.22101   0.26722 
 H                     1.39258   1.05644   0.97819 
 C                     11.37046  -0.72477   1.99149 
 H                     11.00556  -0.36505   2.96192 
 H                     12.35256  -1.17832   2.15495 
 H                     10.70338  -1.52362   1.66008 
 C                     13.99787   0.87405   1.33409 
 H                     14.10836   0.0504    2.04841 
 H                     14.18192   0.44815   0.33826 
 C                     15.0443   1.95839   1.63955 
 H                     14.81848   2.39633   2.62272 
 H                     14.9278   2.77437   0.91172 
 C                     16.52543   1.51339   1.63613 
 H                     17.11136   2.4163    1.86364 
 C                     16.98939   1.00957   0.25935 
 H                     16.4946   0.07081  -0.01523 
 H                     18.06934   0.82254   0.25609 
 H                     16.77516   1.74297  -0.52702 
 C                     16.83928   0.48448   2.73509 
 H                     16.34072  -0.47348   2.54733 
 H                     17.91604   0.2867    2.78752 
 H                     16.51713   0.84192   3.72026 
 
 NAtoms=     75 NQM=        0 NQMF=       0 NMMI=     75 NMMIF=      0
                NMic=       0 NMicF=      0.
                    Isotopes and Nuclear Properties:
 (Nuclear quadrupole moments (NQMom) in fm**2, nuclear magnetic moments (NMagM)
  in nuclear magnetons)

  Atom         1           2           3           4           5           6           7           8           9          10
 IAtWgt=          16           1          16           1          12          12           1          12           1          12
 AtmWgt=  15.9949146   1.0078250  15.9949146   1.0078250  12.0000000  12.0000000   1.0078250  12.0000000   1.0078250  12.0000000
 NucSpn=           0           1           0           1           0           0           1           0           1           0
 AtZEff=   0.0000000   0.0000000   0.0000000   0.0000000   0.0000000   0.0000000   0.0000000   0.0000000   0.0000000   0.0000000
 NQMom=    0.0000000   0.0000000   0.0000000   0.0000000   0.0000000   0.0000000   0.0000000   0.0000000   0.0000000   0.0000000
 NMagM=    0.0000000   2.7928460   0.0000000   2.7928460   0.0000000   0.0000000   2.7928460   0.0000000   2.7928460   0.0000000

  Atom        11          12          13          14          15          16          17          18          19          20
 IAtWgt=           1          12           1          12           1           1          12          12           1           1
 AtmWgt=   1.0078250  12.0000000   1.0078250  12.0000000   1.0078250   1.0078250  12.0000000  12.0000000   1.0078250   1.0078250
 NucSpn=           1           0           1           0           1           1           0           0           1           1
 AtZEff=   0.0000000   0.0000000   0.0000000   0.0000000   0.0000000   0.0000000   0.0000000   0.0000000   0.0000000   0.0000000
 NQMom=    0.0000000   0.0000000   0.0000000   0.0000000   0.0000000   0.0000000   0.0000000   0.0000000   0.0000000   0.0000000
 NMagM=    2.7928460   0.0000000   2.7928460   0.0000000   2.7928460   2.7928460   0.0000000   0.0000000   2.7928460   2.7928460

  Atom        21          22          23          24          25          26          27          28          29          30
 IAtWgt=          12           1           1          12           1           1          12           1          12           1
 AtmWgt=  12.0000000   1.0078250   1.0078250  12.0000000   1.0078250   1.0078250  12.0000000   1.0078250  12.0000000   1.0078250
 NucSpn=           0           1           1           0           1           1           0           1           0           1
 AtZEff=   0.0000000   0.0000000   0.0000000   0.0000000   0.0000000   0.0000000   0.0000000   0.0000000   0.0000000   0.0000000
 NQMom=    0.0000000   0.0000000   0.0000000   0.0000000   0.0000000   0.0000000   0.0000000   0.0000000   0.0000000   0.0000000
 NMagM=    0.0000000   2.7928460   2.7928460   0.0000000   2.7928460   2.7928460   0.0000000   2.7928460   0.0000000   2.7928460

  Atom        31          32          33          34          35          36          37          38          39          40
 IAtWgt=          12           1           1           1          12          12           1           1          12           1
 AtmWgt=  12.0000000   1.0078250   1.0078250   1.0078250  12.0000000  12.0000000   1.0078250   1.0078250  12.0000000   1.0078250
 NucSpn=           0           1           1           1           0           0           1           1           0           1
 AtZEff=   0.0000000   0.0000000   0.0000000   0.0000000   0.0000000   0.0000000   0.0000000   0.0000000   0.0000000   0.0000000
 NQMom=    0.0000000   0.0000000   0.0000000   0.0000000   0.0000000   0.0000000   0.0000000   0.0000000   0.0000000   0.0000000
 NMagM=    0.0000000   2.7928460   2.7928460   2.7928460   0.0000000   0.0000000   2.7928460   2.7928460   0.0000000   2.7928460

  Atom        41          42          43          44          45          46          47          48          49          50
 IAtWgt=          12           1           1           1          12           1           1          12           1           1
 AtmWgt=  12.0000000   1.0078250   1.0078250   1.0078250  12.0000000   1.0078250   1.0078250  12.0000000   1.0078250   1.0078250
 NucSpn=           0           1           1           1           0           1           1           0           1           1
 AtZEff=   0.0000000   0.0000000   0.0000000   0.0000000   0.0000000   0.0000000   0.0000000   0.0000000   0.0000000   0.0000000
 NQMom=    0.0000000   0.0000000   0.0000000   0.0000000   0.0000000   0.0000000   0.0000000   0.0000000   0.0000000   0.0000000
 NMagM=    0.0000000   2.7928460   2.7928460   2.7928460   0.0000000   2.7928460   2.7928460   0.0000000   2.7928460   2.7928460

  Atom        51          52          53          54          55          56          57          58          59          60
 IAtWgt=          12           1           1          12           1          12           1           1           1          12
 AtmWgt=  12.0000000   1.0078250   1.0078250  12.0000000   1.0078250  12.0000000   1.0078250   1.0078250   1.0078250  12.0000000
 NucSpn=           0           1           1           0           1           0           1           1           1           0
 AtZEff=   0.0000000   0.0000000   0.0000000   0.0000000   0.0000000   0.0000000   0.0000000   0.0000000   0.0000000   0.0000000
 NQMom=    0.0000000   0.0000000   0.0000000   0.0000000   0.0000000   0.0000000   0.0000000   0.0000000   0.0000000   0.0000000
 NMagM=    0.0000000   2.7928460   2.7928460   0.0000000   2.7928460   0.0000000   2.7928460   2.7928460   2.7928460   0.0000000

  Atom        61          62          63          64          65          66          67          68          69          70
 IAtWgt=           1           1          12           1           1          12           1          12           1           1
 AtmWgt=   1.0078250   1.0078250  12.0000000   1.0078250   1.0078250  12.0000000   1.0078250  12.0000000   1.0078250   1.0078250
 NucSpn=           1           1           0           1           1           0           1           0           1           1
 AtZEff=   0.0000000   0.0000000   0.0000000   0.0000000   0.0000000   0.0000000   0.0000000   0.0000000   0.0000000   0.0000000
 NQMom=    0.0000000   0.0000000   0.0000000   0.0000000   0.0000000   0.0000000   0.0000000   0.0000000   0.0000000   0.0000000
 NMagM=    2.7928460   2.7928460   0.0000000   2.7928460   2.7928460   0.0000000   2.7928460   0.0000000   2.7928460   2.7928460

  Atom        71          72          73          74          75
 IAtWgt=           1          12           1           1           1
 AtmWgt=   1.0078250  12.0000000   1.0078250   1.0078250   1.0078250
 NucSpn=           1           0           1           1           1
 AtZEff=   0.0000000   0.0000000   0.0000000   0.0000000   0.0000000
 NQMom=    0.0000000   0.0000000   0.0000000   0.0000000   0.0000000
 NMagM=    2.7928460   0.0000000   2.7928460   2.7928460   2.7928460
 Leave Link  101 at Thu May 18 12:25:36 2017, MaxMem=   33554432 cpu:      10.3
 (Enter /scratch/michal/g09/l202.exe)
 Symmetry turned off by external request.
 Stoichiometry    C27H46O2
 Framework group  C1[X(C27H46O2)]
 Deg. of freedom   219
 Full point group                 C1      NOp   1
                          Input orientation:                          
 ---------------------------------------------------------------------
 Center     Atomic      Atomic             Coordinates (Angstroms)
 Number     Number       Type             X           Y           Z
 ---------------------------------------------------------------------
      1          8           0        5.763958    3.446311    0.000000
      2          1           0        5.128768    3.287886    0.711107
      3          8           0        0.000000    0.000000    0.000000
      4          1           0       -0.083120   -0.744048   -0.612899
      5          6           0        8.819149    0.369901    0.375956
      6          6           0        7.896074    1.544737   -0.052595
      7          1           0        7.717597    2.126471    0.863014
      8          6           0        6.510393    1.130714   -0.562980
      9          1           0        6.627490    0.545859   -1.486845
     10          6           0        5.776759    0.268775    0.495330
     11          1           0        5.553788    0.947694    1.335284
     12          6           0       10.103708    1.173030    0.785079
     13          1           0        9.868521    1.650692    1.749493
     14          6           0        8.079445   -0.369425    1.510183
     15          1           0        7.980249    0.312793    2.366741
     16          1           0        8.641850   -1.237539    1.868018
     17          6           0        4.388120   -0.252353   -0.016151
     18          6           0        8.780064    2.422475   -0.948564
     19          1           0        8.426520    3.456709   -0.982505
     20          1           0        8.786424    2.049349   -1.980772
     21          6           0        6.681859   -0.848141    1.066580
     22          1           0        6.809522   -1.639782    0.321013
     23          1           0        6.187800   -1.319819    1.923929
     24          6           0       10.187283    2.298984   -0.302640
     25          1           0       10.943603    2.045670   -1.055439
     26          1           0       10.500288    3.248363    0.141518
     27          6           0        5.657335    2.357947   -0.947951
     28          1           0        6.061445    2.785802   -1.872610
     29          6           0       11.450477    0.426738    0.973596
     30          1           0       11.736805    0.000000    0.000000
     31          6           0        9.139821   -0.592229   -0.790943
     32          1           0        8.238772   -1.011785   -1.245906
     33          1           0        9.700300   -0.094040   -1.587788
     34          1           0        9.747541   -1.434611   -0.444234
     35          6           0        3.629724    0.868053   -0.739890
     36          6           0        3.540297   -0.703072    1.213506
     37          1           0        3.590405    0.088279    1.974376
     38          1           0        3.996611   -1.592151    1.661741
     39          6           0        4.212030    2.006842   -1.150282
     40          1           0        3.604674    2.768698   -1.638142
     41          6           0        4.551174   -1.443861   -0.998976
     42          1           0        4.919790   -2.336412   -0.484627
     43          1           0        3.601014   -1.712348   -1.467344
     44          1           0        5.249547   -1.199681   -1.805090
     45          6           0        2.151682    0.639265   -0.997999
     46          1           0        1.697894    1.540105   -1.422606
     47          1           0        2.023180   -0.160296   -1.744988
     48          6           0        2.061159   -0.989399    0.912780
     49          1           0        1.965555   -1.854606    0.240210
     50          1           0        1.534475   -1.251554    1.837366
     51          6           0       12.563142    1.425960    1.377900
     52          1           0       12.522771    2.299416    0.717380
     53          1           0       12.348770    1.801586    2.390417
     54          6           0        1.387131    0.221012    0.267225
     55          1           0        1.392578    1.056438    0.978189
     56          6           0       11.370464   -0.724769    1.991495
     57          1           0       11.005562   -0.365047    2.961918
     58          1           0       12.352558   -1.178320    2.154950
     59          1           0       10.703383   -1.523619    1.660078
     60          6           0       13.997866    0.874049    1.334092
     61          1           0       14.108356    0.050399    2.048405
     62          1           0       14.181916    0.448154    0.338255
     63          6           0       15.044301    1.958392    1.639553
     64          1           0       14.818483    2.396329    2.622719
     65          1           0       14.927797    2.774367    0.911717
     66          6           0       16.525434    1.513390    1.636125
     67          1           0       17.111355    2.416295    1.863643
     68          6           0       16.989393    1.009571    0.259353
     69          1           0       16.494598    0.070805   -0.015230
     70          1           0       18.069345    0.822536    0.256087
     71          1           0       16.775160    1.742967   -0.527024
     72          6           0       16.839276    0.484479    2.735086
     73          1           0       16.340721   -0.473485    2.547331
     74          1           0       17.916036    0.286696    2.787525
     75          1           0       16.517134    0.841915    3.720258
 ---------------------------------------------------------------------
 Rotational constants (GHZ):      0.5347391      0.0519844      0.0496760
 Leave Link  202 at Thu May 18 12:25:36 2017, MaxMem=   33554432 cpu:       2.8
 (Enter /scratch/michal/g09/l301.exe)
 Standard basis: 6-31G(d) (6D, 7F)
 Ernie: Thresh=  0.10000D-02 Tol=  0.10000D-05 Strict=F.
 AO basis set in the form of general basis input (Overlap normalization):
      1 0
 S   6 1.00       0.000000000000
      0.5484671660D+04  0.1831074430D-02
      0.8252349460D+03  0.1395017220D-01
      0.1880469580D+03  0.6844507810D-01
      0.5296450000D+02  0.2327143360D+00
      0.1689757040D+02  0.4701928980D+00
      0.5799635340D+01  0.3585208530D+00
 SP   3 1.00       0.000000000000
      0.1553961625D+02 -0.1107775495D+00  0.7087426823D-01
      0.3599933586D+01 -0.1480262627D+00  0.3397528391D+00
      0.1013761750D+01  0.1130767015D+01  0.7271585773D+00
 SP   1 1.00       0.000000000000
      0.2700058226D+00  0.1000000000D+01  0.1000000000D+01
 D   1 1.00       0.000000000000
      0.8000000000D+00  0.1000000000D+01
 ****
      2 0
 S   3 1.00       0.000000000000
      0.1873113696D+02  0.3349460434D-01
      0.2825394365D+01  0.2347269535D+00
      0.6401216923D+00  0.8137573261D+00
 S   1 1.00       0.000000000000
      0.1612777588D+00  0.1000000000D+01
 ****
      3 0
 S   6 1.00       0.000000000000
      0.5484671660D+04  0.1831074430D-02
      0.8252349460D+03  0.1395017220D-01
      0.1880469580D+03  0.6844507810D-01
      0.5296450000D+02  0.2327143360D+00
      0.1689757040D+02  0.4701928980D+00
      0.5799635340D+01  0.3585208530D+00
 SP   3 1.00       0.000000000000
      0.1553961625D+02 -0.1107775495D+00  0.7087426823D-01
      0.3599933586D+01 -0.1480262627D+00  0.3397528391D+00
      0.1013761750D+01  0.1130767015D+01  0.7271585773D+00
 SP   1 1.00       0.000000000000
      0.2700058226D+00  0.1000000000D+01  0.1000000000D+01
 D   1 1.00       0.000000000000
      0.8000000000D+00  0.1000000000D+01
 ****
      4 0
 S   3 1.00       0.000000000000
      0.1873113696D+02  0.3349460434D-01
      0.2825394365D+01  0.2347269535D+00
      0.6401216923D+00  0.8137573261D+00
 S   1 1.00       0.000000000000
      0.1612777588D+00  0.1000000000D+01
 ****
      5 0
 S   6 1.00       0.000000000000
      0.3047524880D+04  0.1834737132D-02
      0.4573695180D+03  0.1403732281D-01
      0.1039486850D+03  0.6884262226D-01
      0.2921015530D+02  0.2321844432D+00
      0.9286662960D+01  0.4679413484D+00
      0.3163926960D+01  0.3623119853D+00
 SP   3 1.00       0.000000000000
      0.7868272350D+01 -0.1193324198D+00  0.6899906659D-01
      0.1881288540D+01 -0.1608541517D+00  0.3164239610D+00
      0.5442492580D+00  0.1143456438D+01  0.7443082909D+00
 SP   1 1.00       0.000000000000
      0.1687144782D+00  0.1000000000D+01  0.1000000000D+01
 D   1 1.00       0.000000000000
      0.8000000000D+00  0.1000000000D+01
 ****
      6 0
 S   6 1.00       0.000000000000
      0.3047524880D+04  0.1834737132D-02
      0.4573695180D+03  0.1403732281D-01
      0.1039486850D+03  0.6884262226D-01
      0.2921015530D+02  0.2321844432D+00
      0.9286662960D+01  0.4679413484D+00
      0.3163926960D+01  0.3623119853D+00
 SP   3 1.00       0.000000000000
      0.7868272350D+01 -0.1193324198D+00  0.6899906659D-01
      0.1881288540D+01 -0.1608541517D+00  0.3164239610D+00
      0.5442492580D+00  0.1143456438D+01  0.7443082909D+00
 SP   1 1.00       0.000000000000
      0.1687144782D+00  0.1000000000D+01  0.1000000000D+01
 D   1 1.00       0.000000000000
      0.8000000000D+00  0.1000000000D+01
 ****
      7 0
 S   3 1.00       0.000000000000
      0.1873113696D+02  0.3349460434D-01
      0.2825394365D+01  0.2347269535D+00
      0.6401216923D+00  0.8137573261D+00
 S   1 1.00       0.000000000000
      0.1612777588D+00  0.1000000000D+01
 ****
      8 0
 S   6 1.00       0.000000000000
      0.3047524880D+04  0.1834737132D-02
      0.4573695180D+03  0.1403732281D-01
      0.1039486850D+03  0.6884262226D-01
      0.2921015530D+02  0.2321844432D+00
      0.9286662960D+01  0.4679413484D+00
      0.3163926960D+01  0.3623119853D+00
 SP   3 1.00       0.000000000000
      0.7868272350D+01 -0.1193324198D+00  0.6899906659D-01
      0.1881288540D+01 -0.1608541517D+00  0.3164239610D+00
      0.5442492580D+00  0.1143456438D+01  0.7443082909D+00
 SP   1 1.00       0.000000000000
      0.1687144782D+00  0.1000000000D+01  0.1000000000D+01
 D   1 1.00       0.000000000000
      0.8000000000D+00  0.1000000000D+01
 ****
      9 0
 S   3 1.00       0.000000000000
      0.1873113696D+02  0.3349460434D-01
      0.2825394365D+01  0.2347269535D+00
      0.6401216923D+00  0.8137573261D+00
 S   1 1.00       0.000000000000
      0.1612777588D+00  0.1000000000D+01
 ****
     10 0
 S   6 1.00       0.000000000000
      0.3047524880D+04  0.1834737132D-02
      0.4573695180D+03  0.1403732281D-01
      0.1039486850D+03  0.6884262226D-01
      0.2921015530D+02  0.2321844432D+00
      0.9286662960D+01  0.4679413484D+00
      0.3163926960D+01  0.3623119853D+00
 SP   3 1.00       0.000000000000
      0.7868272350D+01 -0.1193324198D+00  0.6899906659D-01
      0.1881288540D+01 -0.1608541517D+00  0.3164239610D+00
      0.5442492580D+00  0.1143456438D+01  0.7443082909D+00
 SP   1 1.00       0.000000000000
      0.1687144782D+00  0.1000000000D+01  0.1000000000D+01
 D   1 1.00       0.000000000000
      0.8000000000D+00  0.1000000000D+01
 ****
     11 0
 S   3 1.00       0.000000000000
      0.1873113696D+02  0.3349460434D-01
      0.2825394365D+01  0.2347269535D+00
      0.6401216923D+00  0.8137573261D+00
 S   1 1.00       0.000000000000
      0.1612777588D+00  0.1000000000D+01
 ****
     12 0
 S   6 1.00       0.000000000000
      0.3047524880D+04  0.1834737132D-02
      0.4573695180D+03  0.1403732281D-01
      0.1039486850D+03  0.6884262226D-01
      0.2921015530D+02  0.2321844432D+00
      0.9286662960D+01  0.4679413484D+00
      0.3163926960D+01  0.3623119853D+00
 SP   3 1.00       0.000000000000
      0.7868272350D+01 -0.1193324198D+00  0.6899906659D-01
      0.1881288540D+01 -0.1608541517D+00  0.3164239610D+00
      0.5442492580D+00  0.1143456438D+01  0.7443082909D+00
 SP   1 1.00       0.000000000000
      0.1687144782D+00  0.1000000000D+01  0.1000000000D+01
 D   1 1.00       0.000000000000
      0.8000000000D+00  0.1000000000D+01
 ****
     13 0
 S   3 1.00       0.000000000000
      0.1873113696D+02  0.3349460434D-01
      0.2825394365D+01  0.2347269535D+00
      0.6401216923D+00  0.8137573261D+00
 S   1 1.00       0.000000000000
      0.1612777588D+00  0.1000000000D+01
 ****
     14 0
 S   6 1.00       0.000000000000
      0.3047524880D+04  0.1834737132D-02
      0.4573695180D+03  0.1403732281D-01
      0.1039486850D+03  0.6884262226D-01
      0.2921015530D+02  0.2321844432D+00
      0.9286662960D+01  0.4679413484D+00
      0.3163926960D+01  0.3623119853D+00
 SP   3 1.00       0.000000000000
      0.7868272350D+01 -0.1193324198D+00  0.6899906659D-01
      0.1881288540D+01 -0.1608541517D+00  0.3164239610D+00
      0.5442492580D+00  0.1143456438D+01  0.7443082909D+00
 SP   1 1.00       0.000000000000
      0.1687144782D+00  0.1000000000D+01  0.1000000000D+01
 D   1 1.00       0.000000000000
      0.8000000000D+00  0.1000000000D+01
 ****
     15 0
 S   3 1.00       0.000000000000
      0.1873113696D+02  0.3349460434D-01
      0.2825394365D+01  0.2347269535D+00
      0.6401216923D+00  0.8137573261D+00
 S   1 1.00       0.000000000000
      0.1612777588D+00  0.1000000000D+01
 ****
     16 0
 S   3 1.00       0.000000000000
      0.1873113696D+02  0.3349460434D-01
      0.2825394365D+01  0.2347269535D+00
      0.6401216923D+00  0.8137573261D+00
 S   1 1.00       0.000000000000
      0.1612777588D+00  0.1000000000D+01
 ****
     17 0
 S   6 1.00       0.000000000000
      0.3047524880D+04  0.1834737132D-02
      0.4573695180D+03  0.1403732281D-01
      0.1039486850D+03  0.6884262226D-01
      0.2921015530D+02  0.2321844432D+00
      0.9286662960D+01  0.4679413484D+00
      0.3163926960D+01  0.3623119853D+00
 SP   3 1.00       0.000000000000
      0.7868272350D+01 -0.1193324198D+00  0.6899906659D-01
      0.1881288540D+01 -0.1608541517D+00  0.3164239610D+00
      0.5442492580D+00  0.1143456438D+01  0.7443082909D+00
 SP   1 1.00       0.000000000000
      0.1687144782D+00  0.1000000000D+01  0.1000000000D+01
 D   1 1.00       0.000000000000
      0.8000000000D+00  0.1000000000D+01
 ****
     18 0
 S   6 1.00       0.000000000000
      0.3047524880D+04  0.1834737132D-02
      0.4573695180D+03  0.1403732281D-01
      0.1039486850D+03  0.6884262226D-01
      0.2921015530D+02  0.2321844432D+00
      0.9286662960D+01  0.4679413484D+00
      0.3163926960D+01  0.3623119853D+00
 SP   3 1.00       0.000000000000
      0.7868272350D+01 -0.1193324198D+00  0.6899906659D-01
      0.1881288540D+01 -0.1608541517D+00  0.3164239610D+00
      0.5442492580D+00  0.1143456438D+01  0.7443082909D+00
 SP   1 1.00       0.000000000000
      0.1687144782D+00  0.1000000000D+01  0.1000000000D+01
 D   1 1.00       0.000000000000
      0.8000000000D+00  0.1000000000D+01
 ****
     19 0
 S   3 1.00       0.000000000000
      0.1873113696D+02  0.3349460434D-01
      0.2825394365D+01  0.2347269535D+00
      0.6401216923D+00  0.8137573261D+00
 S   1 1.00       0.000000000000
      0.1612777588D+00  0.1000000000D+01
 ****
     20 0
 S   3 1.00       0.000000000000
      0.1873113696D+02  0.3349460434D-01
      0.2825394365D+01  0.2347269535D+00
      0.6401216923D+00  0.8137573261D+00
 S   1 1.00       0.000000000000
      0.1612777588D+00  0.1000000000D+01
 ****
     21 0
 S   6 1.00       0.000000000000
      0.3047524880D+04  0.1834737132D-02
      0.4573695180D+03  0.1403732281D-01
      0.1039486850D+03  0.6884262226D-01
      0.2921015530D+02  0.2321844432D+00
      0.9286662960D+01  0.4679413484D+00
      0.3163926960D+01  0.3623119853D+00
 SP   3 1.00       0.000000000000
      0.7868272350D+01 -0.1193324198D+00  0.6899906659D-01
      0.1881288540D+01 -0.1608541517D+00  0.3164239610D+00
      0.5442492580D+00  0.1143456438D+01  0.7443082909D+00
 SP   1 1.00       0.000000000000
      0.1687144782D+00  0.1000000000D+01  0.1000000000D+01
 D   1 1.00       0.000000000000
      0.8000000000D+00  0.1000000000D+01
 ****
     22 0
 S   3 1.00       0.000000000000
      0.1873113696D+02  0.3349460434D-01
      0.2825394365D+01  0.2347269535D+00
      0.6401216923D+00  0.8137573261D+00
 S   1 1.00       0.000000000000
      0.1612777588D+00  0.1000000000D+01
 ****
     23 0
 S   3 1.00       0.000000000000
      0.1873113696D+02  0.3349460434D-01
      0.2825394365D+01  0.2347269535D+00
      0.6401216923D+00  0.8137573261D+00
 S   1 1.00       0.000000000000
      0.1612777588D+00  0.1000000000D+01
 ****
     24 0
 S   6 1.00       0.000000000000
      0.3047524880D+04  0.1834737132D-02
      0.4573695180D+03  0.1403732281D-01
      0.1039486850D+03  0.6884262226D-01
      0.2921015530D+02  0.2321844432D+00
      0.9286662960D+01  0.4679413484D+00
      0.3163926960D+01  0.3623119853D+00
 SP   3 1.00       0.000000000000
      0.7868272350D+01 -0.1193324198D+00  0.6899906659D-01
      0.1881288540D+01 -0.1608541517D+00  0.3164239610D+00
      0.5442492580D+00  0.1143456438D+01  0.7443082909D+00
 SP   1 1.00       0.000000000000
      0.1687144782D+00  0.1000000000D+01  0.1000000000D+01
 D   1 1.00       0.000000000000
      0.8000000000D+00  0.1000000000D+01
 ****
     25 0
 S   3 1.00       0.000000000000
      0.1873113696D+02  0.3349460434D-01
      0.2825394365D+01  0.2347269535D+00
      0.6401216923D+00  0.8137573261D+00
 S   1 1.00       0.000000000000
      0.1612777588D+00  0.1000000000D+01
 ****
     26 0
 S   3 1.00       0.000000000000
      0.1873113696D+02  0.3349460434D-01
      0.2825394365D+01  0.2347269535D+00
      0.6401216923D+00  0.8137573261D+00
 S   1 1.00       0.000000000000
      0.1612777588D+00  0.1000000000D+01
 ****
     27 0
 S   6 1.00       0.000000000000
      0.3047524880D+04  0.1834737132D-02
      0.4573695180D+03  0.1403732281D-01
      0.1039486850D+03  0.6884262226D-01
      0.2921015530D+02  0.2321844432D+00
      0.9286662960D+01  0.4679413484D+00
      0.3163926960D+01  0.3623119853D+00
 SP   3 1.00       0.000000000000
      0.7868272350D+01 -0.1193324198D+00  0.6899906659D-01
      0.1881288540D+01 -0.1608541517D+00  0.3164239610D+00
      0.5442492580D+00  0.1143456438D+01  0.7443082909D+00
 SP   1 1.00       0.000000000000
      0.1687144782D+00  0.1000000000D+01  0.1000000000D+01
 D   1 1.00       0.000000000000
      0.8000000000D+00  0.1000000000D+01
 ****
     28 0
 S   3 1.00       0.000000000000
      0.1873113696D+02  0.3349460434D-01
      0.2825394365D+01  0.2347269535D+00
      0.6401216923D+00  0.8137573261D+00
 S   1 1.00       0.000000000000
      0.1612777588D+00  0.1000000000D+01
 ****
     29 0
 S   6 1.00       0.000000000000
      0.3047524880D+04  0.1834737132D-02
      0.4573695180D+03  0.1403732281D-01
      0.1039486850D+03  0.6884262226D-01
      0.2921015530D+02  0.2321844432D+00
      0.9286662960D+01  0.4679413484D+00
      0.3163926960D+01  0.3623119853D+00
 SP   3 1.00       0.000000000000
      0.7868272350D+01 -0.1193324198D+00  0.6899906659D-01
      0.1881288540D+01 -0.1608541517D+00  0.3164239610D+00
      0.5442492580D+00  0.1143456438D+01  0.7443082909D+00
 SP   1 1.00       0.000000000000
      0.1687144782D+00  0.1000000000D+01  0.1000000000D+01
 D   1 1.00       0.000000000000
      0.8000000000D+00  0.1000000000D+01
 ****
     30 0
 S   3 1.00       0.000000000000
      0.1873113696D+02  0.3349460434D-01
      0.2825394365D+01  0.2347269535D+00
      0.6401216923D+00  0.8137573261D+00
 S   1 1.00       0.000000000000
      0.1612777588D+00  0.1000000000D+01
 ****
     31 0
 S   6 1.00       0.000000000000
      0.3047524880D+04  0.1834737132D-02
      0.4573695180D+03  0.1403732281D-01
      0.1039486850D+03  0.6884262226D-01
      0.2921015530D+02  0.2321844432D+00
      0.9286662960D+01  0.4679413484D+00
      0.3163926960D+01  0.3623119853D+00
 SP   3 1.00       0.000000000000
      0.7868272350D+01 -0.1193324198D+00  0.6899906659D-01
      0.1881288540D+01 -0.1608541517D+00  0.3164239610D+00
      0.5442492580D+00  0.1143456438D+01  0.7443082909D+00
 SP   1 1.00       0.000000000000
      0.1687144782D+00  0.1000000000D+01  0.1000000000D+01
 D   1 1.00       0.000000000000
      0.8000000000D+00  0.1000000000D+01
 ****
     32 0
 S   3 1.00       0.000000000000
      0.1873113696D+02  0.3349460434D-01
      0.2825394365D+01  0.2347269535D+00
      0.6401216923D+00  0.8137573261D+00
 S   1 1.00       0.000000000000
      0.1612777588D+00  0.1000000000D+01
 ****
     33 0
 S   3 1.00       0.000000000000
      0.1873113696D+02  0.3349460434D-01
      0.2825394365D+01  0.2347269535D+00
      0.6401216923D+00  0.8137573261D+00
 S   1 1.00       0.000000000000
      0.1612777588D+00  0.1000000000D+01
 ****
     34 0
 S   3 1.00       0.000000000000
      0.1873113696D+02  0.3349460434D-01
      0.2825394365D+01  0.2347269535D+00
      0.6401216923D+00  0.8137573261D+00
 S   1 1.00       0.000000000000
      0.1612777588D+00  0.1000000000D+01
 ****
     35 0
 S   6 1.00       0.000000000000
      0.3047524880D+04  0.1834737132D-02
      0.4573695180D+03  0.1403732281D-01
      0.1039486850D+03  0.6884262226D-01
      0.2921015530D+02  0.2321844432D+00
      0.9286662960D+01  0.4679413484D+00
      0.3163926960D+01  0.3623119853D+00
 SP   3 1.00       0.000000000000
      0.7868272350D+01 -0.1193324198D+00  0.6899906659D-01
      0.1881288540D+01 -0.1608541517D+00  0.3164239610D+00
      0.5442492580D+00  0.1143456438D+01  0.7443082909D+00
 SP   1 1.00       0.000000000000
      0.1687144782D+00  0.1000000000D+01  0.1000000000D+01
 D   1 1.00       0.000000000000
      0.8000000000D+00  0.1000000000D+01
 ****
     36 0
 S   6 1.00       0.000000000000
      0.3047524880D+04  0.1834737132D-02
      0.4573695180D+03  0.1403732281D-01
      0.1039486850D+03  0.6884262226D-01
      0.2921015530D+02  0.2321844432D+00
      0.9286662960D+01  0.4679413484D+00
      0.3163926960D+01  0.3623119853D+00
 SP   3 1.00       0.000000000000
      0.7868272350D+01 -0.1193324198D+00  0.6899906659D-01
      0.1881288540D+01 -0.1608541517D+00  0.3164239610D+00
      0.5442492580D+00  0.1143456438D+01  0.7443082909D+00
 SP   1 1.00       0.000000000000
      0.1687144782D+00  0.1000000000D+01  0.1000000000D+01
 D   1 1.00       0.000000000000
      0.8000000000D+00  0.1000000000D+01
 ****
     37 0
 S   3 1.00       0.000000000000
      0.1873113696D+02  0.3349460434D-01
      0.2825394365D+01  0.2347269535D+00
      0.6401216923D+00  0.8137573261D+00
 S   1 1.00       0.000000000000
      0.1612777588D+00  0.1000000000D+01
 ****
     38 0
 S   3 1.00       0.000000000000
      0.1873113696D+02  0.3349460434D-01
      0.2825394365D+01  0.2347269535D+00
      0.6401216923D+00  0.8137573261D+00
 S   1 1.00       0.000000000000
      0.1612777588D+00  0.1000000000D+01
 ****
     39 0
 S   6 1.00       0.000000000000
      0.3047524880D+04  0.1834737132D-02
      0.4573695180D+03  0.1403732281D-01
      0.1039486850D+03  0.6884262226D-01
      0.2921015530D+02  0.2321844432D+00
      0.9286662960D+01  0.4679413484D+00
      0.3163926960D+01  0.3623119853D+00
 SP   3 1.00       0.000000000000
      0.7868272350D+01 -0.1193324198D+00  0.6899906659D-01
      0.1881288540D+01 -0.1608541517D+00  0.3164239610D+00
      0.5442492580D+00  0.1143456438D+01  0.7443082909D+00
 SP   1 1.00       0.000000000000
      0.1687144782D+00  0.1000000000D+01  0.1000000000D+01
 D   1 1.00       0.000000000000
      0.8000000000D+00  0.1000000000D+01
 ****
     40 0
 S   3 1.00       0.000000000000
      0.1873113696D+02  0.3349460434D-01
      0.2825394365D+01  0.2347269535D+00
      0.6401216923D+00  0.8137573261D+00
 S   1 1.00       0.000000000000
      0.1612777588D+00  0.1000000000D+01
 ****
     41 0
 S   6 1.00       0.000000000000
      0.3047524880D+04  0.1834737132D-02
      0.4573695180D+03  0.1403732281D-01
      0.1039486850D+03  0.6884262226D-01
      0.2921015530D+02  0.2321844432D+00
      0.9286662960D+01  0.4679413484D+00
      0.3163926960D+01  0.3623119853D+00
 SP   3 1.00       0.000000000000
      0.7868272350D+01 -0.1193324198D+00  0.6899906659D-01
      0.1881288540D+01 -0.1608541517D+00  0.3164239610D+00
      0.5442492580D+00  0.1143456438D+01  0.7443082909D+00
 SP   1 1.00       0.000000000000
      0.1687144782D+00  0.1000000000D+01  0.1000000000D+01
 D   1 1.00       0.000000000000
      0.8000000000D+00  0.1000000000D+01
 ****
     42 0
 S   3 1.00       0.000000000000
      0.1873113696D+02  0.3349460434D-01
      0.2825394365D+01  0.2347269535D+00
      0.6401216923D+00  0.8137573261D+00
 S   1 1.00       0.000000000000
      0.1612777588D+00  0.1000000000D+01
 ****
     43 0
 S   3 1.00       0.000000000000
      0.1873113696D+02  0.3349460434D-01
      0.2825394365D+01  0.2347269535D+00
      0.6401216923D+00  0.8137573261D+00
 S   1 1.00       0.000000000000
      0.1612777588D+00  0.1000000000D+01
 ****
     44 0
 S   3 1.00       0.000000000000
      0.1873113696D+02  0.3349460434D-01
      0.2825394365D+01  0.2347269535D+00
      0.6401216923D+00  0.8137573261D+00
 S   1 1.00       0.000000000000
      0.1612777588D+00  0.1000000000D+01
 ****
     45 0
 S   6 1.00       0.000000000000
      0.3047524880D+04  0.1834737132D-02
      0.4573695180D+03  0.1403732281D-01
      0.1039486850D+03  0.6884262226D-01
      0.2921015530D+02  0.2321844432D+00
      0.9286662960D+01  0.4679413484D+00
      0.3163926960D+01  0.3623119853D+00
 SP   3 1.00       0.000000000000
      0.7868272350D+01 -0.1193324198D+00  0.6899906659D-01
      0.1881288540D+01 -0.1608541517D+00  0.3164239610D+00
      0.5442492580D+00  0.1143456438D+01  0.7443082909D+00
 SP   1 1.00       0.000000000000
      0.1687144782D+00  0.1000000000D+01  0.1000000000D+01
 D   1 1.00       0.000000000000
      0.8000000000D+00  0.1000000000D+01
 ****
     46 0
 S   3 1.00       0.000000000000
      0.1873113696D+02  0.3349460434D-01
      0.2825394365D+01  0.2347269535D+00
      0.6401216923D+00  0.8137573261D+00
 S   1 1.00       0.000000000000
      0.1612777588D+00  0.1000000000D+01
 ****
     47 0
 S   3 1.00       0.000000000000
      0.1873113696D+02  0.3349460434D-01
      0.2825394365D+01  0.2347269535D+00
      0.6401216923D+00  0.8137573261D+00
 S   1 1.00       0.000000000000
      0.1612777588D+00  0.1000000000D+01
 ****
     48 0
 S   6 1.00       0.000000000000
      0.3047524880D+04  0.1834737132D-02
      0.4573695180D+03  0.1403732281D-01
      0.1039486850D+03  0.6884262226D-01
      0.2921015530D+02  0.2321844432D+00
      0.9286662960D+01  0.4679413484D+00
      0.3163926960D+01  0.3623119853D+00
 SP   3 1.00       0.000000000000
      0.7868272350D+01 -0.1193324198D+00  0.6899906659D-01
      0.1881288540D+01 -0.1608541517D+00  0.3164239610D+00
      0.5442492580D+00  0.1143456438D+01  0.7443082909D+00
 SP   1 1.00       0.000000000000
      0.1687144782D+00  0.1000000000D+01  0.1000000000D+01
 D   1 1.00       0.000000000000
      0.8000000000D+00  0.1000000000D+01
 ****
     49 0
 S   3 1.00       0.000000000000
      0.1873113696D+02  0.3349460434D-01
      0.2825394365D+01  0.2347269535D+00
      0.6401216923D+00  0.8137573261D+00
 S   1 1.00       0.000000000000
      0.1612777588D+00  0.1000000000D+01
 ****
     50 0
 S   3 1.00       0.000000000000
      0.1873113696D+02  0.3349460434D-01
      0.2825394365D+01  0.2347269535D+00
      0.6401216923D+00  0.8137573261D+00
 S   1 1.00       0.000000000000
      0.1612777588D+00  0.1000000000D+01
 ****
     51 0
 S   6 1.00       0.000000000000
      0.3047524880D+04  0.1834737132D-02
      0.4573695180D+03  0.1403732281D-01
      0.1039486850D+03  0.6884262226D-01
      0.2921015530D+02  0.2321844432D+00
      0.9286662960D+01  0.4679413484D+00
      0.3163926960D+01  0.3623119853D+00
 SP   3 1.00       0.000000000000
      0.7868272350D+01 -0.1193324198D+00  0.6899906659D-01
      0.1881288540D+01 -0.1608541517D+00  0.3164239610D+00
      0.5442492580D+00  0.1143456438D+01  0.7443082909D+00
 SP   1 1.00       0.000000000000
      0.1687144782D+00  0.1000000000D+01  0.1000000000D+01
 D   1 1.00       0.000000000000
      0.8000000000D+00  0.1000000000D+01
 ****
     52 0
 S   3 1.00       0.000000000000
      0.1873113696D+02  0.3349460434D-01
      0.2825394365D+01  0.2347269535D+00
      0.6401216923D+00  0.8137573261D+00
 S   1 1.00       0.000000000000
      0.1612777588D+00  0.1000000000D+01
 ****
     53 0
 S   3 1.00       0.000000000000
      0.1873113696D+02  0.3349460434D-01
      0.2825394365D+01  0.2347269535D+00
      0.6401216923D+00  0.8137573261D+00
 S   1 1.00       0.000000000000
      0.1612777588D+00  0.1000000000D+01
 ****
     54 0
 S   6 1.00       0.000000000000
      0.3047524880D+04  0.1834737132D-02
      0.4573695180D+03  0.1403732281D-01
      0.1039486850D+03  0.6884262226D-01
      0.2921015530D+02  0.2321844432D+00
      0.9286662960D+01  0.4679413484D+00
      0.3163926960D+01  0.3623119853D+00
 SP   3 1.00       0.000000000000
      0.7868272350D+01 -0.1193324198D+00  0.6899906659D-01
      0.1881288540D+01 -0.1608541517D+00  0.3164239610D+00
      0.5442492580D+00  0.1143456438D+01  0.7443082909D+00
 SP   1 1.00       0.000000000000
      0.1687144782D+00  0.1000000000D+01  0.1000000000D+01
 D   1 1.00       0.000000000000
      0.8000000000D+00  0.1000000000D+01
 ****
     55 0
 S   3 1.00       0.000000000000
      0.1873113696D+02  0.3349460434D-01
      0.2825394365D+01  0.2347269535D+00
      0.6401216923D+00  0.8137573261D+00
 S   1 1.00       0.000000000000
      0.1612777588D+00  0.1000000000D+01
 ****
     56 0
 S   6 1.00       0.000000000000
      0.3047524880D+04  0.1834737132D-02
      0.4573695180D+03  0.1403732281D-01
      0.1039486850D+03  0.6884262226D-01
      0.2921015530D+02  0.2321844432D+00
      0.9286662960D+01  0.4679413484D+00
      0.3163926960D+01  0.3623119853D+00
 SP   3 1.00       0.000000000000
      0.7868272350D+01 -0.1193324198D+00  0.6899906659D-01
      0.1881288540D+01 -0.1608541517D+00  0.3164239610D+00
      0.5442492580D+00  0.1143456438D+01  0.7443082909D+00
 SP   1 1.00       0.000000000000
      0.1687144782D+00  0.1000000000D+01  0.1000000000D+01
 D   1 1.00       0.000000000000
      0.8000000000D+00  0.1000000000D+01
 ****
     57 0
 S   3 1.00       0.000000000000
      0.1873113696D+02  0.3349460434D-01
      0.2825394365D+01  0.2347269535D+00
      0.6401216923D+00  0.8137573261D+00
 S   1 1.00       0.000000000000
      0.1612777588D+00  0.1000000000D+01
 ****
     58 0
 S   3 1.00       0.000000000000
      0.1873113696D+02  0.3349460434D-01
      0.2825394365D+01  0.2347269535D+00
      0.6401216923D+00  0.8137573261D+00
 S   1 1.00       0.000000000000
      0.1612777588D+00  0.1000000000D+01
 ****
     59 0
 S   3 1.00       0.000000000000
      0.1873113696D+02  0.3349460434D-01
      0.2825394365D+01  0.2347269535D+00
      0.6401216923D+00  0.8137573261D+00
 S   1 1.00       0.000000000000
      0.1612777588D+00  0.1000000000D+01
 ****
     60 0
 S   6 1.00       0.000000000000
      0.3047524880D+04  0.1834737132D-02
      0.4573695180D+03  0.1403732281D-01
      0.1039486850D+03  0.6884262226D-01
      0.2921015530D+02  0.2321844432D+00
      0.9286662960D+01  0.4679413484D+00
      0.3163926960D+01  0.3623119853D+00
 SP   3 1.00       0.000000000000
      0.7868272350D+01 -0.1193324198D+00  0.6899906659D-01
      0.1881288540D+01 -0.1608541517D+00  0.3164239610D+00
      0.5442492580D+00  0.1143456438D+01  0.7443082909D+00
 SP   1 1.00       0.000000000000
      0.1687144782D+00  0.1000000000D+01  0.1000000000D+01
 D   1 1.00       0.000000000000
      0.8000000000D+00  0.1000000000D+01
 ****
     61 0
 S   3 1.00       0.000000000000
      0.1873113696D+02  0.3349460434D-01
      0.2825394365D+01  0.2347269535D+00
      0.6401216923D+00  0.8137573261D+00
 S   1 1.00       0.000000000000
      0.1612777588D+00  0.1000000000D+01
 ****
     62 0
 S   3 1.00       0.000000000000
      0.1873113696D+02  0.3349460434D-01
      0.2825394365D+01  0.2347269535D+00
      0.6401216923D+00  0.8137573261D+00
 S   1 1.00       0.000000000000
      0.1612777588D+00  0.1000000000D+01
 ****
     63 0
 S   6 1.00       0.000000000000
      0.3047524880D+04  0.1834737132D-02
      0.4573695180D+03  0.1403732281D-01
      0.1039486850D+03  0.6884262226D-01
      0.2921015530D+02  0.2321844432D+00
      0.9286662960D+01  0.4679413484D+00
      0.3163926960D+01  0.3623119853D+00
 SP   3 1.00       0.000000000000
      0.7868272350D+01 -0.1193324198D+00  0.6899906659D-01
      0.1881288540D+01 -0.1608541517D+00  0.3164239610D+00
      0.5442492580D+00  0.1143456438D+01  0.7443082909D+00
 SP   1 1.00       0.000000000000
      0.1687144782D+00  0.1000000000D+01  0.1000000000D+01
 D   1 1.00       0.000000000000
      0.8000000000D+00  0.1000000000D+01
 ****
     64 0
 S   3 1.00       0.000000000000
      0.1873113696D+02  0.3349460434D-01
      0.2825394365D+01  0.2347269535D+00
      0.6401216923D+00  0.8137573261D+00
 S   1 1.00       0.000000000000
      0.1612777588D+00  0.1000000000D+01
 ****
     65 0
 S   3 1.00       0.000000000000
      0.1873113696D+02  0.3349460434D-01
      0.2825394365D+01  0.2347269535D+00
      0.6401216923D+00  0.8137573261D+00
 S   1 1.00       0.000000000000
      0.1612777588D+00  0.1000000000D+01
 ****
     66 0
 S   6 1.00       0.000000000000
      0.3047524880D+04  0.1834737132D-02
      0.4573695180D+03  0.1403732281D-01
      0.1039486850D+03  0.6884262226D-01
      0.2921015530D+02  0.2321844432D+00
      0.9286662960D+01  0.4679413484D+00
      0.3163926960D+01  0.3623119853D+00
 SP   3 1.00       0.000000000000
      0.7868272350D+01 -0.1193324198D+00  0.6899906659D-01
      0.1881288540D+01 -0.1608541517D+00  0.3164239610D+00
      0.5442492580D+00  0.1143456438D+01  0.7443082909D+00
 SP   1 1.00       0.000000000000
      0.1687144782D+00  0.1000000000D+01  0.1000000000D+01
 D   1 1.00       0.000000000000
      0.8000000000D+00  0.1000000000D+01
 ****
     67 0
 S   3 1.00       0.000000000000
      0.1873113696D+02  0.3349460434D-01
      0.2825394365D+01  0.2347269535D+00
      0.6401216923D+00  0.8137573261D+00
 S   1 1.00       0.000000000000
      0.1612777588D+00  0.1000000000D+01
 ****
     68 0
 S   6 1.00       0.000000000000
      0.3047524880D+04  0.1834737132D-02
      0.4573695180D+03  0.1403732281D-01
      0.1039486850D+03  0.6884262226D-01
      0.2921015530D+02  0.2321844432D+00
      0.9286662960D+01  0.4679413484D+00
      0.3163926960D+01  0.3623119853D+00
 SP   3 1.00       0.000000000000
      0.7868272350D+01 -0.1193324198D+00  0.6899906659D-01
      0.1881288540D+01 -0.1608541517D+00  0.3164239610D+00
      0.5442492580D+00  0.1143456438D+01  0.7443082909D+00
 SP   1 1.00       0.000000000000
      0.1687144782D+00  0.1000000000D+01  0.1000000000D+01
 D   1 1.00       0.000000000000
      0.8000000000D+00  0.1000000000D+01
 ****
     69 0
 S   3 1.00       0.000000000000
      0.1873113696D+02  0.3349460434D-01
      0.2825394365D+01  0.2347269535D+00
      0.6401216923D+00  0.8137573261D+00
 S   1 1.00       0.000000000000
      0.1612777588D+00  0.1000000000D+01
 ****
     70 0
 S   3 1.00       0.000000000000
      0.1873113696D+02  0.3349460434D-01
      0.2825394365D+01  0.2347269535D+00
      0.6401216923D+00  0.8137573261D+00
 S   1 1.00       0.000000000000
      0.1612777588D+00  0.1000000000D+01
 ****
     71 0
 S   3 1.00       0.000000000000
      0.1873113696D+02  0.3349460434D-01
      0.2825394365D+01  0.2347269535D+00
      0.6401216923D+00  0.8137573261D+00
 S   1 1.00       0.000000000000
      0.1612777588D+00  0.1000000000D+01
 ****
     72 0
 S   6 1.00       0.000000000000
      0.3047524880D+04  0.1834737132D-02
      0.4573695180D+03  0.1403732281D-01
      0.1039486850D+03  0.6884262226D-01
      0.2921015530D+02  0.2321844432D+00
      0.9286662960D+01  0.4679413484D+00
      0.3163926960D+01  0.3623119853D+00
 SP   3 1.00       0.000000000000
      0.7868272350D+01 -0.1193324198D+00  0.6899906659D-01
      0.1881288540D+01 -0.1608541517D+00  0.3164239610D+00
      0.5442492580D+00  0.1143456438D+01  0.7443082909D+00
 SP   1 1.00       0.000000000000
      0.1687144782D+00  0.1000000000D+01  0.1000000000D+01
 D   1 1.00       0.000000000000
      0.8000000000D+00  0.1000000000D+01
 ****
     73 0
 S   3 1.00       0.000000000000
      0.1873113696D+02  0.3349460434D-01
      0.2825394365D+01  0.2347269535D+00
      0.6401216923D+00  0.8137573261D+00
 S   1 1.00       0.000000000000
      0.1612777588D+00  0.1000000000D+01
 ****
     74 0
 S   3 1.00       0.000000000000
      0.1873113696D+02  0.3349460434D-01
      0.2825394365D+01  0.2347269535D+00
      0.6401216923D+00  0.8137573261D+00
 S   1 1.00       0.000000000000
      0.1612777588D+00  0.1000000000D+01
 ****
     75 0
 S   3 1.00       0.000000000000
      0.1873113696D+02  0.3349460434D-01
      0.2825394365D+01  0.2347269535D+00
      0.6401216923D+00  0.8137573261D+00
 S   1 1.00       0.000000000000
      0.1612777588D+00  0.1000000000D+01
 ****

 AO basis set (Overlap normalization):
 Atom O1       Shell     1 S   6     bf    1 -     1         10.892301796894          6.512583807573          0.000000000000
      0.5484671660D+04  0.1831074430D-02
      0.8252349460D+03  0.1395017220D-01
      0.1880469580D+03  0.6844507810D-01
      0.5296450000D+02  0.2327143360D+00
      0.1689757040D+02  0.4701928980D+00
      0.5799635340D+01  0.3585208530D+00
 Atom O1       Shell     2 SP   3    bf    2 -     5         10.892301796894          6.512583807573          0.000000000000
      0.1553961625D+02 -0.1107775495D+00  0.7087426823D-01
      0.3599933586D+01 -0.1480262627D+00  0.3397528391D+00
      0.1013761750D+01  0.1130767015D+01  0.7271585773D+00
 Atom O1       Shell     3 SP   1    bf    6 -     9         10.892301796894          6.512583807573          0.000000000000
      0.2700058226D+00  0.1000000000D+01  0.1000000000D+01
 Atom O1       Shell     4 D   1     bf   10 -    15         10.892301796894          6.512583807573          0.000000000000
      0.8000000000D+00  0.1000000000D+01
 Atom H2       Shell     5 S   3     bf   16 -    16          9.691966352190          6.213204549683          1.343796706390
      0.1873113696D+02  0.3349460434D-01
      0.2825394365D+01  0.2347269535D+00
      0.6401216923D+00  0.8137573261D+00
 Atom H2       Shell     6 S   1     bf   17 -    17          9.691966352190          6.213204549683          1.343796706390
      0.1612777588D+00  0.1000000000D+01
 Atom O3       Shell     7 S   6     bf   18 -    18          0.000000000000          0.000000000000          0.000000000000
      0.5484671660D+04  0.1831074430D-02
      0.8252349460D+03  0.1395017220D-01
      0.1880469580D+03  0.6844507810D-01
      0.5296450000D+02  0.2327143360D+00
      0.1689757040D+02  0.4701928980D+00
      0.5799635340D+01  0.3585208530D+00
 Atom O3       Shell     8 SP   3    bf   19 -    22          0.000000000000          0.000000000000          0.000000000000
      0.1553961625D+02 -0.1107775495D+00  0.7087426823D-01
      0.3599933586D+01 -0.1480262627D+00  0.3397528391D+00
      0.1013761750D+01  0.1130767015D+01  0.7271585773D+00
 Atom O3       Shell     9 SP   1    bf   23 -    26          0.000000000000          0.000000000000          0.000000000000
      0.2700058226D+00  0.1000000000D+01  0.1000000000D+01
 Atom O3       Shell    10 D   1     bf   27 -    32          0.000000000000          0.000000000000          0.000000000000
      0.8000000000D+00  0.1000000000D+01
 Atom H4       Shell    11 S   3     bf   33 -    33         -0.157073696015         -1.406046855235         -1.158211899626
      0.1873113696D+02  0.3349460434D-01
      0.2825394365D+01  0.2347269535D+00
      0.6401216923D+00  0.8137573261D+00
 Atom H4       Shell    12 S   1     bf   34 -    34         -0.157073696015         -1.406046855235         -1.158211899626
      0.1612777588D+00  0.1000000000D+01
 Atom C5       Shell    13 S   6     bf   35 -    35         16.665776505188          0.699012417760          0.710453518967
      0.3047524880D+04  0.1834737132D-02
      0.4573695180D+03  0.1403732281D-01
      0.1039486850D+03  0.6884262226D-01
      0.2921015530D+02  0.2321844432D+00
      0.9286662960D+01  0.4679413484D+00
      0.3163926960D+01  0.3623119853D+00
 Atom C5       Shell    14 SP   3    bf   36 -    39         16.665776505188          0.699012417760          0.710453518967
      0.7868272350D+01 -0.1193324198D+00  0.6899906659D-01
      0.1881288540D+01 -0.1608541517D+00  0.3164239610D+00
      0.5442492580D+00  0.1143456438D+01  0.7443082909D+00
 Atom C5       Shell    15 SP   1    bf   40 -    43         16.665776505188          0.699012417760          0.710453518967
      0.1687144782D+00  0.1000000000D+01  0.1000000000D+01
 Atom C5       Shell    16 D   1     bf   44 -    49         16.665776505188          0.699012417760          0.710453518967
      0.8000000000D+00  0.1000000000D+01
 Atom C6       Shell    17 S   6     bf   50 -    50         14.921418140889          2.919130311972         -0.099389465658
      0.3047524880D+04  0.1834737132D-02
      0.4573695180D+03  0.1403732281D-01
      0.1039486850D+03  0.6884262226D-01
      0.2921015530D+02  0.2321844432D+00
      0.9286662960D+01  0.4679413484D+00
      0.3163926960D+01  0.3623119853D+00
 Atom C6       Shell    18 SP   3    bf   51 -    54         14.921418140889          2.919130311972         -0.099389465658
      0.7868272350D+01 -0.1193324198D+00  0.6899906659D-01
      0.1881288540D+01 -0.1608541517D+00  0.3164239610D+00
      0.5442492580D+00  0.1143456438D+01  0.7443082909D+00
 Atom C6       Shell    19 SP   1    bf   55 -    58         14.921418140889          2.919130311972         -0.099389465658
      0.1687144782D+00  0.1000000000D+01  0.1000000000D+01
 Atom C6       Shell    20 D   1     bf   59 -    64         14.921418140889          2.919130311972         -0.099389465658
      0.8000000000D+00  0.1000000000D+01
 Atom H7       Shell    21 S   3     bf   65 -    65         14.584144488315          4.018447857318          1.630860014360
      0.1873113696D+02  0.3349460434D-01
      0.2825394365D+01  0.2347269535D+00
      0.6401216923D+00  0.8137573261D+00
 Atom H7       Shell    22 S   1     bf   66 -    66         14.584144488315          4.018447857318          1.630860014360
      0.1612777588D+00  0.1000000000D+01
 Atom C8       Shell    23 S   6     bf   67 -    67         12.302860637833          2.136738887551         -1.063877319093
      0.3047524880D+04  0.1834737132D-02
      0.4573695180D+03  0.1403732281D-01
      0.1039486850D+03  0.6884262226D-01
      0.2921015530D+02  0.2321844432D+00
      0.9286662960D+01  0.4679413484D+00
      0.3163926960D+01  0.3623119853D+00
 Atom C8       Shell    24 SP   3    bf   68 -    71         12.302860637833          2.136738887551         -1.063877319093
      0.7868272350D+01 -0.1193324198D+00  0.6899906659D-01
      0.1881288540D+01 -0.1608541517D+00  0.3164239610D+00
      0.5442492580D+00  0.1143456438D+01  0.7443082909D+00
 Atom C8       Shell    25 SP   1    bf   72 -    75         12.302860637833          2.136738887551         -1.063877319093
      0.1687144782D+00  0.1000000000D+01  0.1000000000D+01
 Atom C8       Shell    26 D   1     bf   76 -    81         12.302860637833          2.136738887551         -1.063877319093
      0.8000000000D+00  0.1000000000D+01
 Atom H9       Shell    27 S   3     bf   82 -    82         12.524141974404          1.031524886445         -2.809729984331
      0.1873113696D+02  0.3349460434D-01
      0.2825394365D+01  0.2347269535D+00
      0.6401216923D+00  0.8137573261D+00
 Atom H9       Shell    28 S   1     bf   83 -    83         12.524141974404          1.031524886445         -2.809729984331
      0.1612777588D+00  0.1000000000D+01
 Atom C10      Shell    29 S   6     bf   84 -    84         10.916492048840          0.507910479962          0.936038933574
      0.3047524880D+04  0.1834737132D-02
      0.4573695180D+03  0.1403732281D-01
      0.1039486850D+03  0.6884262226D-01
      0.2921015530D+02  0.2321844432D+00
      0.9286662960D+01  0.4679413484D+00
      0.3163926960D+01  0.3623119853D+00
 Atom C10      Shell    30 SP   3    bf   85 -    88         10.916492048840          0.507910479962          0.936038933574
      0.7868272350D+01 -0.1193324198D+00  0.6899906659D-01
      0.1881288540D+01 -0.1608541517D+00  0.3164239610D+00
      0.5442492580D+00  0.1143456438D+01  0.7443082909D+00
 Atom C10      Shell    31 SP   1    bf   89 -    92         10.916492048840          0.507910479962          0.936038933574
      0.1687144782D+00  0.1000000000D+01  0.1000000000D+01
 Atom C10      Shell    32 D   1     bf   93 -    98         10.916492048840          0.507910479962          0.936038933574
      0.8000000000D+00  0.1000000000D+01
 Atom H11      Shell    33 S   3     bf   99 -    99         10.495138603566          1.790882250060          2.523320294836
      0.1873113696D+02  0.3349460434D-01
      0.2825394365D+01  0.2347269535D+00
      0.6401216923D+00  0.8137573261D+00
 Atom H11      Shell    34 S   1     bf  100 -   100         10.495138603566          1.790882250060          2.523320294836
      0.1612777588D+00  0.1000000000D+01
 Atom C12      Shell    35 S   6     bf  101 -   101         19.093240857673          2.216704689768          1.483585077467
      0.3047524880D+04  0.1834737132D-02
      0.4573695180D+03  0.1403732281D-01
      0.1039486850D+03  0.6884262226D-01
      0.2921015530D+02  0.2321844432D+00
      0.9286662960D+01  0.4679413484D+00
      0.3163926960D+01  0.3623119853D+00
 Atom C12      Shell    36 SP   3    bf  102 -   105         19.093240857673          2.216704689768          1.483585077467
      0.7868272350D+01 -0.1193324198D+00  0.6899906659D-01
      0.1881288540D+01 -0.1608541517D+00  0.3164239610D+00
      0.5442492580D+00  0.1143456438D+01  0.7443082909D+00
 Atom C12      Shell    37 SP   1    bf  106 -   109         19.093240857673          2.216704689768          1.483585077467
      0.1687144782D+00  0.1000000000D+01  0.1000000000D+01
 Atom C12      Shell    38 D   1     bf  110 -   115         19.093240857673          2.216704689768          1.483585077467
      0.8000000000D+00  0.1000000000D+01
 Atom H13      Shell    39 S   3     bf  116 -   116         18.648802064425          3.119356055410          3.306063000448
      0.1873113696D+02  0.3349460434D-01
      0.2825394365D+01  0.2347269535D+00
      0.6401216923D+00  0.8137573261D+00
 Atom H13      Shell    40 S   1     bf  117 -   117         18.648802064425          3.119356055410          3.306063000448
      0.1612777588D+00  0.1000000000D+01
 Atom C14      Shell    41 S   6     bf  118 -   118         15.267938431301         -0.698111207367          2.853832563999
      0.3047524880D+04  0.1834737132D-02
      0.4573695180D+03  0.1403732281D-01
      0.1039486850D+03  0.6884262226D-01
      0.2921015530D+02  0.2321844432D+00
      0.9286662960D+01  0.4679413484D+00
      0.3163926960D+01  0.3623119853D+00
 Atom C14      Shell    42 SP   3    bf  119 -   122         15.267938431301         -0.698111207367          2.853832563999
      0.7868272350D+01 -0.1193324198D+00  0.6899906659D-01
      0.1881288540D+01 -0.1608541517D+00  0.3164239610D+00
      0.5442492580D+00  0.1143456438D+01  0.7443082909D+00
 Atom C14      Shell    43 SP   1    bf  123 -   126         15.267938431301         -0.698111207367          2.853832563999
      0.1687144782D+00  0.1000000000D+01  0.1000000000D+01
 Atom C14      Shell    44 D   1     bf  127 -   132         15.267938431301         -0.698111207367          2.853832563999
      0.8000000000D+00  0.1000000000D+01
 Atom H15      Shell    45 S   3     bf  133 -   133         15.080485838125          0.591093767688          4.472492846595
      0.1873113696D+02  0.3349460434D-01
      0.2825394365D+01  0.2347269535D+00
      0.6401216923D+00  0.8137573261D+00
 Atom H15      Shell    46 S   1     bf  134 -   134         15.080485838125          0.591093767688          4.472492846595
      0.1612777588D+00  0.1000000000D+01
 Atom H16      Shell    47 S   3     bf  135 -   135         16.330729989348         -2.338609146258          3.530042110047
      0.1873113696D+02  0.3349460434D-01
      0.2825394365D+01  0.2347269535D+00
      0.6401216923D+00  0.8137573261D+00
 Atom H16      Shell    48 S   1     bf  136 -   136         16.330729989348         -2.338609146258          3.530042110047
      0.1612777588D+00  0.1000000000D+01
 Atom C17      Shell    49 S   6     bf  137 -   137          8.292345132724         -0.476878323374         -0.030521174642
      0.3047524880D+04  0.1834737132D-02
      0.4573695180D+03  0.1403732281D-01
      0.1039486850D+03  0.6884262226D-01
      0.2921015530D+02  0.2321844432D+00
      0.9286662960D+01  0.4679413484D+00
      0.3163926960D+01  0.3623119853D+00
 Atom C17      Shell    50 SP   3    bf  138 -   141          8.292345132724         -0.476878323374         -0.030521174642
      0.7868272350D+01 -0.1193324198D+00  0.6899906659D-01
      0.1881288540D+01 -0.1608541517D+00  0.3164239610D+00
      0.5442492580D+00  0.1143456438D+01  0.7443082909D+00
 Atom C17      Shell    51 SP   1    bf  142 -   145          8.292345132724         -0.476878323374         -0.030521174642
      0.1687144782D+00  0.1000000000D+01  0.1000000000D+01
 Atom C17      Shell    52 D   1     bf  146 -   151          8.292345132724         -0.476878323374         -0.030521174642
      0.8000000000D+00  0.1000000000D+01
 Atom C18      Shell    53 S   6     bf  152 -   152         16.591917239585          4.577813822433         -1.792525499213
      0.3047524880D+04  0.1834737132D-02
      0.4573695180D+03  0.1403732281D-01
      0.1039486850D+03  0.6884262226D-01
      0.2921015530D+02  0.2321844432D+00
      0.9286662960D+01  0.4679413484D+00
      0.3163926960D+01  0.3623119853D+00
 Atom C18      Shell    54 SP   3    bf  153 -   156         16.591917239585          4.577813822433         -1.792525499213
      0.7868272350D+01 -0.1193324198D+00  0.6899906659D-01
      0.1881288540D+01 -0.1608541517D+00  0.3164239610D+00
      0.5442492580D+00  0.1143456438D+01  0.7443082909D+00
 Atom C18      Shell    55 SP   1    bf  157 -   160         16.591917239585          4.577813822433         -1.792525499213
      0.1687144782D+00  0.1000000000D+01  0.1000000000D+01
 Atom C18      Shell    56 D   1     bf  161 -   166         16.591917239585          4.577813822433         -1.792525499213
      0.8000000000D+00  0.1000000000D+01
 Atom H19      Shell    57 S   3     bf  167 -   167         15.923814278496          6.532233255492         -1.856665393088
      0.1873113696D+02  0.3349460434D-01
      0.2825394365D+01  0.2347269535D+00
      0.6401216923D+00  0.8137573261D+00
 Atom H19      Shell    58 S   1     bf  168 -   168         15.923814278496          6.532233255492         -1.856665393088
      0.1612777588D+00  0.1000000000D+01
 Atom H20      Shell    59 S   3     bf  169 -   169         16.603935255283          3.872707944963         -3.743117140811
      0.1873113696D+02  0.3349460434D-01
      0.2825394365D+01  0.2347269535D+00
      0.6401216923D+00  0.8137573261D+00
 Atom H20      Shell    60 S   1     bf  170 -   170         16.603935255283          3.872707944963         -3.743117140811
      0.1612777588D+00  0.1000000000D+01
 Atom C21      Shell    61 S   6     bf  171 -   171         12.626883285098         -1.602754514428          2.015544363375
      0.3047524880D+04  0.1834737132D-02
      0.4573695180D+03  0.1403732281D-01
      0.1039486850D+03  0.6884262226D-01
      0.2921015530D+02  0.2321844432D+00
      0.9286662960D+01  0.4679413484D+00
      0.3163926960D+01  0.3623119853D+00
 Atom C21      Shell    62 SP   3    bf  172 -   175         12.626883285098         -1.602754514428          2.015544363375
      0.7868272350D+01 -0.1193324198D+00  0.6899906659D-01
      0.1881288540D+01 -0.1608541517D+00  0.3164239610D+00
      0.5442492580D+00  0.1143456438D+01  0.7443082909D+00
 Atom C21      Shell    63 SP   1    bf  176 -   179         12.626883285098         -1.602754514428          2.015544363375
      0.1687144782D+00  0.1000000000D+01  0.1000000000D+01
 Atom C21      Shell    64 D   1     bf  180 -   185         12.626883285098         -1.602754514428          2.015544363375
      0.8000000000D+00  0.1000000000D+01
 Atom H22      Shell    65 S   3     bf  186 -   186         12.868131770346         -3.098738519690          0.606626957452
      0.1873113696D+02  0.3349460434D-01
      0.2825394365D+01  0.2347269535D+00
      0.6401216923D+00  0.8137573261D+00
 Atom H22      Shell    66 S   1     bf  187 -   187         12.868131770346         -3.098738519690          0.606626957452
      0.1612777588D+00  0.1000000000D+01
 Atom H23      Shell    67 S   3     bf  188 -   188         11.693246835946         -2.494095547910          3.635699797288
      0.1873113696D+02  0.3349460434D-01
      0.2825394365D+01  0.2347269535D+00
      0.6401216923D+00  0.8137573261D+00
 Atom H23      Shell    68 S   1     bf  189 -   189         11.693246835946         -2.494095547910          3.635699797288
      0.1612777588D+00  0.1000000000D+01
 Atom C24      Shell    69 S   6     bf  190 -   190         19.251174945996          4.344450465139         -0.571907208185
      0.3047524880D+04  0.1834737132D-02
      0.4573695180D+03  0.1403732281D-01
      0.1039486850D+03  0.6884262226D-01
      0.2921015530D+02  0.2321844432D+00
      0.9286662960D+01  0.4679413484D+00
      0.3163926960D+01  0.3623119853D+00
 Atom C24      Shell    70 SP   3    bf  191 -   194         19.251174945996          4.344450465139         -0.571907208185
      0.7868272350D+01 -0.1193324198D+00  0.6899906659D-01
      0.1881288540D+01 -0.1608541517D+00  0.3164239610D+00
      0.5442492580D+00  0.1143456438D+01  0.7443082909D+00
 Atom C24      Shell    71 SP   1    bf  195 -   198         19.251174945996          4.344450465139         -0.571907208185
      0.1687144782D+00  0.1000000000D+01  0.1000000000D+01
 Atom C24      Shell    72 D   1     bf  199 -   204         19.251174945996          4.344450465139         -0.571907208185
      0.8000000000D+00  0.1000000000D+01
 Atom H25      Shell    73 S   3     bf  205 -   205         20.680412595923          3.865755888185         -1.994490055254
      0.1873113696D+02  0.3349460434D-01
      0.2825394365D+01  0.2347269535D+00
      0.6401216923D+00  0.8137573261D+00
 Atom H25      Shell    74 S   1     bf  206 -   206         20.680412595923          3.865755888185         -1.994490055254
      0.1612777588D+00  0.1000000000D+01
 Atom H26      Shell    75 S   3     bf  207 -   207         19.842667786049          6.138516752555          0.267429922723
      0.1873113696D+02  0.3349460434D-01
      0.2825394365D+01  0.2347269535D+00
      0.6401216923D+00  0.8137573261D+00
 Atom H26      Shell    76 S   1     bf  208 -   208         19.842667786049          6.138516752555          0.267429922723
      0.1612777588D+00  0.1000000000D+01
 Atom C27      Shell    77 S   6     bf  209 -   209         10.690814151037          4.455874009168         -1.791368665566
      0.3047524880D+04  0.1834737132D-02
      0.4573695180D+03  0.1403732281D-01
      0.1039486850D+03  0.6884262226D-01
      0.2921015530D+02  0.2321844432D+00
      0.9286662960D+01  0.4679413484D+00
      0.3163926960D+01  0.3623119853D+00
 Atom C27      Shell    78 SP   3    bf  210 -   213         10.690814151037          4.455874009168         -1.791368665566
      0.7868272350D+01 -0.1193324198D+00  0.6899906659D-01
      0.1881288540D+01 -0.1608541517D+00  0.3164239610D+00
      0.5442492580D+00  0.1143456438D+01  0.7443082909D+00
 Atom C27      Shell    79 SP   1    bf  214 -   217         10.690814151037          4.455874009168         -1.791368665566
      0.1687144782D+00  0.1000000000D+01  0.1000000000D+01
 Atom C27      Shell    80 D   1     bf  218 -   223         10.690814151037          4.455874009168         -1.791368665566
      0.8000000000D+00  0.1000000000D+01
 Atom H28      Shell    81 S   3     bf  224 -   224         11.454471397494          5.264403350671         -3.538720034806
      0.1873113696D+02  0.3349460434D-01
      0.2825394365D+01  0.2347269535D+00
      0.6401216923D+00  0.8137573261D+00
 Atom H28      Shell    82 S   1     bf  225 -   225         11.454471397494          5.264403350671         -3.538720034806
      0.1612777588D+00  0.1000000000D+01
 Atom C29      Shell    83 S   6     bf  226 -   226         21.638266339002          0.806417119016          1.839829029285
      0.3047524880D+04  0.1834737132D-02
      0.4573695180D+03  0.1403732281D-01
      0.1039486850D+03  0.6884262226D-01
      0.2921015530D+02  0.2321844432D+00
      0.9286662960D+01  0.4679413484D+00
      0.3163926960D+01  0.3623119853D+00
 Atom C29      Shell    84 SP   3    bf  227 -   230         21.638266339002          0.806417119016          1.839829029285
      0.7868272350D+01 -0.1193324198D+00  0.6899906659D-01
      0.1881288540D+01 -0.1608541517D+00  0.3164239610D+00
      0.5442492580D+00  0.1143456438D+01  0.7443082909D+00
 Atom C29      Shell    85 SP   1    bf  231 -   234         21.638266339002          0.806417119016          1.839829029285
      0.1687144782D+00  0.1000000000D+01  0.1000000000D+01
 Atom C29      Shell    86 D   1     bf  235 -   240         21.638266339002          0.806417119016          1.839829029285
      0.8000000000D+00  0.1000000000D+01
 Atom H30      Shell    87 S   3     bf  241 -   241         22.179347937665          0.000000000000          0.000000000000
      0.1873113696D+02  0.3349460434D-01
      0.2825394365D+01  0.2347269535D+00
      0.6401216923D+00  0.8137573261D+00
 Atom H30      Shell    88 S   1     bf  242 -   242         22.179347937665          0.000000000000          0.000000000000
      0.1612777588D+00  0.1000000000D+01
 Atom C31      Shell    89 S   6     bf  243 -   243         17.271757705426         -1.119151071487         -1.494666299230
      0.3047524880D+04  0.1834737132D-02
      0.4573695180D+03  0.1403732281D-01
      0.1039486850D+03  0.6884262226D-01
      0.2921015530D+02  0.2321844432D+00
      0.9286662960D+01  0.4679413484D+00
      0.3163926960D+01  0.3623119853D+00
 Atom C31      Shell    90 SP   3    bf  244 -   247         17.271757705426         -1.119151071487         -1.494666299230
      0.7868272350D+01 -0.1193324198D+00  0.6899906659D-01
      0.1881288540D+01 -0.1608541517D+00  0.3164239610D+00
      0.5442492580D+00  0.1143456438D+01  0.7443082909D+00
 Atom C31      Shell    91 SP   1    bf  248 -   251         17.271757705426         -1.119151071487         -1.494666299230
      0.1687144782D+00  0.1000000000D+01  0.1000000000D+01
 Atom C31      Shell    92 D   1     bf  252 -   257         17.271757705426         -1.119151071487         -1.494666299230
      0.8000000000D+00  0.1000000000D+01
 Atom H32      Shell    93 S   3     bf  258 -   258         15.569023034745         -1.911996876615         -2.354420692682
      0.1873113696D+02  0.3349460434D-01
      0.2825394365D+01  0.2347269535D+00
      0.6401216923D+00  0.8137573261D+00
 Atom H32      Shell    94 S   1     bf  259 -   259         15.569023034745         -1.911996876615         -2.354420692682
      0.1612777588D+00  0.1000000000D+01
 Atom H33      Shell    95 S   3     bf  260 -   260         18.330909594248         -0.177709108543         -3.000483664500
      0.1873113696D+02  0.3349460434D-01
      0.2825394365D+01  0.2347269535D+00
      0.6401216923D+00  0.8137573261D+00
 Atom H33      Shell    96 S   1     bf  261 -   261         18.330909594248         -0.177709108543         -3.000483664500
      0.1612777588D+00  0.1000000000D+01
 Atom H34      Shell    97 S   3     bf  262 -   262         18.420183280328         -2.711021330307         -0.839479767437
      0.1873113696D+02  0.3349460434D-01
      0.2825394365D+01  0.2347269535D+00
      0.6401216923D+00  0.8137573261D+00
 Atom H34      Shell    98 S   1     bf  263 -   263         18.420183280328         -2.711021330307         -0.839479767437
      0.1612777588D+00  0.1000000000D+01
 Atom C35      Shell    99 S   6     bf  264 -   264          6.859184090092          1.640382608905         -1.398188674776
      0.3047524880D+04  0.1834737132D-02
      0.4573695180D+03  0.1403732281D-01
      0.1039486850D+03  0.6884262226D-01
      0.2921015530D+02  0.2321844432D+00
      0.9286662960D+01  0.4679413484D+00
      0.3163926960D+01  0.3623119853D+00
 Atom C35      Shell   100 SP   3    bf  265 -   268          6.859184090092          1.640382608905         -1.398188674776
      0.7868272350D+01 -0.1193324198D+00  0.6899906659D-01
      0.1881288540D+01 -0.1608541517D+00  0.3164239610D+00
      0.5442492580D+00  0.1143456438D+01  0.7443082909D+00
 Atom C35      Shell   101 SP   1    bf  269 -   272          6.859184090092          1.640382608905         -1.398188674776
      0.1687144782D+00  0.1000000000D+01  0.1000000000D+01
 Atom C35      Shell   102 D   1     bf  273 -   278          6.859184090092          1.640382608905         -1.398188674776
      0.8000000000D+00  0.1000000000D+01
 Atom C36      Shell   103 S   6     bf  279 -   279          6.690191003186         -1.328614136413          2.293194284072
      0.3047524880D+04  0.1834737132D-02
      0.4573695180D+03  0.1403732281D-01
      0.1039486850D+03  0.6884262226D-01
      0.2921015530D+02  0.2321844432D+00
      0.9286662960D+01  0.4679413484D+00
      0.3163926960D+01  0.3623119853D+00
 Atom C36      Shell   104 SP   3    bf  280 -   283          6.690191003186         -1.328614136413          2.293194284072
      0.7868272350D+01 -0.1193324198D+00  0.6899906659D-01
      0.1881288540D+01 -0.1608541517D+00  0.3164239610D+00
      0.5442492580D+00  0.1143456438D+01  0.7443082909D+00
 Atom C36      Shell   105 SP   1    bf  284 -   287          6.690191003186         -1.328614136413          2.293194284072
      0.1687144782D+00  0.1000000000D+01  0.1000000000D+01
 Atom C36      Shell   106 D   1     bf  288 -   293          6.690191003186         -1.328614136413          2.293194284072
      0.8000000000D+00  0.1000000000D+01
 Atom H37      Shell   107 S   3     bf  294 -   294          6.784882912034          0.166823133285          3.731030717027
      0.1873113696D+02  0.3349460434D-01
      0.2825394365D+01  0.2347269535D+00
      0.6401216923D+00  0.8137573261D+00
 Atom H37      Shell   108 S   1     bf  295 -   295          6.784882912034          0.166823133285          3.731030717027
      0.1612777588D+00  0.1000000000D+01
 Atom H38      Shell   109 S   3     bf  296 -   296          7.552499323712         -3.008729012049          3.140235544966
      0.1873113696D+02  0.3349460434D-01
      0.2825394365D+01  0.2347269535D+00
      0.6401216923D+00  0.8137573261D+00
 Atom H38      Shell   110 S   1     bf  297 -   297          7.552499323712         -3.008729012049          3.140235544966
      0.1612777588D+00  0.1000000000D+01
 Atom C39      Shell   111 S   6     bf  298 -   298          7.959582653272          3.792381545205         -2.173717218595
      0.3047524880D+04  0.1834737132D-02
      0.4573695180D+03  0.1403732281D-01
      0.1039486850D+03  0.6884262226D-01
      0.2921015530D+02  0.2321844432D+00
      0.9286662960D+01  0.4679413484D+00
      0.3163926960D+01  0.3623119853D+00
 Atom C39      Shell   112 SP   3    bf  299 -   302          7.959582653272          3.792381545205         -2.173717218595
      0.7868272350D+01 -0.1193324198D+00  0.6899906659D-01
      0.1881288540D+01 -0.1608541517D+00  0.3164239610D+00
      0.5442492580D+00  0.1143456438D+01  0.7443082909D+00
 Atom C39      Shell   113 SP   1    bf  303 -   306          7.959582653272          3.792381545205         -2.173717218595
      0.1687144782D+00  0.1000000000D+01  0.1000000000D+01
 Atom C39      Shell   114 D   1     bf  307 -   312          7.959582653272          3.792381545205         -2.173717218595
      0.8000000000D+00  0.1000000000D+01
[...]
 1576 Fit      -0.000416
 1577 Fit      -0.001565
 1578 Fit       0.000568
 1579 Fit       0.001467
 1580 Fit       0.000303
 1581 Fit      -0.001762
 1582 Fit      -0.000213
 1583 Fit      -0.002371
 1584 Fit      -0.001895
 1585 Fit      -0.002717
 1586 Fit      -0.003171
 1587 Fit      -0.001444
 1588 Fit      -0.002633
 1589 Fit      -0.002482
 1590 Fit      -0.001680
 1591 Fit       0.001625
 1592 Fit       0.000374
 1593 Fit      -0.001729
 1594 Fit       0.002594
 1595 Fit       0.000797
 1596 Fit      -0.001598
 1597 Fit       0.002706
 1598 Fit       0.001975
 1599 Fit      -0.000385
 1600 Fit      -0.001367
 1601 Fit      -0.002388
 1602 Fit       0.000908
 1603 Fit      -0.000077
 1604 Fit      -0.001484
 1605 Fit       0.000397
 1606 Fit       0.002137
 1607 Fit       0.001440
 1608 Fit       0.000103
 1609 Fit      -0.000217
 1610 Fit       0.001557
 1611 Fit       0.002610
 1612 Fit      -0.001420
 1613 Fit       0.001142
 1614 Fit       0.000994
 1615 Fit      -0.000770
 1616 Fit       0.000825
 1617 Fit       0.002024
 1618 Fit       0.001515
 1619 Fit      -0.000056
 1620 Fit      -0.001171
 1621 Fit      -0.001694
 1622 Fit      -0.000008
 1623 Fit       0.001411
 1624 Fit       0.002323
 1625 Fit       0.001502
 1626 Fit       0.000168
 1627 Fit      -0.001213
 1628 Fit      -0.004628
 1629 Fit      -0.015780
 1630 Fit      -0.015202
 1631 Fit      -0.009841
 1632 Fit      -0.022319
 1633 Fit      -0.021104
 1634 Fit      -0.016553
 1635 Fit      -0.008837
 1636 Fit      -0.024830
 1637 Fit      -0.023676
 1638 Fit      -0.019732
 1639 Fit      -0.013313
 1640 Fit      -0.005387
 1641 Fit      -0.023828
 1642 Fit      -0.022639
 1643 Fit      -0.017783
 1644 Fit      -0.017108
 1645 Fit      -0.018300
 1646 Fit      -0.014120
 1647 Fit       0.011620
 1648 Fit       0.004057
 1649 Fit       0.003548
 1650 Fit       0.009623
 1651 Fit       0.015098
 1652 Fit       0.000329
 1653 Fit       0.007484
 1654 Fit       0.012651
 1655 Fit       0.016321
 1656 Fit       0.000861
 1657 Fit       0.006762
 1658 Fit       0.009599
 1659 Fit      -0.014454
 1660 Fit      -0.018037
 1661 Fit      -0.018450
 1662 Fit      -0.022777
 1663 Fit      -0.022099
 1664 Fit      -0.017696
 1665 Fit      -0.011049
 1666 Fit      -0.021120
 1667 Fit      -0.024494
 1668 Fit      -0.023366
 1669 Fit      -0.018713
 1670 Fit      -0.011798
 1671 Fit      -0.004180
 1672 Fit      -0.017867
 1673 Fit      -0.022875
 1674 Fit      -0.023439
 1675 Fit      -0.020058
 1676 Fit      -0.013522
 1677 Fit      -0.004743
 1678 Fit      -0.019242
 1679 Fit      -0.019711
 1680 Fit      -0.014787
 1681 Fit      -0.005417
 1682 Fit      -0.013203
 1683 Fit      -0.011620
 1684 Fit      -0.003110
 1685 Fit      -0.003812
 1686 Fit      -0.000777
 1687 Fit       0.007498
 1688 Fit       0.012999
 1689 Fit       0.007243
 1690 Fit       0.014102
 1691 Fit       0.018926
 1692 Fit       0.000475
 1693 Fit       0.009825
 1694 Fit       0.016887
 1695 Fit       0.021721
 1696 Fit       0.025181
 1697 Fit       0.004481
 1698 Fit       0.010939
 1699 Fit       0.018435
 1700 Fit       0.022286
 1701 Fit       0.015124
 1702 Fit      -0.001161
 1703 Fit      -0.000365
 1704 Fit      -0.006344
 1705 Fit      -0.010037
 1706 Fit      -0.015981
 1707 Fit       0.004557
 1708 Fit       0.004521
 1709 Fit       0.003682
 1710 Fit       0.006312
 1711 Fit       0.005205
 1712 Fit       0.007432
 1713 Fit       0.006996
 1714 Fit       0.010412
 1715 Fit       0.005335
 1716 Fit       0.017139
 1717 Fit       0.001670
 1718 Fit       0.000630
 1719 Fit       0.000832
 1720 Fit      -0.001250
 1721 Fit      -0.001490
 1722 Fit      -0.000783
 1723 Fit      -0.004531
 1724 Fit       0.001987
 1725 Fit       0.000453
 1726 Fit       0.002311
 1727 Fit       0.001484
 1728 Fit       0.002324
 1729 Fit       0.003375
 1730 Fit       0.003691
 1731 Fit       0.002285
 1732 Fit       0.000796
 1733 Fit       0.001964
 1734 Fit       0.002580
 1735 Fit       0.004709
 1736 Fit       0.005843
 1737 Fit       0.002015
 1738 Fit       0.000959
 1739 Fit       0.003405
 1740 Fit       0.002398
 1741 Fit       0.004420
 1742 Fit       0.004447
 1743 Fit       0.004834
 1744 Fit       0.005424
 1745 Fit      -0.003338
 1746 Fit      -0.004811
 1747 Fit      -0.005161
 1748 Fit      -0.018098
 1749 Fit      -0.009584
 1750 Fit      -0.017275
 1751 Fit      -0.006195
 1752 Fit      -0.007853
 1753 Fit      -0.012369
 1754 Fit      -0.006176
 1755 Fit      -0.007741
 1756 Fit      -0.009667
 1757 Fit      -0.005085
 1758 Fit       0.000716
 1759 Fit      -0.002127
 1760 Fit       0.000925
 1761 Fit      -0.000918
 1762 Fit      -0.000266
 1763 Fit       0.002323
 1764 Fit       0.003083
 1765 Fit       0.002564
 1766 Fit       0.001421
 1767 Fit       0.004396
 1768 Fit       0.007781
 1769 Fit       0.005249
 1770 Fit       0.007642
 1771 Fit       0.005566
 1772 Fit       0.004929
 1773 Fit       0.006384
 1774 Fit       0.004562
 1775 Fit       0.005912
 1776 Fit       0.005101
 1777 Fit       0.005811
 1778 Fit       0.006704
 1779 Fit       0.006605
 1780 Fit       0.004713
 1781 Fit       0.006818
 1782 Fit       0.004816
 1783 Fit       0.007844
 1784 Fit       0.005394
 1785 Fit      -0.003313
 1786 Fit      -0.004858
 1787 Fit      -0.004214
 1788 Fit       0.000872
 1789 Fit      -0.000011
 1790 Fit      -0.002169
 1791 Fit       0.001191
 1792 Fit      -0.000394
 1793 Fit      -0.002650
 1794 Fit       0.002240
 1795 Fit       0.001105
 1796 Fit      -0.000951
 1797 Fit       0.002557
 1798 Fit       0.000787
 1799 Fit      -0.002777
 1800 Fit      -0.003495
 1801 Fit      -0.002299
 1802 Fit      -0.003855
 1803 Fit      -0.007163
 1804 Fit      -0.001704
 1805 Fit      -0.002766
 1806 Fit      -0.005290
 1807 Fit      -0.002184
 1808 Fit      -0.003474
 1809 Fit      -0.005828
 1810 Fit      -0.004134
 1811 Fit      -0.012242
 1812 Fit      -0.012368
 1813 Fit      -0.002631
 1814 Fit      -0.003577
 1815 Fit      -0.003521
 1816 Fit      -0.000524
 1817 Fit       0.002078
 1818 Fit       0.000559
 1819 Fit       0.001027
 1820 Fit       0.001877
 1821 Fit       0.002570
 1822 Fit       0.003786
 1823 Fit       0.002527
 1824 Fit       0.000879
 1825 Fit       0.000675
 1826 Fit       0.001332
 1827 Fit       0.001822
 1828 Fit       0.002156
 1829 Fit       0.001736
 1830 Fit       0.004360
 1831 Fit       0.003448
 1832 Fit       0.001780
 1833 Fit       0.000698
 1834 Fit       0.000317
 1835 Fit       0.000451
 1836 Fit       0.001553
 1837 Fit       0.000274
 1838 Fit       0.003445
 1839 Fit       0.002056
 1840 Fit       0.000858
 1841 Fit       0.004963
 1842 Fit       0.003979
 1843 Fit       0.007123
 1844 Fit       0.004773
 1845 Fit       0.003061
 1846 Fit       0.002564
 1847 Fit       0.001286
 1848 Fit       0.002547
 1849 Fit       0.002992
 1850 Fit       0.002668
 1851 Fit       0.001496
 1852 Fit       0.002454
 1853 Fit       0.004274
 1854 Fit       0.004138
 1855 Fit       0.002855
 1856 Fit       0.002802
 1857 Fit       0.002338
 1858 Fit       0.001454
 1859 Fit       0.001168
 1860 Fit       0.000729
 1861 Fit       0.006335
 1862 Fit       0.006116
 1863 Fit       0.006078
 1864 Fit       0.006486
 1865 Fit       0.006805
 1866 Fit       0.008088
 1867 Fit       0.007475
 1868 Fit       0.006245
 1869 Fit       0.011545
 1870 Fit       0.010402
 1871 Fit       0.008141
 1872 Fit       0.006264
 1873 Fit       0.013423
 1874 Fit       0.006366
 1875 Fit       0.006930
 1876 Fit       0.007711
 1877 Fit       0.007277
 1878 Fit       0.008043
 1879 Fit       0.008743
 1880 Fit       0.008609
 1881 Fit       0.009287
 1882 Fit       0.009622
 1883 Fit       0.001633
 1884 Fit       0.002148
 1885 Fit       0.001549
 1886 Fit       0.000360
 1887 Fit      -0.001216
 1888 Fit      -0.000290
 1889 Fit      -0.000150
 1890 Fit       0.000500
 1891 Fit      -0.003961
 1892 Fit       0.000720
 1893 Fit      -0.006697
 1894 Fit      -0.001021
 1895 Fit       0.002271
 1896 Fit      -0.001068
 1897 Fit       0.001074
 1898 Fit       0.003299
 1899 Fit       0.004823
 1900 Fit       0.001601
 1901 Fit       0.002696
 1902 Fit       0.002958
 1903 Fit       0.001310
 1904 Fit       0.007596
 1905 Fit       0.006120
 1906 Fit       0.005227
 1907 Fit       0.005406
 1908 Fit       0.005887
 1909 Fit       0.005079
 1910 Fit       0.003487
 1911 Fit       0.006061
 1912 Fit       0.009566
 1913 Fit       0.008687
 1914 Fit       0.009250
 1915 Fit       0.008503
 1916 Fit       0.008236
 1917 Fit       0.007983
 1918 Fit       0.007406
 1919 Fit       0.007125
 1920 Fit       0.007046
 1921 Fit       0.005741
 1922 Fit       0.021374
 1923 Fit       0.013931
 1924 Fit       0.009354
 1925 Fit       0.016995
 1926 Fit       0.012306
 1927 Fit       0.008385
 1928 Fit       0.011155
 1929 Fit       0.009012
 1930 Fit       0.006698
 1931 Fit       0.005514
 1932 Fit       0.006585
 1933 Fit       0.006580
 1934 Fit       0.005618
 1935 Fit       0.003337
 1936 Fit       0.005358
 1937 Fit       0.005825
 1938 Fit       0.005357
 1939 Fit       0.000588
 1940 Fit       0.001004
 1941 Fit       0.001025
 1942 Fit       0.001099
 1943 Fit      -0.003822
 1944 Fit       0.002966
 1945 Fit      -0.000874
 1946 Fit      -0.006755
 1947 Fit       0.004252
 1948 Fit       0.001353
 1949 Fit      -0.001356
 1950 Fit       0.003467
 1951 Fit       0.002951
 1952 Fit       0.002291
 1953 Fit       0.013380
 1954 Fit       0.016736
 1955 Fit       0.015499
 1956 Fit       0.004316
 1957 Fit       0.007701
 1958 Fit       0.010718
 1959 Fit       0.008902
 1960 Fit       0.006358
 1961 Fit       0.005867
 1962 Fit      -0.000779
 1963 Fit       0.004525
 1964 Fit       0.006314
 1965 Fit       0.007653
 1966 Fit       0.007819
 1967 Fit       0.008244
 1968 Fit       0.008790
 1969 Fit       0.013306
 1970 Fit       0.011415
 1971 Fit       0.010579
 1972 Fit       0.019460
 1973 Fit       0.014788
 1974 Fit       0.021664
 1975 Fit       0.004723
 1976 Fit       0.005753
 1977 Fit       0.002864
 1978 Fit       0.002033
 1979 Fit       0.004186
 1980 Fit       0.005781
 1981 Fit       0.003926
 1982 Fit      -0.002503
 1983 Fit      -0.004389
 1984 Fit      -0.000969
 1985 Fit       0.002716
 1986 Fit       0.004910
 1987 Fit       0.006474
 1988 Fit      -0.002953
 1989 Fit       0.002311
 1990 Fit       0.004701
 1991 Fit      -0.003653
 1992 Fit      -0.002544
 1993 Fit      -0.000919
 1994 Fit      -0.000042
 1995 Fit       0.000623
 1996 Fit      -0.000116
 1997 Fit       0.000885
 1998 Fit       0.000815
 1999 Fit       0.000660
 2000 Fit       0.000625
 2001 Fit       0.001267
 2002 Fit       0.000104
 2003 Fit      -0.000845
 2004 Fit      -0.000347
 2005 Fit      -0.002988
 2006 Fit      -0.002648
 2007 Fit      -0.002152
 2008 Fit       0.004465
 2009 Fit       0.007057
 2010 Fit       0.001572
 2011 Fit      -0.002716
 2012 Fit       0.008170
 2013 Fit       0.002656
 2014 Fit      -0.003423
 2015 Fit      -0.011150
 2016 Fit       0.011799
 2017 Fit       0.005217
 2018 Fit       0.000086
 2019 Fit      -0.006890
 2020 Fit       0.002501
 2021 Fit      -0.001402
 2022 Fit      -0.010474
 2023 Fit      -0.000718
 2024 Fit      -0.000344
 2025 Fit      -0.001045
 2026 Fit      -0.001110
 2027 Fit       0.000793
 2028 Fit      -0.000436
 2029 Fit      -0.000613
 2030 Fit      -0.000002
 2031 Fit       0.000539
 2032 Fit       0.000815
 2033 Fit       0.000977
 2034 Fit      -0.000052
 2035 Fit       0.001021
 2036 Fit       0.001715
 2037 Fit       0.001410
 2038 Fit       0.000486
 2039 Fit      -0.000315
 2040 Fit       0.001645
 2041 Fit       0.001898
 2042 Fit       0.001339
 2043 Fit       0.000392
 2044 Fit       0.000099
 2045 Fit       0.000055
 2046 Fit      -0.000416
 2047 Fit       0.000632
 2048 Fit       0.001899
 2049 Fit       0.000596
 2050 Fit       0.001978
 2051 Fit       0.000567
 2052 Fit       0.001703
 2053 Fit       0.000452
 2054 Fit       0.000769
 2055 Fit       0.000944
 2056 Fit       0.003110
 2057 Fit       0.000988
 2058 Fit       0.004258
 2059 Fit       0.002084
 2060 Fit       0.002198
 2061 Fit       0.000087
 2062 Fit       0.000952
 2063 Fit      -0.000053
 2064 Fit       0.000328
 2065 Fit       0.003474
 2066 Fit       0.002342
 2067 Fit       0.000474
 2068 Fit       0.001381
 2069 Fit       0.001590
 2070 Fit       0.000190
 2071 Fit       0.001066
 2072 Fit       0.001940
 2073 Fit       0.001471
 2074 Fit       0.001253
 2075 Fit      -0.002497
 2076 Fit      -0.003245
 2077 Fit      -0.003982
 2078 Fit       0.001559
 2079 Fit       0.000996
 2080 Fit       0.000859
 2081 Fit       0.001049
 2082 Fit       0.001040
 2083 Fit       0.000172
 2084 Fit      -0.000129
 2085 Fit      -0.000335
 2086 Fit      -0.000308
 2087 Fit      -0.001675
 2088 Fit      -0.002060
 2089 Fit      -0.002364
 2090 Fit      -0.001734
 2091 Fit      -0.002287
 2092 Fit      -0.002963
 2093 Fit      -0.000176
 2094 Fit      -0.000395
 2095 Fit      -0.000744
 2096 Fit      -0.000951
 2097 Fit       0.000750
 2098 Fit       0.000427
 2099 Fit       0.000252
 2100 Fit       0.001559
 2101 Fit       0.000890
 2102 Fit       0.000724
 2103 Fit      -0.000311
 2104 Fit       0.000097
 2105 Fit       0.000191
 2106 Fit      -0.000337
 2107 Fit       0.000375
 2108 Fit       0.000411
 2109 Fit       0.000504
 2110 Fit       0.000166
 2111 Fit      -0.000847
 2112 Fit       0.000108
 2113 Fit       0.000229
 2114 Fit       0.000011
 2115 Fit      -0.000752
 2116 Fit      -0.000384
 2117 Fit      -0.000170
 2118 Fit      -0.000510
 2119 Fit      -0.001936
 2120 Fit      -0.001390
 2121 Fit      -0.001075
 2122 Fit      -0.001766
 2123 Fit      -0.002110
 2124 Fit      -0.000244
 2125 Fit      -0.002160
 2126 Fit      -0.002257
 2127 Fit      -0.002194
 2128 Fit      -0.001686
 2129 Fit      -0.002305
 2130 Fit       0.001590
 2131 Fit       0.000009
 2132 Fit       0.001944
 2133 Fit       0.001515
 2134 Fit       0.000217
 2135 Fit      -0.001478
 2136 Fit       0.001599
 2137 Fit       0.000829
 2138 Fit      -0.000687
 2139 Fit      -0.000437
 2140 Fit      -0.000056
 2141 Fit      -0.001419
 2142 Fit       0.001065
 2143 Fit       0.001654
 2144 Fit       0.000951
 2145 Fit      -0.000156
 2146 Fit       0.000234
 2147 Fit       0.001469
 2148 Fit       0.001018
 2149 Fit       0.000298
 2150 Fit      -0.000976
 2151 Fit      -0.000210
 2152 Fit       0.000850
 2153 Fit      -0.000188
 2154 Fit      -0.001012
 2155 Fit      -0.001639
 2156 Fit      -0.000440
 2157 Fit      -0.001815
 2158 Fit      -0.000224
 2159 Fit      -0.000761
 2160 Fit       0.000372
 2161 Fit       0.001197
 2162 Fit      -0.000962
 2163 Fit       0.000365
 2164 Fit       0.001214
 2165 Fit       0.001334
 2166 Fit       0.000715
 2167 Fit      -0.000100
 2168 Fit      -0.001212
 2169 Fit       0.000219
 2170 Fit       0.000860
 2171 Fit       0.000162
 2172 Fit      -0.001212
 2173 Fit      -0.000316
 2174 Fit      -0.001749
 2175 Fit      -0.001596
 2176 Fit      -0.001232
 2177 Fit      -0.001966
 2178 Fit      -0.002331
 2179 Fit      -0.002031
 2180 Fit      -0.001229
 2181 Fit      -0.000590
 2182 Fit      -0.002157
 2183 Fit      -0.001852
 2184 Fit      -0.001696
 2185 Fit      -0.001721
 2186 Fit       0.000631
 2187 Fit      -0.000259
 2188 Fit       0.002588
 2189 Fit       0.001314
 2190 Fit      -0.000136
 2191 Fit       0.003025
 2192 Fit       0.001863
 2193 Fit       0.000378
 2194 Fit      -0.001389
 2195 Fit       0.001555
 2196 Fit      -0.000354
 2197 Fit      -0.001446
 2198 Fit       0.000127
 2199 Fit      -0.000533
 2200 Fit      -0.001514
 2201 Fit      -0.000232
 2202 Fit       0.001260
 2203 Fit       0.000766
 2204 Fit      -0.000189
 2205 Fit      -0.001703
 2206 Fit      -0.000188
 2207 Fit       0.000931
 2208 Fit       0.001818
 2209 Fit       0.001467
 2210 Fit      -0.000070
 2211 Fit       0.001256
 2212 Fit      -0.001459
 2213 Fit       0.000632
 2214 Fit      -0.000502
 2215 Fit       0.000580
 2216 Fit       0.001412
 2217 Fit       0.001090
 2218 Fit       0.000006
 2219 Fit      -0.000782
 2220 Fit      -0.000997
 2221 Fit       0.000153
 2222 Fit       0.001154
 2223 Fit       0.001734
 2224 Fit       0.001299
 2225 Fit       0.000373
 2226 Fit      -0.000626
 2227 Fit      -0.000096
 -----------------------------------------------------------------
 Leave Link  602 at Thu May 18 12:26:47 2017, MaxMem=   33554432 cpu:      14.4
 (Enter /scratch/michal/g09/l9999.exe)

 Test job not archived.
 1\1\GINC-RZEPICHA\SP\RHF\6-31G(d)\C27H46O2\MICHAL\18-May-2017\0\\#P HF
 /6-31G* SCF(Conver=6) NoSymm Test Pop=mk IOp(6/33=2) GFInput GFPrint\\
 MEP - Input generated by R.E.D.-III.x MOLECULE\\0,1\O,0,5.76395786,3.4
 4631092,0.\H,0,5.1287677,3.28788624,0.71110659\O,0,0.,0.,0.\H,0,-0.083
 11982,-0.74404795,-0.61289934\C,0,8.81914909,0.36990144,0.37595581\C,0
 ,7.8960744,1.54473723,-0.05259464\H,0,7.71759687,2.12647102,0.86301395
 \C,0,6.51039345,1.13071352,-0.56297963\H,0,6.62749049,0.54585946,-1.48
 684507\C,0,5.77675879,0.26877465,0.49533047\H,0,5.55378815,0.94769407,
 1.33528359\C,0,10.1037079,1.1730296,0.78507941\H,0,9.86852102,1.650692
 13,1.74949319\C,0,8.07944504,-0.36942454,1.51018315\H,0,7.9802494,0.31
 279335,2.36674128\H,0,8.64185011,-1.23753866,1.86801783\C,0,4.38812005
 ,-0.25235314,-0.01615111\C,0,8.78006445,2.42247474,-0.94856364\H,0,8.4
 2651959,3.45670896,-0.98250501\H,0,8.78642411,2.04934878,-1.98077228\C
 ,0,6.68185885,-0.84814116,1.06658014\H,0,6.80952205,-1.6397818,0.32101
 316\H,0,6.18779972,-1.31981852,1.92392947\C,0,10.18728302,2.29898417,-
 0.30264026\H,0,10.94360301,2.04566991,-1.05543868\H,0,10.50028755,3.24
 836316,0.14151782\C,0,5.65733519,2.35794697,-0.94795147\H,0,6.0614452,
 2.78580227,-1.87260999\C,0,11.45047738,0.42673756,0.97359559\H,0,11.73
 680543,0.,0.\C,0,9.13982053,-0.59222924,-0.79094334\H,0,8.23877215,-1.
 01178517,-1.24590577\H,0,9.70029957,-0.09403961,-1.58778757\H,0,9.7475
 4117,-1.4346107,-0.44423356\C,0,3.62972389,0.86805309,-0.73988958\C,0,
 3.5402966,-0.70307232,1.21350615\H,0,3.5904054,0.088279,1.97437642\H,0
 ,3.99661051,-1.59215082,1.66174108\C,0,4.21202973,2.00684188,-1.150281
 61\H,0,3.60467423,2.7686984,-1.63814189\C,0,4.55117394,-1.44386093,-0.
 99897623\H,0,4.91978969,-2.33641247,-0.48462694\H,0,3.60101426,-1.7123
 4768,-1.46734369\H,0,5.24954735,-1.19968106,-1.80509009\C,0,2.15168197
 ,0.6392649,-0.9979986\H,0,1.69789374,1.54010482,-1.42260633\H,0,2.0231
 8041,-0.16029635,-1.7449884\C,0,2.06115898,-0.98939908,0.91277956\H,0,
 1.96555498,-1.85460576,0.2402098\H,0,1.53447523,-1.25155415,1.83736619
 \C,0,12.56314211,1.42596035,1.37790011\H,0,12.52277123,2.29941614,0.71
 737954\H,0,12.3487702,1.80158585,2.39041662\C,0,1.38713121,0.22101239,
 0.26722492\H,0,1.3925777,1.05643849,0.97818878\C,0,11.37046374,-0.7247
 6912,1.99149459\H,0,11.00556158,-0.36504739,2.961918\H,0,12.35255812,-
 1.17832004,2.15495003\H,0,10.70338326,-1.52361932,1.66007838\C,0,13.99
 78656,0.87404859,1.33409166\H,0,14.10835587,0.05039909,2.04840536\H,0,
 14.18191554,0.4481541,0.33825547\C,0,15.04430074,1.95839232,1.63955282
 \H,0,14.81848325,2.39632907,2.62271924\H,0,14.92779662,2.77436661,0.91
 171661\C,0,16.52543375,1.51339014,1.63612539\H,0,17.11135523,2.4162952
 4,1.86364332\C,0,16.98939256,1.00957126,0.25935304\H,0,16.49459835,0.0
 7080512,-0.0152295\H,0,18.06934494,0.82253554,0.25608673\H,0,16.775159
 75,1.74296694,-0.52702414\C,0,16.839276,0.48447923,2.73508649\H,0,16.3
 4072146,-0.47348457,2.54733085\H,0,17.916036,0.28669563,2.78752455\H,0
 ,16.51713403,0.84191536,3.72025795\\Version=EM64L-G09RevC.01\HF=-1198.
 9270546\RMSD=4.899e-07\Dipole=0.1207734,-0.972315,-0.1351618\Quadrupol
 e=-4.155942,-1.3999331,5.5558751,-7.1820098,1.1961913,1.6354599\PG=C01
  [X(C27H46O2)]\\@


 BLACK HOLES SUCK.
 Job cpu time:  0 days  0 hours 36 minutes 58.1 seconds.
 File lengths (MBytes):  RWF=    151 Int=      0 D2E=      0 Chk=     11 Scr=      1
 Normal termination of Gaussian 09 at Thu May 18 12:26:47 2017.
