 Entering Gaussian System, Link 0=/scratch/michal/g09//g09
 Input=JOB2-gau_m1-15-1.com
 Output=JOB2-gau_m1-15-1.log
 Initial command:
 /scratch/michal/g09/l1.exe /scratch/michal/gauss_scratch/Gau-27509.inp -scrdir=/scratch/michal/gauss_scratch/
 Entering Link 1 = /scratch/michal/g09/l1.exe PID=     27511.
  
 Copyright (c) 1988,1990,1992,1993,1995,1998,2003,2009,2011,
            Gaussian, Inc.  All Rights Reserved.
  
 This is part of the Gaussian(R) 09 program.  It is based on
 the Gaussian(R) 03 system (copyright 2003, Gaussian, Inc.),
 the Gaussian(R) 98 system (copyright 1998, Gaussian, Inc.),
 the Gaussian(R) 94 system (copyright 1995, Gaussian, Inc.),
 the Gaussian 92(TM) system (copyright 1992, Gaussian, Inc.),
 the Gaussian 90(TM) system (copyright 1990, Gaussian, Inc.),
 the Gaussian 88(TM) system (copyright 1988, Gaussian, Inc.),
 the Gaussian 86(TM) system (copyright 1986, Carnegie Mellon
 University), and the Gaussian 82(TM) system (copyright 1983,
 Carnegie Mellon University). Gaussian is a federally registered
 trademark of Gaussian, Inc.
  
 This software contains proprietary and confidential information,
 including trade secrets, belonging to Gaussian, Inc.
  
 This software is provided under written license and may be
 used, copied, transmitted, or stored only in accord with that
 written license.
  
 The following legend is applicable only to US Government
 contracts under FAR:
  
                    RESTRICTED RIGHTS LEGEND
  
 Use, reproduction and disclosure by the US Government is
 subject to restrictions as set forth in subparagraphs (a)
 and (c) of the Commercial Computer Software - Restricted
 Rights clause in FAR 52.227-19.
  
 Gaussian, Inc.
 340 Quinnipiac St., Bldg. 40, Wallingford CT 06492
  
  
 ---------------------------------------------------------------
 Warning -- This program may not be used in any manner that
 competes with the business of Gaussian, Inc. or will provide
 assistance to any competitor of Gaussian, Inc.  The licensee
 of this program is prohibited from giving any competitor of
 Gaussian, Inc. access to this program.  By using this program,
 the user acknowledges that Gaussian, Inc. is engaged in the
 business of creating and licensing software in the field of
 computational chemistry and represents and warrants to the
 licensee that it is not a competitor of Gaussian, Inc. and that
 it will not use this program in any manner prohibited above.
 ---------------------------------------------------------------
  

 Cite this work as:
 Gaussian 09, Revision C.01,
 M. J. Frisch, G. W. Trucks, H. B. Schlegel, G. E. Scuseria, 
 M. A. Robb, J. R. Cheeseman, G. Scalmani, V. Barone, B. Mennucci, 
 G. A. Petersson, H. Nakatsuji, M. Caricato, X. Li, H. P. Hratchian, 
 A. F. Izmaylov, J. Bloino, G. Zheng, J. L. Sonnenberg, M. Hada, 
 M. Ehara, K. Toyota, R. Fukuda, J. Hasegawa, M. Ishida, T. Nakajima, 
 Y. Honda, O. Kitao, H. Nakai, T. Vreven, J. A. Montgomery, Jr., 
 J. E. Peralta, F. Ogliaro, M. Bearpark, J. J. Heyd, E. Brothers, 
 K. N. Kudin, V. N. Staroverov, T. Keith, R. Kobayashi, J. Normand, 
 K. Raghavachari, A. Rendell, J. C. Burant, S. S. Iyengar, J. Tomasi, 
 M. Cossi, N. Rega, J. M. Millam, M. Klene, J. E. Knox, J. B. Cross, 
 V. Bakken, C. Adamo, J. Jaramillo, R. Gomperts, R. E. Stratmann, 
 O. Yazyev, A. J. Austin, R. Cammi, C. Pomelli, J. W. Ochterski, 
 R. L. Martin, K. Morokuma, V. G. Zakrzewski, G. A. Voth, 
 P. Salvador, J. J. Dannenberg, S. Dapprich, A. D. Daniels, 
 O. Farkas, J. B. Foresman, J. V. Ortiz, J. Cioslowski, 
 and D. J. Fox, Gaussian, Inc., Wallingford CT, 2010.
 
 ******************************************
 Gaussian 09:  EM64L-G09RevC.01 23-Sep-2011
                18-May-2017 
 ******************************************
 %Mem=256MB
 %NProc=48
 Will use up to   48 processors via shared memory.
 ----------------------------------------------------------------------
 #P HF/6-31G* SCF(Conver=6) NoSymm Test Pop=mk IOp(6/33=2) GFInput GFPr
 int
 ----------------------------------------------------------------------
 1/38=1/1;
 2/12=2,15=1,17=6,18=5,40=1/2;
 3/5=1,6=6,7=1,11=9,16=1,24=110,25=1,30=1/1,2,3;
 4//1;
 5/5=2,6=6,38=5/2;
 6/7=2,8=2,9=2,10=2,15=8,20=1,28=1,33=2/1,2;
 99/5=1,9=1/99;
 Leave Link    1 at Thu May 18 13:37:01 2017, MaxMem=   33554432 cpu:       5.1
 (Enter /scratch/michal/g09/l101.exe)
 ----------------------------------------------
 MEP - Input generated by R.E.D.-III.x MOLECULE
 ----------------------------------------------
 Charge =  0 Multiplicity = 1
 Symbolic Z-Matrix:
 O                     0.        0.        0. 
 H                     0.96653   0.        0. 
 O                     4.36451  -2.77596  -4.28354 
 H                     4.09062  -2.88016  -5.20565 
 C                    -1.23778   3.65702  -2.00439 
 C                    -1.14676   2.2717   -1.30126 
 H                    -0.45755   2.4134   -0.45732 
 C                    -0.5345    1.15171  -2.15077 
 H                    -1.19115   0.94675  -3.00842 
 C                     0.86664   1.56645  -2.66981 
 H                     1.51838   1.60229  -1.78093 
 C                    -1.90495   4.47356  -0.84301 
 H                    -1.12724   4.52512  -0.06862 
 C                     0.20205   4.05701  -2.37981 
 H                     0.78804   4.18471  -1.45896 
 H                     0.22743   5.01931  -2.9048 
 C                     1.49426   0.48597  -3.61894 
 C                    -2.54053   2.06011  -0.68534 
 H                    -2.50583   1.38233   0.1722 
 H                    -3.22986   1.61952  -1.41703 
 C                     0.87448   2.99292  -3.27128 
 H                     0.37284   2.98941  -4.24429 
 H                     1.90757   3.30316  -3.46604 
 C                    -2.9917    3.49594  -0.29107 
 H                    -3.97772   3.72203  -0.70961 
 H                    -3.08662   3.60935   0.79438 
 C                    -0.44914  -0.17385  -1.36473 
 H                    -1.46272  -0.57493  -1.24985 
 C                    -2.42055   5.9347   -0.98412 
 H                    -2.86579   6.14636   0. 
 C                    -2.1246    3.60901  -3.27032 
 H                    -1.83117   2.80209  -3.94687 
 H                    -3.18004   3.45795  -3.02983 
 H                    -2.0463    4.54283  -3.83472 
 C                     1.284    -0.92024  -3.0418 
 C                     3.02877   0.74646  -3.72726 
 H                     3.42533   0.89157  -2.71269 
 H                     3.19972   1.68612  -4.26328 
 C                     0.41471  -1.18968  -2.0538 
 H                     0.33569  -2.20969  -1.67875 
 C                     0.85917   0.53134  -5.03557 
 H                     1.13475   1.4478   -5.56584 
 H                     1.18977  -0.3084   -5.65186 
 H                    -0.23252   0.48135  -4.98225 
 C                     2.10802  -2.04049  -3.6497 
 H                     1.95079  -2.97021  -3.09419 
 H                     1.77443  -2.23016  -4.68245 
 C                     3.83198  -0.37547  -4.40283 
 H                     3.54232  -0.47365  -5.45947 
 H                     4.90009  -0.13049  -4.39223 
 C                    -1.31061   6.99165  -1.20538 
 H                    -0.84051   6.81659  -2.18159 
 H                    -1.80236   7.97196  -1.28728 
 C                     3.60824  -1.71311  -3.69803 
 H                     3.99073  -1.64662  -2.67201 
 C                    -3.54823   6.1809   -2.0071 
 H                    -3.17423   6.20809  -3.03483 
 H                    -4.01742   7.15137  -1.80891 
 H                    -4.33631   5.42387  -1.95807 
 C                    -0.20737   7.10615  -0.13528 
 H                     0.34875   6.16448  -0.06585 
 H                     0.51388   7.85404  -0.48866 
 C                    -0.72254   7.51334   1.2553 
 H                    -1.38332   6.72682   1.64335 
 H                    -1.35012   8.41051   1.14806 
 C                     0.35476   7.80098   2.32826 
 H                    -0.19569   8.05054   3.24746 
 C                     1.2287    9.01862   1.98415 
 H                     1.86208   8.8303    1.10965 
 H                     1.89303   9.26869   2.81926 
 H                     0.61555   9.90181   1.76948 
 C                     1.2214    6.5699    2.64147 
 H                     1.85217   6.29291   1.78884 
 H                     1.88702   6.7672    3.48956 
 H                     0.60376   5.70095   2.89724 
 
 NAtoms=     75 NQM=        0 NQMF=       0 NMMI=     75 NMMIF=      0
                NMic=       0 NMicF=      0.
                    Isotopes and Nuclear Properties:
 (Nuclear quadrupole moments (NQMom) in fm**2, nuclear magnetic moments (NMagM)
  in nuclear magnetons)

  Atom         1           2           3           4           5           6           7           8           9          10
 IAtWgt=          16           1          16           1          12          12           1          12           1          12
 AtmWgt=  15.9949146   1.0078250  15.9949146   1.0078250  12.0000000  12.0000000   1.0078250  12.0000000   1.0078250  12.0000000
 NucSpn=           0           1           0           1           0           0           1           0           1           0
 AtZEff=   0.0000000   0.0000000   0.0000000   0.0000000   0.0000000   0.0000000   0.0000000   0.0000000   0.0000000   0.0000000
 NQMom=    0.0000000   0.0000000   0.0000000   0.0000000   0.0000000   0.0000000   0.0000000   0.0000000   0.0000000   0.0000000
 NMagM=    0.0000000   2.7928460   0.0000000   2.7928460   0.0000000   0.0000000   2.7928460   0.0000000   2.7928460   0.0000000

  Atom        11          12          13          14          15          16          17          18          19          20
 IAtWgt=           1          12           1          12           1           1          12          12           1           1
 AtmWgt=   1.0078250  12.0000000   1.0078250  12.0000000   1.0078250   1.0078250  12.0000000  12.0000000   1.0078250   1.0078250
 NucSpn=           1           0           1           0           1           1           0           0           1           1
 AtZEff=   0.0000000   0.0000000   0.0000000   0.0000000   0.0000000   0.0000000   0.0000000   0.0000000   0.0000000   0.0000000
 NQMom=    0.0000000   0.0000000   0.0000000   0.0000000   0.0000000   0.0000000   0.0000000   0.0000000   0.0000000   0.0000000
 NMagM=    2.7928460   0.0000000   2.7928460   0.0000000   2.7928460   2.7928460   0.0000000   0.0000000   2.7928460   2.7928460

  Atom        21          22          23          24          25          26          27          28          29          30
 IAtWgt=          12           1           1          12           1           1          12           1          12           1
 AtmWgt=  12.0000000   1.0078250   1.0078250  12.0000000   1.0078250   1.0078250  12.0000000   1.0078250  12.0000000   1.0078250
 NucSpn=           0           1           1           0           1           1           0           1           0           1
 AtZEff=   0.0000000   0.0000000   0.0000000   0.0000000   0.0000000   0.0000000   0.0000000   0.0000000   0.0000000   0.0000000
 NQMom=    0.0000000   0.0000000   0.0000000   0.0000000   0.0000000   0.0000000   0.0000000   0.0000000   0.0000000   0.0000000
 NMagM=    0.0000000   2.7928460   2.7928460   0.0000000   2.7928460   2.7928460   0.0000000   2.7928460   0.0000000   2.7928460

  Atom        31          32          33          34          35          36          37          38          39          40
 IAtWgt=          12           1           1           1          12          12           1           1          12           1
 AtmWgt=  12.0000000   1.0078250   1.0078250   1.0078250  12.0000000  12.0000000   1.0078250   1.0078250  12.0000000   1.0078250
 NucSpn=           0           1           1           1           0           0           1           1           0           1
 AtZEff=   0.0000000   0.0000000   0.0000000   0.0000000   0.0000000   0.0000000   0.0000000   0.0000000   0.0000000   0.0000000
 NQMom=    0.0000000   0.0000000   0.0000000   0.0000000   0.0000000   0.0000000   0.0000000   0.0000000   0.0000000   0.0000000
 NMagM=    0.0000000   2.7928460   2.7928460   2.7928460   0.0000000   0.0000000   2.7928460   2.7928460   0.0000000   2.7928460

  Atom        41          42          43          44          45          46          47          48          49          50
 IAtWgt=          12           1           1           1          12           1           1          12           1           1
 AtmWgt=  12.0000000   1.0078250   1.0078250   1.0078250  12.0000000   1.0078250   1.0078250  12.0000000   1.0078250   1.0078250
 NucSpn=           0           1           1           1           0           1           1           0           1           1
 AtZEff=   0.0000000   0.0000000   0.0000000   0.0000000   0.0000000   0.0000000   0.0000000   0.0000000   0.0000000   0.0000000
 NQMom=    0.0000000   0.0000000   0.0000000   0.0000000   0.0000000   0.0000000   0.0000000   0.0000000   0.0000000   0.0000000
 NMagM=    0.0000000   2.7928460   2.7928460   2.7928460   0.0000000   2.7928460   2.7928460   0.0000000   2.7928460   2.7928460

  Atom        51          52          53          54          55          56          57          58          59          60
 IAtWgt=          12           1           1          12           1          12           1           1           1          12
 AtmWgt=  12.0000000   1.0078250   1.0078250  12.0000000   1.0078250  12.0000000   1.0078250   1.0078250   1.0078250  12.0000000
 NucSpn=           0           1           1           0           1           0           1           1           1           0
 AtZEff=   0.0000000   0.0000000   0.0000000   0.0000000   0.0000000   0.0000000   0.0000000   0.0000000   0.0000000   0.0000000
 NQMom=    0.0000000   0.0000000   0.0000000   0.0000000   0.0000000   0.0000000   0.0000000   0.0000000   0.0000000   0.0000000
 NMagM=    0.0000000   2.7928460   2.7928460   0.0000000   2.7928460   0.0000000   2.7928460   2.7928460   2.7928460   0.0000000

  Atom        61          62          63          64          65          66          67          68          69          70
 IAtWgt=           1           1          12           1           1          12           1          12           1           1
 AtmWgt=   1.0078250   1.0078250  12.0000000   1.0078250   1.0078250  12.0000000   1.0078250  12.0000000   1.0078250   1.0078250
 NucSpn=           1           1           0           1           1           0           1           0           1           1
 AtZEff=   0.0000000   0.0000000   0.0000000   0.0000000   0.0000000   0.0000000   0.0000000   0.0000000   0.0000000   0.0000000
 NQMom=    0.0000000   0.0000000   0.0000000   0.0000000   0.0000000   0.0000000   0.0000000   0.0000000   0.0000000   0.0000000
 NMagM=    2.7928460   2.7928460   0.0000000   2.7928460   2.7928460   0.0000000   2.7928460   0.0000000   2.7928460   2.7928460

  Atom        71          72          73          74          75
 IAtWgt=           1          12           1           1           1
 AtmWgt=   1.0078250  12.0000000   1.0078250   1.0078250   1.0078250
 NucSpn=           1           0           1           1           1
 AtZEff=   0.0000000   0.0000000   0.0000000   0.0000000   0.0000000
 NQMom=    0.0000000   0.0000000   0.0000000   0.0000000   0.0000000
 NMagM=    2.7928460   0.0000000   2.7928460   2.7928460   2.7928460
 Leave Link  101 at Thu May 18 13:37:01 2017, MaxMem=   33554432 cpu:       9.2
 (Enter /scratch/michal/g09/l202.exe)
 Symmetry turned off by external request.
 Stoichiometry    C27H46O2
 Framework group  C1[X(C27H46O2)]
 Deg. of freedom   219
 Full point group                 C1      NOp   1
                          Input orientation:                          
 ---------------------------------------------------------------------
 Center     Atomic      Atomic             Coordinates (Angstroms)
 Number     Number       Type             X           Y           Z
 ---------------------------------------------------------------------
      1          8           0        0.000000    0.000000    0.000000
      2          1           0        0.966525    0.000000    0.000000
      3          8           0        4.364505   -2.775958   -4.283535
      4          1           0        4.090625   -2.880159   -5.205654
      5          6           0       -1.237781    3.657017   -2.004386
      6          6           0       -1.146763    2.271698   -1.301263
      7          1           0       -0.457551    2.413397   -0.457321
      8          6           0       -0.534499    1.151707   -2.150773
      9          1           0       -1.191151    0.946751   -3.008422
     10          6           0        0.866635    1.566450   -2.669815
     11          1           0        1.518379    1.602285   -1.780933
     12          6           0       -1.904948    4.473557   -0.843009
     13          1           0       -1.127240    4.525120   -0.068617
     14          6           0        0.202046    4.057007   -2.379808
     15          1           0        0.788040    4.184708   -1.458965
     16          1           0        0.227430    5.019314   -2.904795
     17          6           0        1.494257    0.485973   -3.618942
     18          6           0       -2.540531    2.060113   -0.685340
     19          1           0       -2.505826    1.382328    0.172203
     20          1           0       -3.229865    1.619515   -1.417034
     21          6           0        0.874484    2.992915   -3.271282
     22          1           0        0.372838    2.989410   -4.244289
     23          1           0        1.907567    3.303157   -3.466043
     24          6           0       -2.991700    3.495944   -0.291065
     25          1           0       -3.977719    3.722029   -0.709614
     26          1           0       -3.086617    3.609349    0.794382
     27          6           0       -0.449137   -0.173848   -1.364732
     28          1           0       -1.462716   -0.574934   -1.249854
     29          6           0       -2.420554    5.934698   -0.984124
     30          1           0       -2.865794    6.146364    0.000000
     31          6           0       -2.124603    3.609011   -3.270321
     32          1           0       -1.831166    2.802095   -3.946868
     33          1           0       -3.180037    3.457948   -3.029829
     34          1           0       -2.046296    4.542831   -3.834716
     35          6           0        1.284003   -0.920242   -3.041798
     36          6           0        3.028767    0.746458   -3.727257
     37          1           0        3.425334    0.891567   -2.712691
     38          1           0        3.199717    1.686125   -4.263283
     39          6           0        0.414709   -1.189682   -2.053799
     40          1           0        0.335689   -2.209690   -1.678747
     41          6           0        0.859174    0.531337   -5.035567
     42          1           0        1.134751    1.447795   -5.565843
     43          1           0        1.189769   -0.308402   -5.651856
     44          1           0       -0.232522    0.481346   -4.982251
     45          6           0        2.108019   -2.040489   -3.649705
     46          1           0        1.950788   -2.970205   -3.094185
     47          1           0        1.774432   -2.230164   -4.682451
     48          6           0        3.831982   -0.375469   -4.402828
     49          1           0        3.542321   -0.473645   -5.459472
     50          1           0        4.900090   -0.130489   -4.392232
     51          6           0       -1.310613    6.991653   -1.205377
     52          1           0       -0.840510    6.816588   -2.181589
     53          1           0       -1.802360    7.971958   -1.287280
     54          6           0        3.608240   -1.713114   -3.698027
     55          1           0        3.990729   -1.646619   -2.672009
     56          6           0       -3.548226    6.180897   -2.007103
     57          1           0       -3.174228    6.208093   -3.034826
     58          1           0       -4.017420    7.151366   -1.808905
     59          1           0       -4.336306    5.423873   -1.958066
     60          6           0       -0.207375    7.106148   -0.135283
     61          1           0        0.348748    6.164475   -0.065854
     62          1           0        0.513885    7.854040   -0.488662
     63          6           0       -0.722540    7.513339    1.255299
     64          1           0       -1.383315    6.726821    1.643346
     65          1           0       -1.350118    8.410508    1.148055
     66          6           0        0.354756    7.800983    2.328260
     67          1           0       -0.195686    8.050539    3.247459
     68          6           0        1.228702    9.018620    1.984154
     69          1           0        1.862078    8.830305    1.109649
     70          1           0        1.893034    9.268687    2.819262
     71          1           0        0.615545    9.901814    1.769476
     72          6           0        1.221402    6.569904    2.641468
     73          1           0        1.852174    6.292905    1.788838
     74          1           0        1.887017    6.767203    3.489564
     75          1           0        0.603762    5.700954    2.897241
 ---------------------------------------------------------------------
 Rotational constants (GHZ):      0.2750577      0.0742499      0.0690401
 Leave Link  202 at Thu May 18 13:37:01 2017, MaxMem=   33554432 cpu:       0.1
 (Enter /scratch/michal/g09/l301.exe)
 Standard basis: 6-31G(d) (6D, 7F)
 Ernie: Thresh=  0.10000D-02 Tol=  0.10000D-05 Strict=F.
 AO basis set in the form of general basis input (Overlap normalization):
      1 0
 S   6 1.00       0.000000000000
      0.5484671660D+04  0.1831074430D-02
      0.8252349460D+03  0.1395017220D-01
      0.1880469580D+03  0.6844507810D-01
      0.5296450000D+02  0.2327143360D+00
      0.1689757040D+02  0.4701928980D+00
      0.5799635340D+01  0.3585208530D+00
 SP   3 1.00       0.000000000000
      0.1553961625D+02 -0.1107775495D+00  0.7087426823D-01
      0.3599933586D+01 -0.1480262627D+00  0.3397528391D+00
      0.1013761750D+01  0.1130767015D+01  0.7271585773D+00
 SP   1 1.00       0.000000000000
      0.2700058226D+00  0.1000000000D+01  0.1000000000D+01
 D   1 1.00       0.000000000000
      0.8000000000D+00  0.1000000000D+01
 ****
      2 0
 S   3 1.00       0.000000000000
      0.1873113696D+02  0.3349460434D-01
      0.2825394365D+01  0.2347269535D+00
      0.6401216923D+00  0.8137573261D+00
 S   1 1.00       0.000000000000
      0.1612777588D+00  0.1000000000D+01
 ****
      3 0
 S   6 1.00       0.000000000000
      0.5484671660D+04  0.1831074430D-02
      0.8252349460D+03  0.1395017220D-01
      0.1880469580D+03  0.6844507810D-01
      0.5296450000D+02  0.2327143360D+00
      0.1689757040D+02  0.4701928980D+00
      0.5799635340D+01  0.3585208530D+00
 SP   3 1.00       0.000000000000
      0.1553961625D+02 -0.1107775495D+00  0.7087426823D-01
      0.3599933586D+01 -0.1480262627D+00  0.3397528391D+00
      0.1013761750D+01  0.1130767015D+01  0.7271585773D+00
 SP   1 1.00       0.000000000000
      0.2700058226D+00  0.1000000000D+01  0.1000000000D+01
 D   1 1.00       0.000000000000
      0.8000000000D+00  0.1000000000D+01
 ****
      4 0
 S   3 1.00       0.000000000000
      0.1873113696D+02  0.3349460434D-01
      0.2825394365D+01  0.2347269535D+00
      0.6401216923D+00  0.8137573261D+00
 S   1 1.00       0.000000000000
      0.1612777588D+00  0.1000000000D+01
 ****
      5 0
 S   6 1.00       0.000000000000
      0.3047524880D+04  0.1834737132D-02
      0.4573695180D+03  0.1403732281D-01
      0.1039486850D+03  0.6884262226D-01
      0.2921015530D+02  0.2321844432D+00
      0.9286662960D+01  0.4679413484D+00
      0.3163926960D+01  0.3623119853D+00
 SP   3 1.00       0.000000000000
      0.7868272350D+01 -0.1193324198D+00  0.6899906659D-01
      0.1881288540D+01 -0.1608541517D+00  0.3164239610D+00
      0.5442492580D+00  0.1143456438D+01  0.7443082909D+00
 SP   1 1.00       0.000000000000
      0.1687144782D+00  0.1000000000D+01  0.1000000000D+01
 D   1 1.00       0.000000000000
      0.8000000000D+00  0.1000000000D+01
 ****
      6 0
 S   6 1.00       0.000000000000
      0.3047524880D+04  0.1834737132D-02
      0.4573695180D+03  0.1403732281D-01
      0.1039486850D+03  0.6884262226D-01
      0.2921015530D+02  0.2321844432D+00
      0.9286662960D+01  0.4679413484D+00
      0.3163926960D+01  0.3623119853D+00
 SP   3 1.00       0.000000000000
      0.7868272350D+01 -0.1193324198D+00  0.6899906659D-01
      0.1881288540D+01 -0.1608541517D+00  0.3164239610D+00
      0.5442492580D+00  0.1143456438D+01  0.7443082909D+00
 SP   1 1.00       0.000000000000
      0.1687144782D+00  0.1000000000D+01  0.1000000000D+01
 D   1 1.00       0.000000000000
      0.8000000000D+00  0.1000000000D+01
 ****
      7 0
 S   3 1.00       0.000000000000
      0.1873113696D+02  0.3349460434D-01
      0.2825394365D+01  0.2347269535D+00
      0.6401216923D+00  0.8137573261D+00
 S   1 1.00       0.000000000000
      0.1612777588D+00  0.1000000000D+01
 ****
      8 0
 S   6 1.00       0.000000000000
      0.3047524880D+04  0.1834737132D-02
      0.4573695180D+03  0.1403732281D-01
      0.1039486850D+03  0.6884262226D-01
      0.2921015530D+02  0.2321844432D+00
      0.9286662960D+01  0.4679413484D+00
      0.3163926960D+01  0.3623119853D+00
 SP   3 1.00       0.000000000000
      0.7868272350D+01 -0.1193324198D+00  0.6899906659D-01
      0.1881288540D+01 -0.1608541517D+00  0.3164239610D+00
      0.5442492580D+00  0.1143456438D+01  0.7443082909D+00
 SP   1 1.00       0.000000000000
      0.1687144782D+00  0.1000000000D+01  0.1000000000D+01
 D   1 1.00       0.000000000000
      0.8000000000D+00  0.1000000000D+01
 ****
      9 0
 S   3 1.00       0.000000000000
      0.1873113696D+02  0.3349460434D-01
      0.2825394365D+01  0.2347269535D+00
      0.6401216923D+00  0.8137573261D+00
 S   1 1.00       0.000000000000
      0.1612777588D+00  0.1000000000D+01
 ****
     10 0
 S   6 1.00       0.000000000000
      0.3047524880D+04  0.1834737132D-02
      0.4573695180D+03  0.1403732281D-01
      0.1039486850D+03  0.6884262226D-01
      0.2921015530D+02  0.2321844432D+00
      0.9286662960D+01  0.4679413484D+00
      0.3163926960D+01  0.3623119853D+00
 SP   3 1.00       0.000000000000
      0.7868272350D+01 -0.1193324198D+00  0.6899906659D-01
      0.1881288540D+01 -0.1608541517D+00  0.3164239610D+00
      0.5442492580D+00  0.1143456438D+01  0.7443082909D+00
 SP   1 1.00       0.000000000000
      0.1687144782D+00  0.1000000000D+01  0.1000000000D+01
 D   1 1.00       0.000000000000
      0.8000000000D+00  0.1000000000D+01
 ****
     11 0
 S   3 1.00       0.000000000000
      0.1873113696D+02  0.3349460434D-01
      0.2825394365D+01  0.2347269535D+00
      0.6401216923D+00  0.8137573261D+00
 S   1 1.00       0.000000000000
      0.1612777588D+00  0.1000000000D+01
 ****
     12 0
 S   6 1.00       0.000000000000
      0.3047524880D+04  0.1834737132D-02
      0.4573695180D+03  0.1403732281D-01
      0.1039486850D+03  0.6884262226D-01
      0.2921015530D+02  0.2321844432D+00
      0.9286662960D+01  0.4679413484D+00
      0.3163926960D+01  0.3623119853D+00
 SP   3 1.00       0.000000000000
      0.7868272350D+01 -0.1193324198D+00  0.6899906659D-01
      0.1881288540D+01 -0.1608541517D+00  0.3164239610D+00
      0.5442492580D+00  0.1143456438D+01  0.7443082909D+00
 SP   1 1.00       0.000000000000
      0.1687144782D+00  0.1000000000D+01  0.1000000000D+01
 D   1 1.00       0.000000000000
      0.8000000000D+00  0.1000000000D+01
 ****
     13 0
 S   3 1.00       0.000000000000
      0.1873113696D+02  0.3349460434D-01
      0.2825394365D+01  0.2347269535D+00
      0.6401216923D+00  0.8137573261D+00
 S   1 1.00       0.000000000000
      0.1612777588D+00  0.1000000000D+01
 ****
     14 0
 S   6 1.00       0.000000000000
      0.3047524880D+04  0.1834737132D-02
      0.4573695180D+03  0.1403732281D-01
      0.1039486850D+03  0.6884262226D-01
      0.2921015530D+02  0.2321844432D+00
      0.9286662960D+01  0.4679413484D+00
      0.3163926960D+01  0.3623119853D+00
 SP   3 1.00       0.000000000000
      0.7868272350D+01 -0.1193324198D+00  0.6899906659D-01
      0.1881288540D+01 -0.1608541517D+00  0.3164239610D+00
      0.5442492580D+00  0.1143456438D+01  0.7443082909D+00
 SP   1 1.00       0.000000000000
      0.1687144782D+00  0.1000000000D+01  0.1000000000D+01
 D   1 1.00       0.000000000000
      0.8000000000D+00  0.1000000000D+01
 ****
     15 0
 S   3 1.00       0.000000000000
      0.1873113696D+02  0.3349460434D-01
      0.2825394365D+01  0.2347269535D+00
      0.6401216923D+00  0.8137573261D+00
 S   1 1.00       0.000000000000
      0.1612777588D+00  0.1000000000D+01
 ****
     16 0
 S   3 1.00       0.000000000000
      0.1873113696D+02  0.3349460434D-01
      0.2825394365D+01  0.2347269535D+00
      0.6401216923D+00  0.8137573261D+00
 S   1 1.00       0.000000000000
      0.1612777588D+00  0.1000000000D+01
 ****
     17 0
 S   6 1.00       0.000000000000
      0.3047524880D+04  0.1834737132D-02
      0.4573695180D+03  0.1403732281D-01
      0.1039486850D+03  0.6884262226D-01
      0.2921015530D+02  0.2321844432D+00
      0.9286662960D+01  0.4679413484D+00
      0.3163926960D+01  0.3623119853D+00
 SP   3 1.00       0.000000000000
      0.7868272350D+01 -0.1193324198D+00  0.6899906659D-01
      0.1881288540D+01 -0.1608541517D+00  0.3164239610D+00
      0.5442492580D+00  0.1143456438D+01  0.7443082909D+00
 SP   1 1.00       0.000000000000
      0.1687144782D+00  0.1000000000D+01  0.1000000000D+01
 D   1 1.00       0.000000000000
      0.8000000000D+00  0.1000000000D+01
 ****
     18 0
 S   6 1.00       0.000000000000
      0.3047524880D+04  0.1834737132D-02
      0.4573695180D+03  0.1403732281D-01
      0.1039486850D+03  0.6884262226D-01
      0.2921015530D+02  0.2321844432D+00
      0.9286662960D+01  0.4679413484D+00
      0.3163926960D+01  0.3623119853D+00
 SP   3 1.00       0.000000000000
      0.7868272350D+01 -0.1193324198D+00  0.6899906659D-01
      0.1881288540D+01 -0.1608541517D+00  0.3164239610D+00
      0.5442492580D+00  0.1143456438D+01  0.7443082909D+00
 SP   1 1.00       0.000000000000
      0.1687144782D+00  0.1000000000D+01  0.1000000000D+01
 D   1 1.00       0.000000000000
      0.8000000000D+00  0.1000000000D+01
 ****
     19 0
 S   3 1.00       0.000000000000
      0.1873113696D+02  0.3349460434D-01
      0.2825394365D+01  0.2347269535D+00
      0.6401216923D+00  0.8137573261D+00
 S   1 1.00       0.000000000000
      0.1612777588D+00  0.1000000000D+01
 ****
     20 0
 S   3 1.00       0.000000000000
      0.1873113696D+02  0.3349460434D-01
      0.2825394365D+01  0.2347269535D+00
      0.6401216923D+00  0.8137573261D+00
 S   1 1.00       0.000000000000
      0.1612777588D+00  0.1000000000D+01
 ****
     21 0
 S   6 1.00       0.000000000000
      0.3047524880D+04  0.1834737132D-02
      0.4573695180D+03  0.1403732281D-01
      0.1039486850D+03  0.6884262226D-01
      0.2921015530D+02  0.2321844432D+00
      0.9286662960D+01  0.4679413484D+00
      0.3163926960D+01  0.3623119853D+00
 SP   3 1.00       0.000000000000
      0.7868272350D+01 -0.1193324198D+00  0.6899906659D-01
      0.1881288540D+01 -0.1608541517D+00  0.3164239610D+00
      0.5442492580D+00  0.1143456438D+01  0.7443082909D+00
 SP   1 1.00       0.000000000000
      0.1687144782D+00  0.1000000000D+01  0.1000000000D+01
 D   1 1.00       0.000000000000
      0.8000000000D+00  0.1000000000D+01
 ****
     22 0
 S   3 1.00       0.000000000000
      0.1873113696D+02  0.3349460434D-01
      0.2825394365D+01  0.2347269535D+00
      0.6401216923D+00  0.8137573261D+00
 S   1 1.00       0.000000000000
      0.1612777588D+00  0.1000000000D+01
 ****
     23 0
 S   3 1.00       0.000000000000
      0.1873113696D+02  0.3349460434D-01
      0.2825394365D+01  0.2347269535D+00
      0.6401216923D+00  0.8137573261D+00
 S   1 1.00       0.000000000000
      0.1612777588D+00  0.1000000000D+01
 ****
     24 0
 S   6 1.00       0.000000000000
      0.3047524880D+04  0.1834737132D-02
      0.4573695180D+03  0.1403732281D-01
      0.1039486850D+03  0.6884262226D-01
      0.2921015530D+02  0.2321844432D+00
      0.9286662960D+01  0.4679413484D+00
      0.3163926960D+01  0.3623119853D+00
 SP   3 1.00       0.000000000000
      0.7868272350D+01 -0.1193324198D+00  0.6899906659D-01
      0.1881288540D+01 -0.1608541517D+00  0.3164239610D+00
      0.5442492580D+00  0.1143456438D+01  0.7443082909D+00
 SP   1 1.00       0.000000000000
      0.1687144782D+00  0.1000000000D+01  0.1000000000D+01
 D   1 1.00       0.000000000000
      0.8000000000D+00  0.1000000000D+01
 ****
     25 0
 S   3 1.00       0.000000000000
      0.1873113696D+02  0.3349460434D-01
      0.2825394365D+01  0.2347269535D+00
      0.6401216923D+00  0.8137573261D+00
 S   1 1.00       0.000000000000
      0.1612777588D+00  0.1000000000D+01
 ****
     26 0
 S   3 1.00       0.000000000000
      0.1873113696D+02  0.3349460434D-01
      0.2825394365D+01  0.2347269535D+00
      0.6401216923D+00  0.8137573261D+00
 S   1 1.00       0.000000000000
      0.1612777588D+00  0.1000000000D+01
 ****
     27 0
 S   6 1.00       0.000000000000
      0.3047524880D+04  0.1834737132D-02
      0.4573695180D+03  0.1403732281D-01
      0.1039486850D+03  0.6884262226D-01
      0.2921015530D+02  0.2321844432D+00
      0.9286662960D+01  0.4679413484D+00
      0.3163926960D+01  0.3623119853D+00
 SP   3 1.00       0.000000000000
      0.7868272350D+01 -0.1193324198D+00  0.6899906659D-01
      0.1881288540D+01 -0.1608541517D+00  0.3164239610D+00
      0.5442492580D+00  0.1143456438D+01  0.7443082909D+00
 SP   1 1.00       0.000000000000
      0.1687144782D+00  0.1000000000D+01  0.1000000000D+01
 D   1 1.00       0.000000000000
      0.8000000000D+00  0.1000000000D+01
 ****
     28 0
 S   3 1.00       0.000000000000
      0.1873113696D+02  0.3349460434D-01
      0.2825394365D+01  0.2347269535D+00
      0.6401216923D+00  0.8137573261D+00
 S   1 1.00       0.000000000000
      0.1612777588D+00  0.1000000000D+01
 ****
     29 0
 S   6 1.00       0.000000000000
      0.3047524880D+04  0.1834737132D-02
      0.4573695180D+03  0.1403732281D-01
      0.1039486850D+03  0.6884262226D-01
      0.2921015530D+02  0.2321844432D+00
      0.9286662960D+01  0.4679413484D+00
      0.3163926960D+01  0.3623119853D+00
 SP   3 1.00       0.000000000000
      0.7868272350D+01 -0.1193324198D+00  0.6899906659D-01
      0.1881288540D+01 -0.1608541517D+00  0.3164239610D+00
      0.5442492580D+00  0.1143456438D+01  0.7443082909D+00
 SP   1 1.00       0.000000000000
      0.1687144782D+00  0.1000000000D+01  0.1000000000D+01
 D   1 1.00       0.000000000000
      0.8000000000D+00  0.1000000000D+01
 ****
     30 0
 S   3 1.00       0.000000000000
      0.1873113696D+02  0.3349460434D-01
      0.2825394365D+01  0.2347269535D+00
      0.6401216923D+00  0.8137573261D+00
 S   1 1.00       0.000000000000
      0.1612777588D+00  0.1000000000D+01
 ****
     31 0
 S   6 1.00       0.000000000000
      0.3047524880D+04  0.1834737132D-02
      0.4573695180D+03  0.1403732281D-01
      0.1039486850D+03  0.6884262226D-01
      0.2921015530D+02  0.2321844432D+00
      0.9286662960D+01  0.4679413484D+00
      0.3163926960D+01  0.3623119853D+00
 SP   3 1.00       0.000000000000
      0.7868272350D+01 -0.1193324198D+00  0.6899906659D-01
      0.1881288540D+01 -0.1608541517D+00  0.3164239610D+00
      0.5442492580D+00  0.1143456438D+01  0.7443082909D+00
 SP   1 1.00       0.000000000000
      0.1687144782D+00  0.1000000000D+01  0.1000000000D+01
 D   1 1.00       0.000000000000
      0.8000000000D+00  0.1000000000D+01
 ****
     32 0
 S   3 1.00       0.000000000000
      0.1873113696D+02  0.3349460434D-01
      0.2825394365D+01  0.2347269535D+00
      0.6401216923D+00  0.8137573261D+00
 S   1 1.00       0.000000000000
      0.1612777588D+00  0.1000000000D+01
 ****
     33 0
 S   3 1.00       0.000000000000
      0.1873113696D+02  0.3349460434D-01
      0.2825394365D+01  0.2347269535D+00
      0.6401216923D+00  0.8137573261D+00
 S   1 1.00       0.000000000000
      0.1612777588D+00  0.1000000000D+01
 ****
     34 0
 S   3 1.00       0.000000000000
      0.1873113696D+02  0.3349460434D-01
      0.2825394365D+01  0.2347269535D+00
      0.6401216923D+00  0.8137573261D+00
 S   1 1.00       0.000000000000
      0.1612777588D+00  0.1000000000D+01
 ****
     35 0
 S   6 1.00       0.000000000000
      0.3047524880D+04  0.1834737132D-02
      0.4573695180D+03  0.1403732281D-01
      0.1039486850D+03  0.6884262226D-01
      0.2921015530D+02  0.2321844432D+00
      0.9286662960D+01  0.4679413484D+00
      0.3163926960D+01  0.3623119853D+00
 SP   3 1.00       0.000000000000
      0.7868272350D+01 -0.1193324198D+00  0.6899906659D-01
      0.1881288540D+01 -0.1608541517D+00  0.3164239610D+00
      0.5442492580D+00  0.1143456438D+01  0.7443082909D+00
 SP   1 1.00       0.000000000000
      0.1687144782D+00  0.1000000000D+01  0.1000000000D+01
 D   1 1.00       0.000000000000
      0.8000000000D+00  0.1000000000D+01
 ****
     36 0
 S   6 1.00       0.000000000000
      0.3047524880D+04  0.1834737132D-02
      0.4573695180D+03  0.1403732281D-01
      0.1039486850D+03  0.6884262226D-01
      0.2921015530D+02  0.2321844432D+00
      0.9286662960D+01  0.4679413484D+00
      0.3163926960D+01  0.3623119853D+00
 SP   3 1.00       0.000000000000
      0.7868272350D+01 -0.1193324198D+00  0.6899906659D-01
      0.1881288540D+01 -0.1608541517D+00  0.3164239610D+00
      0.5442492580D+00  0.1143456438D+01  0.7443082909D+00
 SP   1 1.00       0.000000000000
      0.1687144782D+00  0.1000000000D+01  0.1000000000D+01
 D   1 1.00       0.000000000000
      0.8000000000D+00  0.1000000000D+01
 ****
     37 0
 S   3 1.00       0.000000000000
      0.1873113696D+02  0.3349460434D-01
      0.2825394365D+01  0.2347269535D+00
      0.6401216923D+00  0.8137573261D+00
 S   1 1.00       0.000000000000
      0.1612777588D+00  0.1000000000D+01
 ****
     38 0
 S   3 1.00       0.000000000000
      0.1873113696D+02  0.3349460434D-01
      0.2825394365D+01  0.2347269535D+00
      0.6401216923D+00  0.8137573261D+00
 S   1 1.00       0.000000000000
      0.1612777588D+00  0.1000000000D+01
 ****
     39 0
 S   6 1.00       0.000000000000
      0.3047524880D+04  0.1834737132D-02
      0.4573695180D+03  0.1403732281D-01
      0.1039486850D+03  0.6884262226D-01
      0.2921015530D+02  0.2321844432D+00
      0.9286662960D+01  0.4679413484D+00
      0.3163926960D+01  0.3623119853D+00
 SP   3 1.00       0.000000000000
      0.7868272350D+01 -0.1193324198D+00  0.6899906659D-01
      0.1881288540D+01 -0.1608541517D+00  0.3164239610D+00
      0.5442492580D+00  0.1143456438D+01  0.7443082909D+00
 SP   1 1.00       0.000000000000
      0.1687144782D+00  0.1000000000D+01  0.1000000000D+01
 D   1 1.00       0.000000000000
      0.8000000000D+00  0.1000000000D+01
 ****
     40 0
 S   3 1.00       0.000000000000
      0.1873113696D+02  0.3349460434D-01
      0.2825394365D+01  0.2347269535D+00
      0.6401216923D+00  0.8137573261D+00
 S   1 1.00       0.000000000000
      0.1612777588D+00  0.1000000000D+01
 ****
     41 0
 S   6 1.00       0.000000000000
      0.3047524880D+04  0.1834737132D-02
      0.4573695180D+03  0.1403732281D-01
      0.1039486850D+03  0.6884262226D-01
      0.2921015530D+02  0.2321844432D+00
      0.9286662960D+01  0.4679413484D+00
      0.3163926960D+01  0.3623119853D+00
 SP   3 1.00       0.000000000000
      0.7868272350D+01 -0.1193324198D+00  0.6899906659D-01
      0.1881288540D+01 -0.1608541517D+00  0.3164239610D+00
      0.5442492580D+00  0.1143456438D+01  0.7443082909D+00
 SP   1 1.00       0.000000000000
      0.1687144782D+00  0.1000000000D+01  0.1000000000D+01
 D   1 1.00       0.000000000000
      0.8000000000D+00  0.1000000000D+01
 ****
     42 0
 S   3 1.00       0.000000000000
      0.1873113696D+02  0.3349460434D-01
      0.2825394365D+01  0.2347269535D+00
      0.6401216923D+00  0.8137573261D+00
 S   1 1.00       0.000000000000
      0.1612777588D+00  0.1000000000D+01
 ****
     43 0
 S   3 1.00       0.000000000000
      0.1873113696D+02  0.3349460434D-01
      0.2825394365D+01  0.2347269535D+00
      0.6401216923D+00  0.8137573261D+00
 S   1 1.00       0.000000000000
      0.1612777588D+00  0.1000000000D+01
 ****
     44 0
 S   3 1.00       0.000000000000
      0.1873113696D+02  0.3349460434D-01
      0.2825394365D+01  0.2347269535D+00
      0.6401216923D+00  0.8137573261D+00
 S   1 1.00       0.000000000000
      0.1612777588D+00  0.1000000000D+01
 ****
     45 0
 S   6 1.00       0.000000000000
      0.3047524880D+04  0.1834737132D-02
      0.4573695180D+03  0.1403732281D-01
      0.1039486850D+03  0.6884262226D-01
      0.2921015530D+02  0.2321844432D+00
      0.9286662960D+01  0.4679413484D+00
      0.3163926960D+01  0.3623119853D+00
 SP   3 1.00       0.000000000000
      0.7868272350D+01 -0.1193324198D+00  0.6899906659D-01
      0.1881288540D+01 -0.1608541517D+00  0.3164239610D+00
      0.5442492580D+00  0.1143456438D+01  0.7443082909D+00
 SP   1 1.00       0.000000000000
      0.1687144782D+00  0.1000000000D+01  0.1000000000D+01
 D   1 1.00       0.000000000000
      0.8000000000D+00  0.1000000000D+01
 ****
     46 0
 S   3 1.00       0.000000000000
      0.1873113696D+02  0.3349460434D-01
      0.2825394365D+01  0.2347269535D+00
      0.6401216923D+00  0.8137573261D+00
 S   1 1.00       0.000000000000
      0.1612777588D+00  0.1000000000D+01
 ****
     47 0
 S   3 1.00       0.000000000000
      0.1873113696D+02  0.3349460434D-01
      0.2825394365D+01  0.2347269535D+00
      0.6401216923D+00  0.8137573261D+00
 S   1 1.00       0.000000000000
      0.1612777588D+00  0.1000000000D+01
 ****
     48 0
 S   6 1.00       0.000000000000
      0.3047524880D+04  0.1834737132D-02
      0.4573695180D+03  0.1403732281D-01
      0.1039486850D+03  0.6884262226D-01
      0.2921015530D+02  0.2321844432D+00
      0.9286662960D+01  0.4679413484D+00
      0.3163926960D+01  0.3623119853D+00
 SP   3 1.00       0.000000000000
      0.7868272350D+01 -0.1193324198D+00  0.6899906659D-01
      0.1881288540D+01 -0.1608541517D+00  0.3164239610D+00
      0.5442492580D+00  0.1143456438D+01  0.7443082909D+00
 SP   1 1.00       0.000000000000
      0.1687144782D+00  0.1000000000D+01  0.1000000000D+01
 D   1 1.00       0.000000000000
      0.8000000000D+00  0.1000000000D+01
 ****
     49 0
 S   3 1.00       0.000000000000
      0.1873113696D+02  0.3349460434D-01
      0.2825394365D+01  0.2347269535D+00
      0.6401216923D+00  0.8137573261D+00
 S   1 1.00       0.000000000000
      0.1612777588D+00  0.1000000000D+01
 ****
     50 0
 S   3 1.00       0.000000000000
      0.1873113696D+02  0.3349460434D-01
      0.2825394365D+01  0.2347269535D+00
      0.6401216923D+00  0.8137573261D+00
 S   1 1.00       0.000000000000
      0.1612777588D+00  0.1000000000D+01
 ****
     51 0
 S   6 1.00       0.000000000000
      0.3047524880D+04  0.1834737132D-02
      0.4573695180D+03  0.1403732281D-01
      0.1039486850D+03  0.6884262226D-01
      0.2921015530D+02  0.2321844432D+00
      0.9286662960D+01  0.4679413484D+00
      0.3163926960D+01  0.3623119853D+00
 SP   3 1.00       0.000000000000
      0.7868272350D+01 -0.1193324198D+00  0.6899906659D-01
      0.1881288540D+01 -0.1608541517D+00  0.3164239610D+00
      0.5442492580D+00  0.1143456438D+01  0.7443082909D+00
 SP   1 1.00       0.000000000000
      0.1687144782D+00  0.1000000000D+01  0.1000000000D+01
 D   1 1.00       0.000000000000
      0.8000000000D+00  0.1000000000D+01
 ****
     52 0
 S   3 1.00       0.000000000000
      0.1873113696D+02  0.3349460434D-01
      0.2825394365D+01  0.2347269535D+00
      0.6401216923D+00  0.8137573261D+00
 S   1 1.00       0.000000000000
      0.1612777588D+00  0.1000000000D+01
 ****
     53 0
 S   3 1.00       0.000000000000
      0.1873113696D+02  0.3349460434D-01
      0.2825394365D+01  0.2347269535D+00
      0.6401216923D+00  0.8137573261D+00
 S   1 1.00       0.000000000000
      0.1612777588D+00  0.1000000000D+01
 ****
     54 0
 S   6 1.00       0.000000000000
      0.3047524880D+04  0.1834737132D-02
      0.4573695180D+03  0.1403732281D-01
      0.1039486850D+03  0.6884262226D-01
      0.2921015530D+02  0.2321844432D+00
      0.9286662960D+01  0.4679413484D+00
      0.3163926960D+01  0.3623119853D+00
 SP   3 1.00       0.000000000000
      0.7868272350D+01 -0.1193324198D+00  0.6899906659D-01
      0.1881288540D+01 -0.1608541517D+00  0.3164239610D+00
      0.5442492580D+00  0.1143456438D+01  0.7443082909D+00
 SP   1 1.00       0.000000000000
      0.1687144782D+00  0.1000000000D+01  0.1000000000D+01
 D   1 1.00       0.000000000000
      0.8000000000D+00  0.1000000000D+01
 ****
     55 0
 S   3 1.00       0.000000000000
      0.1873113696D+02  0.3349460434D-01
      0.2825394365D+01  0.2347269535D+00
      0.6401216923D+00  0.8137573261D+00
 S   1 1.00       0.000000000000
      0.1612777588D+00  0.1000000000D+01
 ****
     56 0
 S   6 1.00       0.000000000000
      0.3047524880D+04  0.1834737132D-02
      0.4573695180D+03  0.1403732281D-01
      0.1039486850D+03  0.6884262226D-01
      0.2921015530D+02  0.2321844432D+00
      0.9286662960D+01  0.4679413484D+00
      0.3163926960D+01  0.3623119853D+00
 SP   3 1.00       0.000000000000
      0.7868272350D+01 -0.1193324198D+00  0.6899906659D-01
      0.1881288540D+01 -0.1608541517D+00  0.3164239610D+00
      0.5442492580D+00  0.1143456438D+01  0.7443082909D+00
 SP   1 1.00       0.000000000000
      0.1687144782D+00  0.1000000000D+01  0.1000000000D+01
 D   1 1.00       0.000000000000
      0.8000000000D+00  0.1000000000D+01
 ****
     57 0
 S   3 1.00       0.000000000000
      0.1873113696D+02  0.3349460434D-01
      0.2825394365D+01  0.2347269535D+00
      0.6401216923D+00  0.8137573261D+00
 S   1 1.00       0.000000000000
      0.1612777588D+00  0.1000000000D+01
 ****
     58 0
 S   3 1.00       0.000000000000
      0.1873113696D+02  0.3349460434D-01
      0.2825394365D+01  0.2347269535D+00
      0.6401216923D+00  0.8137573261D+00
 S   1 1.00       0.000000000000
      0.1612777588D+00  0.1000000000D+01
 ****
     59 0
 S   3 1.00       0.000000000000
      0.1873113696D+02  0.3349460434D-01
      0.2825394365D+01  0.2347269535D+00
      0.6401216923D+00  0.8137573261D+00
 S   1 1.00       0.000000000000
      0.1612777588D+00  0.1000000000D+01
 ****
     60 0
 S   6 1.00       0.000000000000
      0.3047524880D+04  0.1834737132D-02
      0.4573695180D+03  0.1403732281D-01
      0.1039486850D+03  0.6884262226D-01
      0.2921015530D+02  0.2321844432D+00
      0.9286662960D+01  0.4679413484D+00
      0.3163926960D+01  0.3623119853D+00
 SP   3 1.00       0.000000000000
      0.7868272350D+01 -0.1193324198D+00  0.6899906659D-01
      0.1881288540D+01 -0.1608541517D+00  0.3164239610D+00
      0.5442492580D+00  0.1143456438D+01  0.7443082909D+00
 SP   1 1.00       0.000000000000
      0.1687144782D+00  0.1000000000D+01  0.1000000000D+01
 D   1 1.00       0.000000000000
      0.8000000000D+00  0.1000000000D+01
 ****
     61 0
 S   3 1.00       0.000000000000
      0.1873113696D+02  0.3349460434D-01
      0.2825394365D+01  0.2347269535D+00
      0.6401216923D+00  0.8137573261D+00
 S   1 1.00       0.000000000000
      0.1612777588D+00  0.1000000000D+01
 ****
     62 0
 S   3 1.00       0.000000000000
      0.1873113696D+02  0.3349460434D-01
      0.2825394365D+01  0.2347269535D+00
      0.6401216923D+00  0.8137573261D+00
 S   1 1.00       0.000000000000
      0.1612777588D+00  0.1000000000D+01
 ****
     63 0
 S   6 1.00       0.000000000000
      0.3047524880D+04  0.1834737132D-02
      0.4573695180D+03  0.1403732281D-01
      0.1039486850D+03  0.6884262226D-01
      0.2921015530D+02  0.2321844432D+00
      0.9286662960D+01  0.4679413484D+00
      0.3163926960D+01  0.3623119853D+00
 SP   3 1.00       0.000000000000
      0.7868272350D+01 -0.1193324198D+00  0.6899906659D-01
      0.1881288540D+01 -0.1608541517D+00  0.3164239610D+00
      0.5442492580D+00  0.1143456438D+01  0.7443082909D+00
 SP   1 1.00       0.000000000000
      0.1687144782D+00  0.1000000000D+01  0.1000000000D+01
 D   1 1.00       0.000000000000
      0.8000000000D+00  0.1000000000D+01
 ****
     64 0
 S   3 1.00       0.000000000000
      0.1873113696D+02  0.3349460434D-01
      0.2825394365D+01  0.2347269535D+00
      0.6401216923D+00  0.8137573261D+00
 S   1 1.00       0.000000000000
      0.1612777588D+00  0.1000000000D+01
 ****
     65 0
 S   3 1.00       0.000000000000
      0.1873113696D+02  0.3349460434D-01
      0.2825394365D+01  0.2347269535D+00
      0.6401216923D+00  0.8137573261D+00
 S   1 1.00       0.000000000000
      0.1612777588D+00  0.1000000000D+01
 ****
     66 0
 S   6 1.00       0.000000000000
      0.3047524880D+04  0.1834737132D-02
      0.4573695180D+03  0.1403732281D-01
      0.1039486850D+03  0.6884262226D-01
      0.2921015530D+02  0.2321844432D+00
      0.9286662960D+01  0.4679413484D+00
      0.3163926960D+01  0.3623119853D+00
 SP   3 1.00       0.000000000000
      0.7868272350D+01 -0.1193324198D+00  0.6899906659D-01
      0.1881288540D+01 -0.1608541517D+00  0.3164239610D+00
      0.5442492580D+00  0.1143456438D+01  0.7443082909D+00
 SP   1 1.00       0.000000000000
      0.1687144782D+00  0.1000000000D+01  0.1000000000D+01
 D   1 1.00       0.000000000000
      0.8000000000D+00  0.1000000000D+01
 ****
     67 0
 S   3 1.00       0.000000000000
      0.1873113696D+02  0.3349460434D-01
      0.2825394365D+01  0.2347269535D+00
      0.6401216923D+00  0.8137573261D+00
 S   1 1.00       0.000000000000
      0.1612777588D+00  0.1000000000D+01
 ****
     68 0
 S   6 1.00       0.000000000000
      0.3047524880D+04  0.1834737132D-02
      0.4573695180D+03  0.1403732281D-01
      0.1039486850D+03  0.6884262226D-01
      0.2921015530D+02  0.2321844432D+00
      0.9286662960D+01  0.4679413484D+00
      0.3163926960D+01  0.3623119853D+00
 SP   3 1.00       0.000000000000
      0.7868272350D+01 -0.1193324198D+00  0.6899906659D-01
      0.1881288540D+01 -0.1608541517D+00  0.3164239610D+00
      0.5442492580D+00  0.1143456438D+01  0.7443082909D+00
 SP   1 1.00       0.000000000000
      0.1687144782D+00  0.1000000000D+01  0.1000000000D+01
 D   1 1.00       0.000000000000
      0.8000000000D+00  0.1000000000D+01
 ****
     69 0
 S   3 1.00       0.000000000000
      0.1873113696D+02  0.3349460434D-01
      0.2825394365D+01  0.2347269535D+00
      0.6401216923D+00  0.8137573261D+00
 S   1 1.00       0.000000000000
      0.1612777588D+00  0.1000000000D+01
 ****
     70 0
 S   3 1.00       0.000000000000
      0.1873113696D+02  0.3349460434D-01
      0.2825394365D+01  0.2347269535D+00
      0.6401216923D+00  0.8137573261D+00
 S   1 1.00       0.000000000000
      0.1612777588D+00  0.1000000000D+01
 ****
     71 0
 S   3 1.00       0.000000000000
      0.1873113696D+02  0.3349460434D-01
      0.2825394365D+01  0.2347269535D+00
      0.6401216923D+00  0.8137573261D+00
 S   1 1.00       0.000000000000
      0.1612777588D+00  0.1000000000D+01
 ****
     72 0
 S   6 1.00       0.000000000000
      0.3047524880D+04  0.1834737132D-02
      0.4573695180D+03  0.1403732281D-01
      0.1039486850D+03  0.6884262226D-01
      0.2921015530D+02  0.2321844432D+00
      0.9286662960D+01  0.4679413484D+00
      0.3163926960D+01  0.3623119853D+00
 SP   3 1.00       0.000000000000
      0.7868272350D+01 -0.1193324198D+00  0.6899906659D-01
      0.1881288540D+01 -0.1608541517D+00  0.3164239610D+00
      0.5442492580D+00  0.1143456438D+01  0.7443082909D+00
 SP   1 1.00       0.000000000000
      0.1687144782D+00  0.1000000000D+01  0.1000000000D+01
 D   1 1.00       0.000000000000
      0.8000000000D+00  0.1000000000D+01
 ****
     73 0
 S   3 1.00       0.000000000000
      0.1873113696D+02  0.3349460434D-01
      0.2825394365D+01  0.2347269535D+00
      0.6401216923D+00  0.8137573261D+00
 S   1 1.00       0.000000000000
      0.1612777588D+00  0.1000000000D+01
 ****
     74 0
 S   3 1.00       0.000000000000
      0.1873113696D+02  0.3349460434D-01
      0.2825394365D+01  0.2347269535D+00
      0.6401216923D+00  0.8137573261D+00
 S   1 1.00       0.000000000000
      0.1612777588D+00  0.1000000000D+01
 ****
     75 0
 S   3 1.00       0.000000000000
      0.1873113696D+02  0.3349460434D-01
      0.2825394365D+01  0.2347269535D+00
      0.6401216923D+00  0.8137573261D+00
 S   1 1.00       0.000000000000
      0.1612777588D+00  0.1000000000D+01
 ****

 AO basis set (Overlap normalization):
 Atom O1       Shell     1 S   6     bf    1 -     1          0.000000000000          0.000000000000          0.000000000000
      0.5484671660D+04  0.1831074430D-02
      0.8252349460D+03  0.1395017220D-01
      0.1880469580D+03  0.6844507810D-01
      0.5296450000D+02  0.2327143360D+00
      0.1689757040D+02  0.4701928980D+00
      0.5799635340D+01  0.3585208530D+00
 Atom O1       Shell     2 SP   3    bf    2 -     5          0.000000000000          0.000000000000          0.000000000000
      0.1553961625D+02 -0.1107775495D+00  0.7087426823D-01
      0.3599933586D+01 -0.1480262627D+00  0.3397528391D+00
      0.1013761750D+01  0.1130767015D+01  0.7271585773D+00
 Atom O1       Shell     3 SP   1    bf    6 -     9          0.000000000000          0.000000000000          0.000000000000
      0.2700058226D+00  0.1000000000D+01  0.1000000000D+01
 Atom O1       Shell     4 D   1     bf   10 -    15          0.000000000000          0.000000000000          0.000000000000
      0.8000000000D+00  0.1000000000D+01
 Atom H2       Shell     5 S   3     bf   16 -    16          1.826468382067          0.000000000000          0.000000000000
      0.1873113696D+02  0.3349460434D-01
      0.2825394365D+01  0.2347269535D+00
      0.6401216923D+00  0.8137573261D+00
 Atom H2       Shell     6 S   1     bf   17 -    17          1.826468382067          0.000000000000          0.000000000000
      0.1612777588D+00  0.1000000000D+01
 Atom O3       Shell     7 S   6     bf   18 -    18          8.247719646939         -5.245800111831         -8.094708937699
      0.5484671660D+04  0.1831074430D-02
      0.8252349460D+03  0.1395017220D-01
      0.1880469580D+03  0.6844507810D-01
      0.5296450000D+02  0.2327143360D+00
      0.1689757040D+02  0.4701928980D+00
      0.5799635340D+01  0.3585208530D+00
 Atom O3       Shell     8 SP   3    bf   19 -    22          8.247719646939         -5.245800111831         -8.094708937699
      0.1553961625D+02 -0.1107775495D+00  0.7087426823D-01
      0.3599933586D+01 -0.1480262627D+00  0.3397528391D+00
      0.1013761750D+01  0.1130767015D+01  0.7271585773D+00
 Atom O3       Shell     9 SP   1    bf   23 -    26          8.247719646939         -5.245800111831         -8.094708937699
      0.2700058226D+00  0.1000000000D+01  0.1000000000D+01
 Atom O3       Shell    10 D   1     bf   27 -    32          8.247719646939         -5.245800111831         -8.094708937699
      0.8000000000D+00  0.1000000000D+01
 Atom H4       Shell    11 S   3     bf   33 -    33          7.730160546596         -5.442711785858         -9.837259835643
      0.1873113696D+02  0.3349460434D-01
      0.2825394365D+01  0.2347269535D+00
      0.6401216923D+00  0.8137573261D+00
 Atom H4       Shell    12 S   1     bf   34 -    34          7.730160546596         -5.442711785858         -9.837259835643
      0.1612777588D+00  0.1000000000D+01
 Atom C5       Shell    13 S   6     bf   35 -    35         -2.339068009558          6.910760990150         -3.787739716419
      0.3047524880D+04  0.1834737132D-02
      0.4573695180D+03  0.1403732281D-01
      0.1039486850D+03  0.6884262226D-01
      0.2921015530D+02  0.2321844432D+00
      0.9286662960D+01  0.4679413484D+00
      0.3163926960D+01  0.3623119853D+00
 Atom C5       Shell    14 SP   3    bf   36 -    39         -2.339068009558          6.910760990150         -3.787739716419
      0.7868272350D+01 -0.1193324198D+00  0.6899906659D-01
      0.1881288540D+01 -0.1608541517D+00  0.3164239610D+00
      0.5442492580D+00  0.1143456438D+01  0.7443082909D+00
 Atom C5       Shell    15 SP   1    bf   40 -    43         -2.339068009558          6.910760990150         -3.787739716419
      0.1687144782D+00  0.1000000000D+01  0.1000000000D+01
 Atom C5       Shell    16 D   1     bf   44 -    49         -2.339068009558          6.910760990150         -3.787739716419
      0.8000000000D+00  0.1000000000D+01
 Atom C6       Shell    17 S   6     bf   50 -    50         -2.167067839251          4.292887889206         -2.459030885830
      0.3047524880D+04  0.1834737132D-02
      0.4573695180D+03  0.1403732281D-01
      0.1039486850D+03  0.6884262226D-01
      0.2921015530D+02  0.2321844432D+00
      0.9286662960D+01  0.4679413484D+00
      0.3163926960D+01  0.3623119853D+00
 Atom C6       Shell    18 SP   3    bf   51 -    54         -2.167067839251          4.292887889206         -2.459030885830
      0.7868272350D+01 -0.1193324198D+00  0.6899906659D-01
      0.1881288540D+01 -0.1608541517D+00  0.3164239610D+00
      0.5442492580D+00  0.1143456438D+01  0.7443082909D+00
 Atom C6       Shell    19 SP   1    bf   55 -    58         -2.167067839251          4.292887889206         -2.459030885830
      0.1687144782D+00  0.1000000000D+01  0.1000000000D+01
 Atom C6       Shell    20 D   1     bf   59 -    64         -2.167067839251          4.292887889206         -2.459030885830
      0.8000000000D+00  0.1000000000D+01
 Atom H7       Shell    21 S   3     bf   65 -    65         -0.864646044033          4.560658926394         -0.864210991283
      0.1873113696D+02  0.3349460434D-01
      0.2825394365D+01  0.2347269535D+00
      0.6401216923D+00  0.8137573261D+00
 Atom H7       Shell    22 S   1     bf   66 -    66         -0.864646044033          4.560658926394         -0.864210991283
      0.1612777588D+00  0.1000000000D+01
 Atom C8       Shell    23 S   6     bf   67 -    67         -1.010057125144          2.176409870464         -4.064371547162
      0.3047524880D+04  0.1834737132D-02
      0.4573695180D+03  0.1403732281D-01
      0.1039486850D+03  0.6884262226D-01
      0.2921015530D+02  0.2321844432D+00
      0.9286662960D+01  0.4679413484D+00
      0.3163926960D+01  0.3623119853D+00
 Atom C8       Shell    24 SP   3    bf   68 -    71         -1.010057125144          2.176409870464         -4.064371547162
      0.7868272350D+01 -0.1193324198D+00  0.6899906659D-01
      0.1881288540D+01 -0.1608541517D+00  0.3164239610D+00
      0.5442492580D+00  0.1143456438D+01  0.7443082909D+00
 Atom C8       Shell    25 SP   1    bf   72 -    75         -1.010057125144          2.176409870464         -4.064371547162
      0.1687144782D+00  0.1000000000D+01  0.1000000000D+01
 Atom C8       Shell    26 D   1     bf   76 -    81         -1.010057125144          2.176409870464         -4.064371547162
      0.8000000000D+00  0.1000000000D+01
 Atom H9       Shell    27 S   3     bf   82 -    82         -2.250949607550          1.789099501323         -5.685094484730
      0.1873113696D+02  0.3349460434D-01
      0.2825394365D+01  0.2347269535D+00
      0.6401216923D+00  0.8137573261D+00
 Atom H9       Shell    28 S   1     bf   83 -    83         -2.250949607550          1.789099501323         -5.685094484730
      0.1612777588D+00  0.1000000000D+01
 Atom C10      Shell    29 S   6     bf   84 -    84          1.637703619756          2.960161160708         -5.045218532963
      0.3047524880D+04  0.1834737132D-02
      0.4573695180D+03  0.1403732281D-01
      0.1039486850D+03  0.6884262226D-01
      0.2921015530D+02  0.2321844432D+00
      0.9286662960D+01  0.4679413484D+00
      0.3163926960D+01  0.3623119853D+00
 Atom C10      Shell    30 SP   3    bf   85 -    88          1.637703619756          2.960161160708         -5.045218532963
      0.7868272350D+01 -0.1193324198D+00  0.6899906659D-01
      0.1881288540D+01 -0.1608541517D+00  0.3164239610D+00
      0.5442492580D+00  0.1143456438D+01  0.7443082909D+00
 Atom C10      Shell    31 SP   1    bf   89 -    92          1.637703619756          2.960161160708         -5.045218532963
      0.1687144782D+00  0.1000000000D+01  0.1000000000D+01
 Atom C10      Shell    32 D   1     bf   93 -    98          1.637703619756          2.960161160708         -5.045218532963
      0.8000000000D+00  0.1000000000D+01
 Atom H11      Shell    33 S   3     bf   99 -    99          2.869321194021          3.027880403749         -3.365476330217
      0.1873113696D+02  0.3349460434D-01
      0.2825394365D+01  0.2347269535D+00
      0.6401216923D+00  0.8137573261D+00
 Atom H11      Shell    34 S   1     bf  100 -   100          2.869321194021          3.027880403749         -3.365476330217
      0.1612777588D+00  0.1000000000D+01
 Atom C12      Shell    35 S   6     bf  101 -   101         -3.599829261498          8.453797702134         -1.593055324976
      0.3047524880D+04  0.1834737132D-02
      0.4573695180D+03  0.1403732281D-01
      0.1039486850D+03  0.6884262226D-01
      0.2921015530D+02  0.2321844432D+00
      0.9286662960D+01  0.4679413484D+00
      0.3163926960D+01  0.3623119853D+00
 Atom C12      Shell    36 SP   3    bf  102 -   105         -3.599829261498          8.453797702134         -1.593055324976
      0.7868272350D+01 -0.1193324198D+00  0.6899906659D-01
      0.1881288540D+01 -0.1608541517D+00  0.3164239610D+00
      0.5442492580D+00  0.1143456438D+01  0.7443082909D+00
 Atom C12      Shell    37 SP   1    bf  106 -   109         -3.599829261498          8.453797702134         -1.593055324976
      0.1687144782D+00  0.1000000000D+01  0.1000000000D+01
 Atom C12      Shell    38 D   1     bf  110 -   115         -3.599829261498          8.453797702134         -1.593055324976
      0.8000000000D+00  0.1000000000D+01
 Atom H13      Shell    39 S   3     bf  116 -   116         -2.130174526986          8.551237064909         -0.129668018362
      0.1873113696D+02  0.3349460434D-01
      0.2825394365D+01  0.2347269535D+00
      0.6401216923D+00  0.8137573261D+00
 Atom H13      Shell    40 S   1     bf  117 -   117         -2.130174526986          8.551237064909         -0.129668018362
      0.1612777588D+00  0.1000000000D+01
 Atom C14      Shell    41 S   6     bf  118 -   118          0.381811228300          7.666632791707         -4.497186049152
      0.3047524880D+04  0.1834737132D-02
      0.4573695180D+03  0.1403732281D-01
      0.1039486850D+03  0.6884262226D-01
      0.2921015530D+02  0.2321844432D+00
      0.9286662960D+01  0.4679413484D+00
      0.3163926960D+01  0.3623119853D+00
 Atom C14      Shell    42 SP   3    bf  119 -   122          0.381811228300          7.666632791707         -4.497186049152
      0.7868272350D+01 -0.1193324198D+00  0.6899906659D-01
      0.1881288540D+01 -0.1608541517D+00  0.3164239610D+00
      0.5442492580D+00  0.1143456438D+01  0.7443082909D+00
 Atom C14      Shell    43 SP   1    bf  123 -   126          0.381811228300          7.666632791707         -4.497186049152
      0.1687144782D+00  0.1000000000D+01  0.1000000000D+01
 Atom C14      Shell    44 D   1     bf  127 -   132          0.381811228300          7.666632791707         -4.497186049152
      0.8000000000D+00  0.1000000000D+01
 Atom H15      Shell    45 S   3     bf  133 -   133          1.489179403814          7.907952576322         -2.757043739445
      0.1873113696D+02  0.3349460434D-01
      0.2825394365D+01  0.2347269535D+00
      0.6401216923D+00  0.8137573261D+00
 Atom H15      Shell    46 S   1     bf  134 -   134          1.489179403814          7.907952576322         -2.757043739445
      0.1612777588D+00  0.1000000000D+01
 Atom H16      Shell    47 S   3     bf  135 -   135          0.429779696306          9.485128022377         -5.489267796963
      0.1873113696D+02  0.3349460434D-01
      0.2825394365D+01  0.2347269535D+00
      0.6401216923D+00  0.8137573261D+00
 Atom H16      Shell    48 S   1     bf  136 -   136          0.429779696306          9.485128022377         -5.489267796963
      0.1612777588D+00  0.1000000000D+01
 Atom C17      Shell    49 S   6     bf  137 -   137          2.823737333627          0.918355651210         -6.838808798366
      0.3047524880D+04  0.1834737132D-02
      0.4573695180D+03  0.1403732281D-01
      0.1039486850D+03  0.6884262226D-01
      0.2921015530D+02  0.2321844432D+00
      0.9286662960D+01  0.4679413484D+00
      0.3163926960D+01  0.3623119853D+00
 Atom C17      Shell    50 SP   3    bf  138 -   141          2.823737333627          0.918355651210         -6.838808798366
      0.7868272350D+01 -0.1193324198D+00  0.6899906659D-01
      0.1881288540D+01 -0.1608541517D+00  0.3164239610D+00
      0.5442492580D+00  0.1143456438D+01  0.7443082909D+00
 Atom C17      Shell    51 SP   1    bf  142 -   145          2.823737333627          0.918355651210         -6.838808798366
      0.1687144782D+00  0.1000000000D+01  0.1000000000D+01
 Atom C17      Shell    52 D   1     bf  146 -   151          2.823737333627          0.918355651210         -6.838808798366
      0.8000000000D+00  0.1000000000D+01
 Atom C18      Shell    53 S   6     bf  152 -   152         -4.800907141805          3.893050298763         -1.295104681145
      0.3047524880D+04  0.1834737132D-02
      0.4573695180D+03  0.1403732281D-01
      0.1039486850D+03  0.6884262226D-01
      0.2921015530D+02  0.2321844432D+00
      0.9286662960D+01  0.4679413484D+00
      0.3163926960D+01  0.3623119853D+00
 Atom C18      Shell    54 SP   3    bf  153 -   156         -4.800907141805          3.893050298763         -1.295104681145
      0.7868272350D+01 -0.1193324198D+00  0.6899906659D-01
      0.1881288540D+01 -0.1608541517D+00  0.3164239610D+00
      0.5442492580D+00  0.1143456438D+01  0.7443082909D+00
 Atom C18      Shell    55 SP   1    bf  157 -   160         -4.800907141805          3.893050298763         -1.295104681145
      0.1687144782D+00  0.1000000000D+01  0.1000000000D+01
 Atom C18      Shell    56 D   1     bf  161 -   166         -4.800907141805          3.893050298763         -1.295104681145
      0.8000000000D+00  0.1000000000D+01
 Atom H19      Shell    57 S   3     bf  167 -   167         -4.735325292404          2.612220438751          0.325416131316
      0.1873113696D+02  0.3349460434D-01
      0.2825394365D+01  0.2347269535D+00
      0.6401216923D+00  0.8137573261D+00
 Atom H19      Shell    58 S   1     bf  168 -   168         -4.735325292404          2.612220438751          0.325416131316
      0.1612777588D+00  0.1000000000D+01
 Atom H20      Shell    59 S   3     bf  169 -   169         -6.103559672583          3.060439836998         -2.677806729008
      0.1873113696D+02  0.3349460434D-01
      0.2825394365D+01  0.2347269535D+00
      0.6401216923D+00  0.8137573261D+00
 Atom H20      Shell    60 S   1     bf  170 -   170         -6.103559672583          3.060439836998         -2.677806729008
      0.1612777588D+00  0.1000000000D+01
 Atom C21      Shell    61 S   6     bf  171 -   171          1.652534643981          5.655790274821         -6.181827820432
      0.3047524880D+04  0.1834737132D-02
      0.4573695180D+03  0.1403732281D-01
      0.1039486850D+03  0.6884262226D-01
      0.2921015530D+02  0.2321844432D+00
      0.9286662960D+01  0.4679413484D+00
      0.3163926960D+01  0.3623119853D+00
 Atom C21      Shell    62 SP   3    bf  172 -   175          1.652534643981          5.655790274821         -6.181827820432
      0.7868272350D+01 -0.1193324198D+00  0.6899906659D-01
      0.1881288540D+01 -0.1608541517D+00  0.3164239610D+00
      0.5442492580D+00  0.1143456438D+01  0.7443082909D+00
 Atom C21      Shell    63 SP   1    bf  176 -   179          1.652534643981          5.655790274821         -6.181827820432
      0.1687144782D+00  0.1000000000D+01  0.1000000000D+01
 Atom C21      Shell    64 D   1     bf  180 -   185          1.652534643981          5.655790274821         -6.181827820432
      0.8000000000D+00  0.1000000000D+01
 Atom H22      Shell    65 S   3     bf  186 -   186          0.704562222159          5.649166841417         -8.020544670299
      0.1873113696D+02  0.3349460434D-01
      0.2825394365D+01  0.2347269535D+00
      0.6401216923D+00  0.8137573261D+00
 Atom H22      Shell    66 S   1     bf  187 -   187          0.704562222159          5.649166841417         -8.020544670299
      0.1612777588D+00  0.1000000000D+01
 Atom H23      Shell    67 S   3     bf  188 -   188          3.604779285719          6.242061631493         -6.549872374956
      0.1873113696D+02  0.3349460434D-01
      0.2825394365D+01  0.2347269535D+00
      0.6401216923D+00  0.8137573261D+00
 Atom H23      Shell    68 S   1     bf  189 -   189          3.604779285719          6.242061631493         -6.549872374956
      0.1612777588D+00  0.1000000000D+01
 Atom C24      Shell    69 S   6     bf  190 -   190         -5.653492764685          6.606376717008         -0.550033306944
      0.3047524880D+04  0.1834737132D-02
      0.4573695180D+03  0.1403732281D-01
      0.1039486850D+03  0.6884262226D-01
      0.2921015530D+02  0.2321844432D+00
      0.9286662960D+01  0.4679413484D+00
      0.3163926960D+01  0.3623119853D+00
 Atom C24      Shell    70 SP   3    bf  191 -   194         -5.653492764685          6.606376717008         -0.550033306944
      0.7868272350D+01 -0.1193324198D+00  0.6899906659D-01
      0.1881288540D+01 -0.1608541517D+00  0.3164239610D+00
      0.5442492580D+00  0.1143456438D+01  0.7443082909D+00
 Atom C24      Shell    71 SP   1    bf  195 -   198         -5.653492764685          6.606376717008         -0.550033306944
      0.1687144782D+00  0.1000000000D+01  0.1000000000D+01
 Atom C24      Shell    72 D   1     bf  199 -   204         -5.653492764685          6.606376717008         -0.550033306944
      0.8000000000D+00  0.1000000000D+01
 Atom H25      Shell    73 S   3     bf  205 -   205         -7.516799090041          7.033615714323         -1.340975704322
      0.1873113696D+02  0.3349460434D-01
      0.2825394365D+01  0.2347269535D+00
      0.6401216923D+00  0.8137573261D+00
 Atom H25      Shell    74 S   1     bf  206 -   206         -7.516799090041          7.033615714323         -1.340975704322
      0.1612777588D+00  0.1000000000D+01
 Atom H26      Shell    75 S   3     bf  207 -   207         -5.832860107910          6.820681978381          1.501164179230
      0.1873113696D+02  0.3349460434D-01
      0.2825394365D+01  0.2347269535D+00
      0.6401216923D+00  0.8137573261D+00
 Atom H26      Shell    76 S   1     bf  208 -   208         -5.832860107910          6.820681978381          1.501164179230
      0.1612777588D+00  0.1000000000D+01
 Atom C27      Shell    77 S   6     bf  209 -   209         -0.848746625345         -0.328525505592         -2.578969894861
      0.3047524880D+04  0.1834737132D-02
      0.4573695180D+03  0.1403732281D-01
      0.1039486850D+03  0.6884262226D-01
      0.2921015530D+02  0.2321844432D+00
      0.9286662960D+01  0.4679413484D+00
      0.3163926960D+01  0.3623119853D+00
 Atom C27      Shell    78 SP   3    bf  210 -   213         -0.848746625345         -0.328525505592         -2.578969894861
      0.7868272350D+01 -0.1193324198D+00  0.6899906659D-01
      0.1881288540D+01 -0.1608541517D+00  0.3164239610D+00
      0.5442492580D+00  0.1143456438D+01  0.7443082909D+00
 Atom C27      Shell    79 SP   1    bf  214 -   217         -0.848746625345         -0.328525505592         -2.578969894861
      0.1687144782D+00  0.1000000000D+01  0.1000000000D+01
 Atom C27      Shell    80 D   1     bf  218 -   223         -0.848746625345         -0.328525505592         -2.578969894861
      0.8000000000D+00  0.1000000000D+01
 Atom H28      Shell    81 S   3     bf  224 -   224         -2.764133198211         -1.086467936765         -2.361882597571
      0.1873113696D+02  0.3349460434D-01
      0.2825394365D+01  0.2347269535D+00
      0.6401216923D+00  0.8137573261D+00
 Atom H28      Shell    82 S   1     bf  225 -   225         -2.764133198211         -1.086467936765         -2.361882597571
      0.1612777588D+00  0.1000000000D+01
 Atom C29      Shell    83 S   6     bf  226 -   226         -4.574184244347         11.214953561233         -1.859725124259
      0.3047524880D+04  0.1834737132D-02
      0.4573695180D+03  0.1403732281D-01
      0.1039486850D+03  0.6884262226D-01
      0.2921015530D+02  0.2321844432D+00
      0.9286662960D+01  0.4679413484D+00
      0.3163926960D+01  0.3623119853D+00
 Atom C29      Shell    84 SP   3    bf  227 -   230         -4.574184244347         11.214953561233         -1.859725124259
      0.7868272350D+01 -0.1193324198D+00  0.6899906659D-01
      0.1881288540D+01 -0.1608541517D+00  0.3164239610D+00
      0.5442492580D+00  0.1143456438D+01  0.7443082909D+00
 Atom C29      Shell    85 SP   1    bf  231 -   234         -4.574184244347         11.214953561233         -1.859725124259
      0.1687144782D+00  0.1000000000D+01  0.1000000000D+01
 Atom C29      Shell    86 D   1     bf  235 -   240         -4.574184244347         11.214953561233         -1.859725124259
      0.8000000000D+00  0.1000000000D+01
 Atom H30      Shell    87 S   3     bf  241 -   241         -5.415566455774         11.614944824206          0.000000000000
      0.1873113696D+02  0.3349460434D-01
      0.2825394365D+01  0.2347269535D+00
      0.6401216923D+00  0.8137573261D+00
 Atom H30      Shell    88 S   1     bf  242 -   242         -5.415566455774         11.614944824206          0.000000000000
      0.1612777588D+00  0.1000000000D+01
 Atom C31      Shell    89 S   6     bf  243 -   243         -4.014917168600          6.820042854106         -6.180010451912
      0.3047524880D+04  0.1834737132D-02
      0.4573695180D+03  0.1403732281D-01
      0.1039486850D+03  0.6884262226D-01
      0.2921015530D+02  0.2321844432D+00
      0.9286662960D+01  0.4679413484D+00
      0.3163926960D+01  0.3623119853D+00
 Atom C31      Shell    90 SP   3    bf  244 -   247         -4.014917168600          6.820042854106         -6.180010451912
      0.7868272350D+01 -0.1193324198D+00  0.6899906659D-01
      0.1881288540D+01 -0.1608541517D+00  0.3164239610D+00
      0.5442492580D+00  0.1143456438D+01  0.7443082909D+00
 Atom C31      Shell    91 SP   1    bf  248 -   251         -4.014917168600          6.820042854106         -6.180010451912
      0.1687144782D+00  0.1000000000D+01  0.1000000000D+01
 Atom C31      Shell    92 D   1     bf  252 -   257         -4.014917168600          6.820042854106         -6.180010451912
      0.8000000000D+00  0.1000000000D+01
 Atom H32      Shell    93 S   3     bf  258 -   258         -3.460402338338          5.295191335746         -7.458500490821
      0.1873113696D+02  0.3349460434D-01
      0.2825394365D+01  0.2347269535D+00
      0.6401216923D+00  0.8137573261D+00
 Atom H32      Shell    94 S   1     bf  259 -   259         -3.460402338338          5.295191335746         -7.458500490821
      0.1612777588D+00  0.1000000000D+01
 Atom H33      Shell    95 S   3     bf  260 -   260         -6.009398776779          6.534574210431         -5.725547681982
      0.1873113696D+02  0.3349460434D-01
      0.2825394365D+01  0.2347269535D+00
      0.6401216923D+00  0.8137573261D+00
 Atom H33      Shell    96 S   1     bf  261 -   261         -6.009398776779          6.534574210431         -5.725547681982
      0.1612777588D+00  0.1000000000D+01
 Atom H34      Shell    97 S   3     bf  262 -   262         -3.866939612634          8.584706306805         -7.246562583860
      0.1873113696D+02  0.3349460434D-01
      0.2825394365D+01  0.2347269535D+00
      0.6401216923D+00  0.8137573261D+00
 Atom H34      Shell    98 S   1     bf  263 -   263         -3.866939612634          8.584706306805         -7.246562583860
      0.1612777588D+00  0.1000000000D+01
 Atom C35      Shell    99 S   6     bf  264 -   264          2.426414231673         -1.739004826856         -5.748164680230
      0.3047524880D+04  0.1834737132D-02
      0.4573695180D+03  0.1403732281D-01
      0.1039486850D+03  0.6884262226D-01
      0.2921015530D+02  0.2321844432D+00
      0.9286662960D+01  0.4679413484D+00
      0.3163926960D+01  0.3623119853D+00
 Atom C35      Shell   100 SP   3    bf  265 -   268          2.426414231673         -1.739004826856         -5.748164680230
      0.7868272350D+01 -0.1193324198D+00  0.6899906659D-01
      0.1881288540D+01 -0.1608541517D+00  0.3164239610D+00
      0.5442492580D+00  0.1143456438D+01  0.7443082909D+00
 Atom C35      Shell   101 SP   1    bf  269 -   272          2.426414231673         -1.739004826856         -5.748164680230
      0.1687144782D+00  0.1000000000D+01  0.1000000000D+01
 Atom C35      Shell   102 D   1     bf  273 -   278          2.426414231673         -1.739004826856         -5.748164680230
      0.8000000000D+00  0.1000000000D+01
 Atom C36      Shell   103 S   6     bf  279 -   279          5.723539677890          1.410600584989         -7.043494767908
      0.3047524880D+04  0.1834737132D-02
      0.4573695180D+03  0.1403732281D-01
      0.1039486850D+03  0.6884262226D-01
      0.2921015530D+02  0.2321844432D+00
      0.9286662960D+01  0.4679413484D+00
      0.3163926960D+01  0.3623119853D+00
 Atom C36      Shell   104 SP   3    bf  280 -   283          5.723539677890          1.410600584989         -7.043494767908
      0.7868272350D+01 -0.1193324198D+00  0.6899906659D-01
      0.1881288540D+01 -0.1608541517D+00  0.3164239610D+00
      0.5442492580D+00  0.1143456438D+01  0.7443082909D+00
 Atom C36      Shell   105 SP   1    bf  284 -   287          5.723539677890          1.410600584989         -7.043494767908
      0.1687144782D+00  0.1000000000D+01  0.1000000000D+01
 Atom C36      Shell   106 D   1     bf  288 -   293          5.723539677890          1.410600584989         -7.043494767908
      0.8000000000D+00  0.1000000000D+01
 Atom H37      Shell   107 S   3     bf  294 -   294          6.472943230353          1.684816665433         -5.126242260561
      0.1873113696D+02  0.3349460434D-01
      0.2825394365D+01  0.2347269535D+00
      0.6401216923D+00  0.8137573261D+00
 Atom H37      Shell   108 S   1     bf  295 -   295          6.472943230353          1.684816665433         -5.126242260561
      0.1612777588D+00  0.1000000000D+01
 Atom H38      Shell   109 S   3     bf  296 -   296          6.046589588629          3.186313833305         -8.056437618241
      0.1873113696D+02  0.3349460434D-01
      0.2825394365D+01  0.2347269535D+00
      0.6401216923D+00  0.8137573261D+00
 Atom H38      Shell   110 S   1     bf  297 -   297          6.046589588629          3.186313833305         -8.056437618241
      0.1612777588D+00  0.1000000000D+01
 Atom C39      Shell   111 S   6     bf  298 -   298          0.783686378151         -2.248173221915         -3.881116716029
      0.3047524880D+04  0.1834737132D-02
      0.4573695180D+03  0.1403732281D-01
      0.1039486850D+03  0.6884262226D-01
      0.2921015530D+02  0.2321844432D+00
      0.9286662960D+01  0.4679413484D+00
      0.3163926960D+01  0.3623119853D+00
 Atom C39      Shell   112 SP   3    bf  299 -   302          0.783686378151         -2.248173221915         -3.881116716029
      0.7868272350D+01 -0.1193324198D+00  0.6899906659D-01
      0.1881288540D+01 -0.1608541517D+00  0.3164239610D+00
      0.5442492580D+00  0.1143456438D+01  0.7443082909D+00
 Atom C39      Shell   113 SP   1    bf  303 -   306          0.783686378151         -2.248173221915         -3.881116716029
      0.1687144782D+00  0.1000000000D+01  0.1000000000D+01
 Atom C39      Shell   114 D   1     bf  307 -   312          0.783686378151         -2.248173221915         -3.881116716029
      0.8000000000D+00  0.1000000000D+01
 Atom H40      Shell   115 S   3     bf  313 -   313          0.634360937226         -4.175708749603         -3.172372964575
[...]
 1520 Fit       0.000287
 1521 Fit      -0.001228
 1522 Fit       0.001643
 1523 Fit      -0.000526
 1524 Fit      -0.000512
 1525 Fit      -0.001259
 1526 Fit      -0.001307
 1527 Fit      -0.001509
 1528 Fit      -0.002219
 1529 Fit      -0.000220
 1530 Fit       0.000854
 1531 Fit       0.000813
 1532 Fit      -0.002215
 1533 Fit       0.000093
 1534 Fit       0.001725
 1535 Fit       0.002395
 1536 Fit      -0.000898
 1537 Fit       0.001203
 1538 Fit       0.002280
 1539 Fit      -0.001091
 1540 Fit       0.000661
 1541 Fit      -0.001989
 1542 Fit      -0.002988
 1543 Fit      -0.003431
 1544 Fit      -0.003308
 1545 Fit      -0.002061
 1546 Fit      -0.002195
 1547 Fit      -0.002802
 1548 Fit      -0.002307
 1549 Fit      -0.002074
 1550 Fit      -0.000817
 1551 Fit      -0.000176
 1552 Fit      -0.001350
 1553 Fit      -0.001033
 1554 Fit       0.000197
 1555 Fit       0.000395
 1556 Fit       0.002487
 1557 Fit       0.001846
 1558 Fit       0.003583
 1559 Fit       0.003586
 1560 Fit       0.003281
 1561 Fit       0.003307
 1562 Fit       0.004792
 1563 Fit       0.000391
 1564 Fit       0.001515
 1565 Fit       0.001987
 1566 Fit       0.000625
 1567 Fit      -0.001426
 1568 Fit      -0.002149
 1569 Fit      -0.000430
 1570 Fit       0.001201
 1571 Fit       0.002081
 1572 Fit      -0.002238
 1573 Fit      -0.000231
 1574 Fit      -0.000526
 1575 Fit       0.000085
 1576 Fit      -0.001578
 1577 Fit      -0.001322
 1578 Fit      -0.001507
 1579 Fit      -0.003058
 1580 Fit      -0.000066
 1581 Fit       0.000387
 1582 Fit      -0.000347
 1583 Fit      -0.001596
 1584 Fit      -0.002777
 1585 Fit       0.000230
 1586 Fit      -0.001709
 1587 Fit      -0.002440
 1588 Fit      -0.002999
 1589 Fit      -0.001233
 1590 Fit      -0.001640
 1591 Fit      -0.020263
 1592 Fit      -0.010740
 1593 Fit      -0.015235
 1594 Fit      -0.021931
 1595 Fit      -0.024518
 1596 Fit      -0.023271
 1597 Fit      -0.016605
 1598 Fit      -0.009011
 1599 Fit      -0.016218
 1600 Fit      -0.023824
 1601 Fit      -0.023036
 1602 Fit      -0.019208
 1603 Fit      -0.011750
 1604 Fit      -0.018364
 1605 Fit      -0.018337
 1606 Fit      -0.015832
 1607 Fit      -0.010430
 1608 Fit       0.001256
 1609 Fit       0.009985
 1610 Fit       0.008460
 1611 Fit       0.001158
 1612 Fit      -0.002050
 1613 Fit       0.006412
 1614 Fit       0.015066
 1615 Fit       0.014941
 1616 Fit       0.010907
 1617 Fit       0.005499
 1618 Fit       0.011653
 1619 Fit       0.012178
 1620 Fit      -0.015118
 1621 Fit      -0.017616
 1622 Fit      -0.019331
 1623 Fit      -0.022275
 1624 Fit      -0.021777
 1625 Fit      -0.021180
 1626 Fit      -0.014438
 1627 Fit      -0.019041
 1628 Fit      -0.022774
 1629 Fit      -0.024423
 1630 Fit      -0.024121
 1631 Fit      -0.020350
 1632 Fit      -0.015486
 1633 Fit      -0.005734
 1634 Fit      -0.011828
 1635 Fit      -0.016286
 1636 Fit      -0.019375
 1637 Fit      -0.021329
 1638 Fit      -0.021910
 1639 Fit      -0.014481
 1640 Fit      -0.010643
 1641 Fit      -0.003622
 1642 Fit      -0.008635
 1643 Fit      -0.012418
 1644 Fit      -0.014667
 1645 Fit      -0.003399
 1646 Fit      -0.000624
 1647 Fit      -0.002043
 1648 Fit       0.009241
 1649 Fit       0.003921
 1650 Fit      -0.001125
 1651 Fit       0.003930
 1652 Fit       0.006574
 1653 Fit       0.016916
 1654 Fit       0.012369
 1655 Fit       0.008266
 1656 Fit       0.005033
 1657 Fit       0.014034
 1658 Fit       0.017731
 1659 Fit       0.023411
 1660 Fit       0.023496
 1661 Fit       0.019462
 1662 Fit       0.015384
 1663 Fit       0.020225
 1664 Fit      -0.012357
 1665 Fit      -0.008494
 1666 Fit      -0.003657
 1667 Fit      -0.000345
 1668 Fit       0.000550
 1669 Fit       0.004743
 1670 Fit       0.004473
 1671 Fit       0.006232
 1672 Fit       0.006326
 1673 Fit       0.006244
 1674 Fit       0.012807
 1675 Fit       0.008517
 1676 Fit      -0.002707
 1677 Fit       0.001153
 1678 Fit       0.004911
 1679 Fit       0.006111
 1680 Fit       0.005172
 1681 Fit       0.003658
 1682 Fit       0.003414
 1683 Fit       0.003327
 1684 Fit       0.004410
 1685 Fit       0.004636
 1686 Fit       0.004924
 1687 Fit       0.005360
 1688 Fit      -0.005575
 1689 Fit      -0.003894
 1690 Fit      -0.004358
 1691 Fit      -0.004602
 1692 Fit      -0.010019
 1693 Fit      -0.017596
 1694 Fit      -0.006832
 1695 Fit      -0.010034
 1696 Fit      -0.018154
 1697 Fit      -0.006259
 1698 Fit      -0.007801
 1699 Fit      -0.013870
 1700 Fit      -0.005870
 1701 Fit      -0.006413
 1702 Fit      -0.009883
 1703 Fit      -0.001939
 1704 Fit      -0.002255
 1705 Fit      -0.002367
 1706 Fit       0.000802
 1707 Fit       0.000432
 1708 Fit       0.000643
 1709 Fit       0.002220
 1710 Fit       0.002535
 1711 Fit       0.003958
 1712 Fit       0.003729
 1713 Fit       0.004641
 1714 Fit       0.005291
 1715 Fit       0.005316
 1716 Fit       0.005080
 1717 Fit       0.007315
 1718 Fit       0.006264
 1719 Fit       0.006583
 1720 Fit       0.006873
 1721 Fit       0.005360
 1722 Fit       0.006484
 1723 Fit       0.004916
 1724 Fit       0.007652
 1725 Fit       0.005892
 1726 Fit       0.004485
 1727 Fit       0.008025
 1728 Fit       0.005830
 1729 Fit       0.007102
 1730 Fit      -0.002755
 1731 Fit      -0.003460
 1732 Fit      -0.004279
 1733 Fit      -0.005413
 1734 Fit      -0.004270
 1735 Fit      -0.002691
 1736 Fit      -0.003587
 1737 Fit      -0.000548
 1738 Fit      -0.000696
 1739 Fit      -0.001831
 1740 Fit       0.001564
 1741 Fit       0.000511
 1742 Fit       0.003053
 1743 Fit      -0.001695
 1744 Fit      -0.002176
 1745 Fit       0.000081
 1746 Fit      -0.000517
 1747 Fit      -0.001893
 1748 Fit      -0.003522
 1749 Fit      -0.004606
 1750 Fit      -0.002885
 1751 Fit       0.000787
 1752 Fit      -0.001050
 1753 Fit      -0.002283
 1754 Fit      -0.003402
 1755 Fit      -0.004772
 1756 Fit      -0.008450
 1757 Fit      -0.006250
 1758 Fit      -0.006717
 1759 Fit      -0.009367
 1760 Fit      -0.000948
 1761 Fit      -0.000904
 1762 Fit      -0.000865
 1763 Fit       0.001972
 1764 Fit       0.001814
 1765 Fit       0.003682
 1766 Fit       0.002577
 1767 Fit       0.000026
 1768 Fit      -0.000614
 1769 Fit      -0.000631
 1770 Fit      -0.001470
 1771 Fit      -0.000138
 1772 Fit      -0.001049
 1773 Fit      -0.001934
 1774 Fit       0.002757
 1775 Fit       0.001180
 1776 Fit      -0.000425
 1777 Fit       0.000181
 1778 Fit       0.004633
 1779 Fit       0.000676
 1780 Fit       0.002263
 1781 Fit       0.004665
 1782 Fit       0.004678
 1783 Fit       0.002114
 1784 Fit       0.005171
 1785 Fit       0.004288
 1786 Fit       0.002999
 1787 Fit       0.002226
 1788 Fit       0.002427
 1789 Fit       0.002494
 1790 Fit      -0.000010
 1791 Fit       0.001065
 1792 Fit       0.001369
 1793 Fit       0.005038
 1794 Fit       0.004879
 1795 Fit       0.004192
 1796 Fit       0.000039
 1797 Fit       0.003982
 1798 Fit       0.003888
 1799 Fit       0.002739
 1800 Fit       0.000897
 1801 Fit       0.002429
 1802 Fit      -0.000468
 1803 Fit       0.006199
 1804 Fit       0.006147
 1805 Fit       0.015895
 1806 Fit       0.010143
 1807 Fit       0.010377
 1808 Fit       0.012767
 1809 Fit       0.007551
 1810 Fit       0.007503
 1811 Fit       0.007811
 1812 Fit       0.006297
 1813 Fit       0.006273
 1814 Fit       0.006364
 1815 Fit       0.006978
 1816 Fit       0.006533
 1817 Fit       0.007448
 1818 Fit       0.007302
 1819 Fit       0.008153
 1820 Fit       0.008166
 1821 Fit       0.009069
 1822 Fit       0.009636
 1823 Fit       0.009413
 1824 Fit       0.001776
 1825 Fit       0.003244
 1826 Fit       0.001128
 1827 Fit       0.001194
 1828 Fit      -0.000645
 1829 Fit       0.000106
 1830 Fit      -0.000390
 1831 Fit      -0.000950
 1832 Fit      -0.006820
 1833 Fit      -0.003799
 1834 Fit      -0.004700
 1835 Fit      -0.001172
 1836 Fit       0.000745
 1837 Fit       0.001167
 1838 Fit       0.000792
 1839 Fit       0.000996
 1840 Fit       0.002048
 1841 Fit       0.003242
 1842 Fit       0.003882
 1843 Fit       0.002524
 1844 Fit       0.004061
 1845 Fit       0.004045
 1846 Fit       0.005749
 1847 Fit       0.005606
 1848 Fit       0.004954
 1849 Fit       0.005169
 1850 Fit       0.008839
 1851 Fit       0.005948
 1852 Fit       0.005461
 1853 Fit       0.006884
 1854 Fit       0.009992
 1855 Fit       0.009694
 1856 Fit       0.009298
 1857 Fit       0.008681
 1858 Fit       0.007868
 1859 Fit       0.006765
 1860 Fit       0.008358
 1861 Fit       0.007941
 1862 Fit       0.006881
 1863 Fit       0.006956
 1864 Fit       0.007849
 1865 Fit       0.008898
 1866 Fit       0.014006
 1867 Fit       0.020300
 1868 Fit       0.012216
 1869 Fit       0.010077
 1870 Fit       0.013682
 1871 Fit       0.009218
 1872 Fit       0.002072
 1873 Fit       0.006954
 1874 Fit       0.005933
 1875 Fit       0.004374
 1876 Fit       0.005819
 1877 Fit       0.005976
 1878 Fit       0.005774
 1879 Fit       0.005281
 1880 Fit       0.005158
 1881 Fit       0.001533
 1882 Fit       0.003006
 1883 Fit       0.005201
 1884 Fit       0.001343
 1885 Fit       0.000798
 1886 Fit       0.002039
 1887 Fit      -0.002460
 1888 Fit      -0.006830
 1889 Fit       0.003905
 1890 Fit       0.001520
 1891 Fit      -0.003461
 1892 Fit      -0.013579
 1893 Fit       0.002880
 1894 Fit       0.000961
 1895 Fit      -0.004911
 1896 Fit       0.003525
 1897 Fit       0.004543
 1898 Fit       0.005326
 1899 Fit       0.005700
 1900 Fit       0.008732
 1901 Fit       0.009335
 1902 Fit       0.011685
 1903 Fit       0.014697
 1904 Fit       0.022860
 1905 Fit       0.019522
 1906 Fit       0.004664
 1907 Fit       0.005680
 1908 Fit       0.007482
 1909 Fit       0.007634
 1910 Fit       0.006525
 1911 Fit       0.006607
 1912 Fit       0.008143
 1913 Fit       0.009784
 1914 Fit       0.011797
 1915 Fit       0.010374
 1916 Fit       0.009584
 1917 Fit       0.010947
 1918 Fit       0.018084
 1919 Fit       0.016192
 1920 Fit       0.012814
 1921 Fit       0.003995
 1922 Fit       0.000909
 1923 Fit       0.004580
 1924 Fit      -0.006361
 1925 Fit       0.000107
 1926 Fit       0.003821
 1927 Fit       0.005683
 1928 Fit      -0.007938
 1929 Fit       0.000544
 1930 Fit       0.003897
 1931 Fit       0.005677
 1932 Fit      -0.006469
 1933 Fit       0.001842
 1934 Fit       0.004437
 1935 Fit       0.006108
 1936 Fit      -0.002399
 1937 Fit       0.004084
 1938 Fit       0.000379
 1939 Fit      -0.000598
 1940 Fit      -0.001174
 1941 Fit       0.002666
 1942 Fit       0.000875
 1943 Fit       0.002872
 1944 Fit       0.001854
 1945 Fit       0.004937
 1946 Fit       0.000539
 1947 Fit       0.001247
 1948 Fit       0.001784
 1949 Fit       0.001819
 1950 Fit       0.000034
 1951 Fit       0.000654
 1952 Fit       0.001188
 1953 Fit       0.001372
 1954 Fit      -0.000426
 1955 Fit       0.000104
 1956 Fit      -0.000076
 1957 Fit      -0.001313
 1958 Fit       0.005911
 1959 Fit       0.002919
 1960 Fit       0.008196
 1961 Fit       0.012679
 1962 Fit       0.006922
 1963 Fit       0.002335
 1964 Fit       0.000240
 1965 Fit      -0.001018
 1966 Fit       0.004467
 1967 Fit      -0.003872
 1968 Fit      -0.007519
 1969 Fit      -0.005877
 1970 Fit      -0.006759
 1971 Fit       0.001169
 1972 Fit      -0.001784
 1973 Fit      -0.002179
 1974 Fit      -0.002033
 1975 Fit      -0.002040
 1976 Fit      -0.002147
 1977 Fit      -0.001700
 1978 Fit      -0.002117
 1979 Fit      -0.002341
 1980 Fit      -0.002003
 1981 Fit      -0.002214
 1982 Fit      -0.001792
 1983 Fit      -0.001420
 1984 Fit       0.003319
 1985 Fit       0.000806
 1986 Fit      -0.000534
 1987 Fit      -0.001472
 1988 Fit       0.002563
 1989 Fit       0.000784
 1990 Fit       0.000163
 1991 Fit       0.002539
 1992 Fit       0.000017
 1993 Fit       0.001355
 1994 Fit       0.000612
 1995 Fit      -0.000769
 1996 Fit       0.001544
 1997 Fit       0.000927
 1998 Fit      -0.000247
 1999 Fit      -0.001740
 2000 Fit       0.000724
 2001 Fit       0.000808
 2002 Fit       0.000378
 2003 Fit      -0.000694
 2004 Fit      -0.000655
 2005 Fit      -0.000911
 2006 Fit      -0.002022
 2007 Fit      -0.001697
 2008 Fit      -0.000088
 2009 Fit      -0.000188
 2010 Fit       0.001587
 2011 Fit      -0.000159
 2012 Fit       0.001651
 2013 Fit       0.003392
 2014 Fit       0.000175
 2015 Fit       0.001872
 2016 Fit       0.001377
 2017 Fit       0.002385
 2018 Fit       0.002603
 2019 Fit       0.000629
 2020 Fit       0.000360
 2021 Fit       0.002036
 2022 Fit       0.002317
 2023 Fit       0.001609
 2024 Fit       0.000473
 2025 Fit       0.001837
 2026 Fit       0.001349
 2027 Fit      -0.001453
 2028 Fit      -0.000209
 2029 Fit       0.000310
 2030 Fit      -0.000862
 2031 Fit       0.000148
 2032 Fit       0.000690
 2033 Fit       0.000882
 2034 Fit      -0.000156
 2035 Fit       0.000981
 2036 Fit       0.000429
 2037 Fit      -0.000656
 2038 Fit       0.001944
 2039 Fit       0.001311
 2040 Fit       0.000405
 2041 Fit      -0.000834
 2042 Fit       0.002070
 2043 Fit       0.001787
 2044 Fit       0.001099
 2045 Fit      -0.000031
 2046 Fit       0.000656
 2047 Fit       0.001738
 2048 Fit       0.000212
 2049 Fit       0.000264
 2050 Fit       0.000364
 2051 Fit       0.000536
 2052 Fit       0.000406
 2053 Fit      -0.000321
 2054 Fit       0.000008
 2055 Fit       0.000461
 2056 Fit       0.000401
 2057 Fit       0.000075
 2058 Fit      -0.000371
 2059 Fit       0.000203
 2060 Fit      -0.000040
 2061 Fit      -0.000519
 2062 Fit      -0.001157
 2063 Fit      -0.000910
 2064 Fit      -0.001483
 2065 Fit      -0.001920
 2066 Fit      -0.001584
 2067 Fit      -0.001570
 2068 Fit      -0.002003
 2069 Fit      -0.002051
 2070 Fit      -0.001528
 2071 Fit      -0.001514
 2072 Fit      -0.000777
 2073 Fit      -0.001012
 2074 Fit       0.000615
 2075 Fit      -0.000247
 2076 Fit      -0.001313
 2077 Fit       0.001262
 2078 Fit       0.002039
 2079 Fit       0.001044
 2080 Fit      -0.000094
 2081 Fit       0.002608
 2082 Fit       0.002807
 2083 Fit       0.001782
 2084 Fit       0.001260
 2085 Fit       0.001841
 2086 Fit       0.001162
 2087 Fit       0.000235
 2088 Fit       0.001485
 2089 Fit       0.001191
 2090 Fit       0.000428
 2091 Fit      -0.000587
 2092 Fit       0.000304
 2093 Fit       0.000247
 2094 Fit      -0.000275
 2095 Fit      -0.001134
 2096 Fit      -0.000031
 2097 Fit      -0.001193
 2098 Fit      -0.001251
 2099 Fit      -0.000632
 2100 Fit       0.000164
 2101 Fit       0.000255
 2102 Fit      -0.000690
 2103 Fit       0.000620
 2104 Fit       0.001353
 2105 Fit       0.001530
 2106 Fit      -0.000190
 2107 Fit       0.001142
 2108 Fit       0.001905
 2109 Fit       0.002302
 2110 Fit      -0.000677
 2111 Fit       0.000768
 2112 Fit       0.001601
 2113 Fit       0.000434
 2114 Fit      -0.001504
 2115 Fit      -0.002273
 2116 Fit      -0.001261
 2117 Fit      -0.002620
 2118 Fit      -0.003012
 2119 Fit      -0.002405
 2120 Fit      -0.002474
 2121 Fit      -0.001969
 2122 Fit      -0.001518
 2123 Fit      -0.001591
 2124 Fit      -0.000931
 2125 Fit       0.000853
 2126 Fit      -0.001006
 2127 Fit      -0.000712
 2128 Fit       0.001018
 2129 Fit       0.000195
 2130 Fit       0.001519
 2131 Fit       0.001942
 2132 Fit       0.001645
 2133 Fit       0.002664
 2134 Fit       0.004394
 2135 Fit       0.003512
 2136 Fit       0.002752
 2137 Fit       0.000115
 2138 Fit       0.000935
 2139 Fit       0.001336
 2140 Fit       0.000412
 2141 Fit      -0.001042
 2142 Fit      -0.001614
 2143 Fit      -0.000481
 2144 Fit       0.000980
 2145 Fit       0.001698
 2146 Fit       0.002206
 2147 Fit      -0.001668
 2148 Fit      -0.000149
 2149 Fit       0.000184
 2150 Fit       0.000806
 2151 Fit      -0.001930
 2152 Fit      -0.000678
 2153 Fit      -0.001109
 2154 Fit      -0.001029
 2155 Fit      -0.001475
 2156 Fit      -0.001801
 2157 Fit      -0.000400
 2158 Fit      -0.001110
 2159 Fit      -0.002054
 2160 Fit      -0.002729
 2161 Fit       0.000292
 2162 Fit      -0.001386
 2163 Fit      -0.002740
 2164 Fit      -0.002804
 2165 Fit      -0.001518
 2166 Fit      -0.003277
 2167 Fit      -0.002586
 -----------------------------------------------------------------
 Leave Link  602 at Thu May 18 13:38:23 2017, MaxMem=   33554432 cpu:      20.3
 (Enter /scratch/michal/g09/l9999.exe)

 Test job not archived.
 1\1\GINC-RZEPICHA\SP\RHF\6-31G(d)\C27H46O2\MICHAL\18-May-2017\0\\#P HF
 /6-31G* SCF(Conver=6) NoSymm Test Pop=mk IOp(6/33=2) GFInput GFPrint\\
 MEP - Input generated by R.E.D.-III.x MOLECULE\\0,1\O,0,0.,0.,0.\H,0,0
 .96652544,0.,0.\O,0,4.36450526,-2.77595786,-4.28353548\H,0,4.09062478,
 -2.88015903,-5.2056537\C,0,-1.23778148,3.65701721,-2.00438553\C,0,-1.1
 4676291,2.27169843,-1.3012631\H,0,-0.45755098,2.41339676,-0.45732076\C
 ,0,-0.53449921,1.1517065,-2.15077279\H,0,-1.19115123,0.94675068,-3.008
 42243\C,0,0.86663543,1.56644982,-2.66981466\H,0,1.51837938,1.6022853,-
 1.78093337\C,0,-1.9049476,4.47355707,-0.84300857\H,0,-1.12723981,4.525
 11976,-0.06861736\C,0,0.2020458,4.05700734,-2.37980836\H,0,0.7880398,4
 .18470827,-1.45896471\H,0,0.22742962,5.01931357,-2.90479541\C,0,1.4942
 5744,0.48597288,-3.61894175\C,0,-2.54053064,2.06011349,-0.68533988\H,0
 ,-2.50582622,1.38232752,0.1722028\H,0,-3.22986467,1.61951501,-1.417034
 29\C,0,0.87448367,2.99291531,-3.27128239\H,0,0.37283827,2.98941034,-4.
 24428944\H,0,1.90756704,3.30315675,-3.46604318\C,0,-2.99169952,3.49594
 399,-0.29106509\H,0,-3.97771876,3.72202913,-0.70961378\H,0,-3.08661663
 ,3.60934945,0.79438187\C,0,-0.44913737,-0.17384821,-1.36473209\H,0,-1.
 46271629,-0.57493407,-1.24985444\C,0,-2.42055405,5.93469782,-0.9841241
 5\H,0,-2.86579434,6.14636408,0.\C,0,-2.12460266,3.60901124,-3.27032068
 \H,0,-1.83116605,2.80209457,-3.94686847\H,0,-3.18003687,3.45794774,-3.
 02982934\H,0,-2.04629631,4.54283092,-3.83471576\C,0,1.28400311,-0.9202
 4172,-3.04179774\C,0,3.02876675,0.74645768,-3.7272569\H,0,3.42533403,0
 .89156658,-2.71269057\H,0,3.1997174,1.68612466,-4.26328317\C,0,0.41470
 897,-1.18968203,-2.05379851\H,0,0.33568935,-2.2096899,-1.67874747\C,0,
 0.8591742,0.53133727,-5.03556669\H,0,1.1347514,1.44779526,-5.5658428\H
 ,0,1.18976866,-0.30840204,-5.65185648\H,0,-0.23252235,0.4813462,-4.982
 25131\C,0,2.10801898,-2.04048915,-3.64970467\H,0,1.95078835,-2.9702051
 6,-3.09418541\H,0,1.77443233,-2.23016412,-4.68245105\C,0,3.831982,-0.3
 7546943,-4.40282828\H,0,3.54232129,-0.47364526,-5.4594718\H,0,4.900090
 33,-0.13048915,-4.39223214\C,0,-1.31061277,6.991653,-1.20537691\H,0,-0
 .84051018,6.81658833,-2.18158921\H,0,-1.80236046,7.97195754,-1.2872802
 \C,0,3.60824034,-1.71311364,-3.69802674\H,0,3.99072898,-1.64661901,-2.
 67200915\C,0,-3.54822566,6.18089667,-2.00710346\H,0,-3.17422816,6.2080
 926,-3.03482567\H,0,-4.01742008,7.15136609,-1.8089052\H,0,-4.33630614,
 5.42387262,-1.9580661\C,0,-0.20737474,7.10614789,-0.13528339\H,0,0.348
 74848,6.16447522,-0.06585434\H,0,0.51388453,7.85404012,-0.48866208\C,0
 ,-0.72253969,7.51333905,1.25529945\H,0,-1.38331509,6.72682108,1.643345
 63\H,0,-1.35011821,8.41050838,1.14805508\C,0,0.35475558,7.80098281,2.3
 2825963\H,0,-0.195686,8.05053896,3.24745931\C,0,1.22870206,9.01862029,
 1.98415388\H,0,1.86207796,8.83030493,1.10964887\H,0,1.89303398,9.26868
 664,2.81926225\H,0,0.61554541,9.90181425,1.76947631\C,0,1.22140211,6.5
 6990388,2.64146818\H,0,1.85217367,6.29290508,1.78883811\H,0,1.8870165,
 6.76720269,3.48956377\H,0,0.6037623,5.7009542,2.89724114\\Version=EM64
 L-G09RevC.01\HF=-1198.9191167\RMSD=5.133e-07\Dipole=-0.0020067,0.41953
 9,-0.8864112\Quadrupole=-6.2892797,-3.0875046,9.3767842,5.9215951,0.02
 55354,-0.342721\PG=C01 [X(C27H46O2)]\\@


 WHEN ALL ELSE FAILS, LOOK AT THE SCHRODINGER EQUATION.
     -- RUSSELL T. PACK, APRIL 1978
 Job cpu time:  0 days  0 hours 41 minutes 15.6 seconds.
 File lengths (MBytes):  RWF=    151 Int=      0 D2E=      0 Chk=     11 Scr=      1
 Normal termination of Gaussian 09 at Thu May 18 13:38:23 2017.
