 Entering Gaussian System, Link 0=/scratch/michal/g09//g09
 Input=JOB2-gau_m1-16-2.com
 Output=JOB2-gau_m1-16-2.log
 Initial command:
 /scratch/michal/g09/l1.exe /scratch/michal/gauss_scratch/Gau-30113.inp -scrdir=/scratch/michal/gauss_scratch/
 Entering Link 1 = /scratch/michal/g09/l1.exe PID=     30115.
  
 Copyright (c) 1988,1990,1992,1993,1995,1998,2003,2009,2011,
            Gaussian, Inc.  All Rights Reserved.
  
 This is part of the Gaussian(R) 09 program.  It is based on
 the Gaussian(R) 03 system (copyright 2003, Gaussian, Inc.),
 the Gaussian(R) 98 system (copyright 1998, Gaussian, Inc.),
 the Gaussian(R) 94 system (copyright 1995, Gaussian, Inc.),
 the Gaussian 92(TM) system (copyright 1992, Gaussian, Inc.),
 the Gaussian 90(TM) system (copyright 1990, Gaussian, Inc.),
 the Gaussian 88(TM) system (copyright 1988, Gaussian, Inc.),
 the Gaussian 86(TM) system (copyright 1986, Carnegie Mellon
 University), and the Gaussian 82(TM) system (copyright 1983,
 Carnegie Mellon University). Gaussian is a federally registered
 trademark of Gaussian, Inc.
  
 This software contains proprietary and confidential information,
 including trade secrets, belonging to Gaussian, Inc.
  
 This software is provided under written license and may be
 used, copied, transmitted, or stored only in accord with that
 written license.
  
 The following legend is applicable only to US Government
 contracts under FAR:
  
                    RESTRICTED RIGHTS LEGEND
  
 Use, reproduction and disclosure by the US Government is
 subject to restrictions as set forth in subparagraphs (a)
 and (c) of the Commercial Computer Software - Restricted
 Rights clause in FAR 52.227-19.
  
 Gaussian, Inc.
 340 Quinnipiac St., Bldg. 40, Wallingford CT 06492
  
  
 ---------------------------------------------------------------
 Warning -- This program may not be used in any manner that
 competes with the business of Gaussian, Inc. or will provide
 assistance to any competitor of Gaussian, Inc.  The licensee
 of this program is prohibited from giving any competitor of
 Gaussian, Inc. access to this program.  By using this program,
 the user acknowledges that Gaussian, Inc. is engaged in the
 business of creating and licensing software in the field of
 computational chemistry and represents and warrants to the
 licensee that it is not a competitor of Gaussian, Inc. and that
 it will not use this program in any manner prohibited above.
 ---------------------------------------------------------------
  

 Cite this work as:
 Gaussian 09, Revision C.01,
 M. J. Frisch, G. W. Trucks, H. B. Schlegel, G. E. Scuseria, 
 M. A. Robb, J. R. Cheeseman, G. Scalmani, V. Barone, B. Mennucci, 
 G. A. Petersson, H. Nakatsuji, M. Caricato, X. Li, H. P. Hratchian, 
 A. F. Izmaylov, J. Bloino, G. Zheng, J. L. Sonnenberg, M. Hada, 
 M. Ehara, K. Toyota, R. Fukuda, J. Hasegawa, M. Ishida, T. Nakajima, 
 Y. Honda, O. Kitao, H. Nakai, T. Vreven, J. A. Montgomery, Jr., 
 J. E. Peralta, F. Ogliaro, M. Bearpark, J. J. Heyd, E. Brothers, 
 K. N. Kudin, V. N. Staroverov, T. Keith, R. Kobayashi, J. Normand, 
 K. Raghavachari, A. Rendell, J. C. Burant, S. S. Iyengar, J. Tomasi, 
 M. Cossi, N. Rega, J. M. Millam, M. Klene, J. E. Knox, J. B. Cross, 
 V. Bakken, C. Adamo, J. Jaramillo, R. Gomperts, R. E. Stratmann, 
 O. Yazyev, A. J. Austin, R. Cammi, C. Pomelli, J. W. Ochterski, 
 R. L. Martin, K. Morokuma, V. G. Zakrzewski, G. A. Voth, 
 P. Salvador, J. J. Dannenberg, S. Dapprich, A. D. Daniels, 
 O. Farkas, J. B. Foresman, J. V. Ortiz, J. Cioslowski, 
 and D. J. Fox, Gaussian, Inc., Wallingford CT, 2010.
 
 ******************************************
 Gaussian 09:  EM64L-G09RevC.01 23-Sep-2011
                18-May-2017 
 ******************************************
 %Mem=256MB
 %NProc=48
 Will use up to   48 processors via shared memory.
 ----------------------------------------------------------------------
 #P HF/6-31G* SCF(Conver=6) NoSymm Test Pop=mk IOp(6/33=2) GFInput GFPr
 int
 ----------------------------------------------------------------------
 1/38=1/1;
 2/12=2,15=1,17=6,18=5,40=1/2;
 3/5=1,6=6,7=1,11=9,16=1,24=110,25=1,30=1/1,2,3;
 4//1;
 5/5=2,6=6,38=5/2;
 6/7=2,8=2,9=2,10=2,15=8,20=1,28=1,33=2/1,2;
 99/5=1,9=1/99;
 Leave Link    1 at Thu May 18 13:44:03 2017, MaxMem=   33554432 cpu:       6.2
 (Enter /scratch/michal/g09/l101.exe)
 ----------------------------------------------
 MEP - Input generated by R.E.D.-III.x MOLECULE
 ----------------------------------------------
 Charge =  0 Multiplicity = 1
 Symbolic Z-Matrix:
 O                     6.72981   0.82043   0. 
 H                     7.24077   0.        0. 
 O                     11.39838  -1.41213   4.2787 
 H                     11.34198  -1.12569   5.20116 
 C                     2.97314  -0.06754   2.00454 
 C                     4.19588   0.59053   1.30231 
 H                     4.44069  -0.06743   0.45704 
 C                     5.47059   0.66374   2.15126 
 H                     5.29724   1.32919   3.0091 
 C                     5.86088  -0.74478   2.66957 
 H                     6.17451  -1.31628   1.7801 
 C                     1.92746   0.06716   0.84301 
 H                     2.29746  -0.6165    0.06664 
 C                     3.3969   -1.50064   2.37923 
 H                     3.59991  -2.06491   1.45834 
 H                     2.59396  -2.03241   2.90351 
 C                     7.11064  -0.70568   3.61748 
 C                     3.63649   1.88578   0.68875 
 H                     4.22869   2.216    -0.16928 
 H                     3.64646   2.70308   1.42128 
 C                     4.65519  -1.50695   3.27137 
 H                     4.39208  -1.07944   4.24425 
 H                     4.93932  -2.54747   3.4664 
 C                     2.17889   1.50892   0.29614 
 H                     1.46539   2.22335   0.71938 
 H                     2.02992   1.53362  -0.78887 
 C                     6.63973   1.29349   1.36473 
 H                     6.44277   2.36559   1.24981 
 C                     0.41556  -0.27266   0.98244 
 H                     0.        0.        0. 
 C                     2.54365   0.70891   3.27131 
 H                     3.38377   0.88901   3.94709 
 H                     2.11071   1.68347   3.03172 
 H                     1.79472   0.14626   3.83634 
 C                     8.19144   0.21842   3.04083 
 C                     7.70311  -2.14525   3.72273 
 H                     7.78951  -2.55656   2.70734 
 H                     6.9972   -2.78917   4.25806 
 C                     7.95913   1.09906   2.05346 
 H                     8.78217   1.7068    1.67856 
 C                     6.7365   -0.19347   5.03511 
 H                     6.10822  -0.91515   5.56566 
 H                     7.62418  -0.02653   5.65021 
 H                     6.19748   0.75728   4.98339 
 C                     9.57832   0.11241   3.64823 
 H                     10.28316   0.7396    3.09367 
 H                     9.56257   0.49396   4.68166 
 C                     9.08065  -2.23336   4.39728 
 H                     9.01103  -1.93798   5.45459 
 H                     9.43882  -3.26898   4.38426 
 C                     0.10859  -1.77603   1.18971 
 H                     0.5147   -2.09574   2.15791 
 H                    -0.98088  -1.87809   1.28647 
 C                     10.09608  -1.3333    3.69378 
 H                     10.24214  -1.69094   2.66705 
 C                    -0.39116   0.54479   2.01181 
 H                    -0.21484   0.20589   3.03695 
 H                    -1.46291   0.42876   1.81388 
 H                    -0.16809   1.61486   1.97032 
 C                     0.59919  -2.75644   0.10633 
 H                     1.69516  -2.75731   0.07491 
 H                     0.31864  -3.77071   0.41841 
 C                     0.08131  -2.50111  -1.32233 
 H                     0.52158  -3.25869  -1.98756 
 H                     0.46381  -1.53552  -1.67967 
 C                    -1.44951  -2.51988  -1.51776 
 H                    -1.88982  -1.75217  -0.86504 
 C                    -2.07355  -3.87267  -1.13951 
 H                    -1.64816  -4.68099  -1.7486 
 H                    -3.15637  -3.86498  -1.30856 
 H                    -1.90669  -4.12541  -0.08745 
 C                    -1.80416  -2.14928  -2.96687 
 H                    -1.39526  -2.88629  -3.67002 
 H                    -2.88955  -2.11555  -3.11531 
 H                    -1.39754  -1.16868  -3.23982 
 
 NAtoms=     75 NQM=        0 NQMF=       0 NMMI=     75 NMMIF=      0
                NMic=       0 NMicF=      0.
                    Isotopes and Nuclear Properties:
 (Nuclear quadrupole moments (NQMom) in fm**2, nuclear magnetic moments (NMagM)
  in nuclear magnetons)

  Atom         1           2           3           4           5           6           7           8           9          10
 IAtWgt=          16           1          16           1          12          12           1          12           1          12
 AtmWgt=  15.9949146   1.0078250  15.9949146   1.0078250  12.0000000  12.0000000   1.0078250  12.0000000   1.0078250  12.0000000
 NucSpn=           0           1           0           1           0           0           1           0           1           0
 AtZEff=   0.0000000   0.0000000   0.0000000   0.0000000   0.0000000   0.0000000   0.0000000   0.0000000   0.0000000   0.0000000
 NQMom=    0.0000000   0.0000000   0.0000000   0.0000000   0.0000000   0.0000000   0.0000000   0.0000000   0.0000000   0.0000000
 NMagM=    0.0000000   2.7928460   0.0000000   2.7928460   0.0000000   0.0000000   2.7928460   0.0000000   2.7928460   0.0000000

  Atom        11          12          13          14          15          16          17          18          19          20
 IAtWgt=           1          12           1          12           1           1          12          12           1           1
 AtmWgt=   1.0078250  12.0000000   1.0078250  12.0000000   1.0078250   1.0078250  12.0000000  12.0000000   1.0078250   1.0078250
 NucSpn=           1           0           1           0           1           1           0           0           1           1
 AtZEff=   0.0000000   0.0000000   0.0000000   0.0000000   0.0000000   0.0000000   0.0000000   0.0000000   0.0000000   0.0000000
 NQMom=    0.0000000   0.0000000   0.0000000   0.0000000   0.0000000   0.0000000   0.0000000   0.0000000   0.0000000   0.0000000
 NMagM=    2.7928460   0.0000000   2.7928460   0.0000000   2.7928460   2.7928460   0.0000000   0.0000000   2.7928460   2.7928460

  Atom        21          22          23          24          25          26          27          28          29          30
 IAtWgt=          12           1           1          12           1           1          12           1          12           1
 AtmWgt=  12.0000000   1.0078250   1.0078250  12.0000000   1.0078250   1.0078250  12.0000000   1.0078250  12.0000000   1.0078250
 NucSpn=           0           1           1           0           1           1           0           1           0           1
 AtZEff=   0.0000000   0.0000000   0.0000000   0.0000000   0.0000000   0.0000000   0.0000000   0.0000000   0.0000000   0.0000000
 NQMom=    0.0000000   0.0000000   0.0000000   0.0000000   0.0000000   0.0000000   0.0000000   0.0000000   0.0000000   0.0000000
 NMagM=    0.0000000   2.7928460   2.7928460   0.0000000   2.7928460   2.7928460   0.0000000   2.7928460   0.0000000   2.7928460

  Atom        31          32          33          34          35          36          37          38          39          40
 IAtWgt=          12           1           1           1          12          12           1           1          12           1
 AtmWgt=  12.0000000   1.0078250   1.0078250   1.0078250  12.0000000  12.0000000   1.0078250   1.0078250  12.0000000   1.0078250
 NucSpn=           0           1           1           1           0           0           1           1           0           1
 AtZEff=   0.0000000   0.0000000   0.0000000   0.0000000   0.0000000   0.0000000   0.0000000   0.0000000   0.0000000   0.0000000
 NQMom=    0.0000000   0.0000000   0.0000000   0.0000000   0.0000000   0.0000000   0.0000000   0.0000000   0.0000000   0.0000000
 NMagM=    0.0000000   2.7928460   2.7928460   2.7928460   0.0000000   0.0000000   2.7928460   2.7928460   0.0000000   2.7928460

  Atom        41          42          43          44          45          46          47          48          49          50
 IAtWgt=          12           1           1           1          12           1           1          12           1           1
 AtmWgt=  12.0000000   1.0078250   1.0078250   1.0078250  12.0000000   1.0078250   1.0078250  12.0000000   1.0078250   1.0078250
 NucSpn=           0           1           1           1           0           1           1           0           1           1
 AtZEff=   0.0000000   0.0000000   0.0000000   0.0000000   0.0000000   0.0000000   0.0000000   0.0000000   0.0000000   0.0000000
 NQMom=    0.0000000   0.0000000   0.0000000   0.0000000   0.0000000   0.0000000   0.0000000   0.0000000   0.0000000   0.0000000
 NMagM=    0.0000000   2.7928460   2.7928460   2.7928460   0.0000000   2.7928460   2.7928460   0.0000000   2.7928460   2.7928460

  Atom        51          52          53          54          55          56          57          58          59          60
 IAtWgt=          12           1           1          12           1          12           1           1           1          12
 AtmWgt=  12.0000000   1.0078250   1.0078250  12.0000000   1.0078250  12.0000000   1.0078250   1.0078250   1.0078250  12.0000000
 NucSpn=           0           1           1           0           1           0           1           1           1           0
 AtZEff=   0.0000000   0.0000000   0.0000000   0.0000000   0.0000000   0.0000000   0.0000000   0.0000000   0.0000000   0.0000000
 NQMom=    0.0000000   0.0000000   0.0000000   0.0000000   0.0000000   0.0000000   0.0000000   0.0000000   0.0000000   0.0000000
 NMagM=    0.0000000   2.7928460   2.7928460   0.0000000   2.7928460   0.0000000   2.7928460   2.7928460   2.7928460   0.0000000

  Atom        61          62          63          64          65          66          67          68          69          70
 IAtWgt=           1           1          12           1           1          12           1          12           1           1
 AtmWgt=   1.0078250   1.0078250  12.0000000   1.0078250   1.0078250  12.0000000   1.0078250  12.0000000   1.0078250   1.0078250
 NucSpn=           1           1           0           1           1           0           1           0           1           1
 AtZEff=   0.0000000   0.0000000   0.0000000   0.0000000   0.0000000   0.0000000   0.0000000   0.0000000   0.0000000   0.0000000
 NQMom=    0.0000000   0.0000000   0.0000000   0.0000000   0.0000000   0.0000000   0.0000000   0.0000000   0.0000000   0.0000000
 NMagM=    2.7928460   2.7928460   0.0000000   2.7928460   2.7928460   0.0000000   2.7928460   0.0000000   2.7928460   2.7928460

  Atom        71          72          73          74          75
 IAtWgt=           1          12           1           1           1
 AtmWgt=   1.0078250  12.0000000   1.0078250   1.0078250   1.0078250
 NucSpn=           1           0           1           1           1
 AtZEff=   0.0000000   0.0000000   0.0000000   0.0000000   0.0000000
 NQMom=    0.0000000   0.0000000   0.0000000   0.0000000   0.0000000
 NMagM=    2.7928460   0.0000000   2.7928460   2.7928460   2.7928460
 Leave Link  101 at Thu May 18 13:44:03 2017, MaxMem=   33554432 cpu:       6.9
 (Enter /scratch/michal/g09/l202.exe)
 Symmetry turned off by external request.
 Stoichiometry    C27H46O2
 Framework group  C1[X(C27H46O2)]
 Deg. of freedom   219
 Full point group                 C1      NOp   1
                          Input orientation:                          
 ---------------------------------------------------------------------
 Center     Atomic      Atomic             Coordinates (Angstroms)
 Number     Number       Type             X           Y           Z
 ---------------------------------------------------------------------
      1          8           0        6.729807    0.820431    0.000000
      2          1           0        7.240772    0.000000    0.000000
      3          8           0       11.398383   -1.412133    4.278699
      4          1           0       11.341978   -1.125690    5.201161
      5          6           0        2.973136   -0.067538    2.004541
      6          6           0        4.195880    0.590527    1.302309
      7          1           0        4.440687   -0.067431    0.457041
      8          6           0        5.470593    0.663744    2.151263
      9          1           0        5.297243    1.329189    3.009096
     10          6           0        5.860885   -0.744778    2.669574
     11          1           0        6.174510   -1.316276    1.780099
     12          6           0        1.927460    0.067164    0.843007
     13          1           0        2.297461   -0.616496    0.066642
     14          6           0        3.396895   -1.500641    2.379226
     15          1           0        3.599915   -2.064912    1.458343
     16          1           0        2.593960   -2.032411    2.903505
     17          6           0        7.110642   -0.705681    3.617479
     18          6           0        3.636488    1.885784    0.688751
     19          1           0        4.228687    2.215999   -0.169281
     20          1           0        3.646462    2.703079    1.421279
     21          6           0        4.655191   -1.506952    3.271374
     22          1           0        4.392076   -1.079444    4.244252
     23          1           0        4.939325   -2.547471    3.466402
     24          6           0        2.178894    1.508917    0.296138
     25          1           0        1.465394    2.223355    0.719384
     26          1           0        2.029925    1.533617   -0.788870
     27          6           0        6.639727    1.293485    1.364729
     28          1           0        6.442774    2.365588    1.249808
     29          6           0        0.415556   -0.272658    0.982444
     30          1           0        0.000000    0.000000    0.000000
     31          6           0        2.543651    0.708906    3.271314
     32          1           0        3.383771    0.889007    3.947090
     33          1           0        2.110709    1.683466    3.031725
     34          1           0        1.794716    0.146259    3.836342
     35          6           0        8.191443    0.218418    3.040825
     36          6           0        7.703107   -2.145249    3.722729
     37          1           0        7.789512   -2.556556    2.707341
     38          1           0        6.997197   -2.789172    4.258059
     39          6           0        7.959129    1.099058    2.053463
     40          1           0        8.782173    1.706802    1.678563
     41          6           0        6.736503   -0.193470    5.035107
     42          1           0        6.108216   -0.915147    5.565665
     43          1           0        7.624179   -0.026531    5.650206
     44          1           0        6.197485    0.757279    4.983395
     45          6           0        9.578319    0.112411    3.648231
     46          1           0       10.283163    0.739603    3.093673
     47          1           0        9.562570    0.493956    4.681663
     48          6           0        9.080650   -2.233356    4.397280
     49          1           0        9.011028   -1.937979    5.454587
     50          1           0        9.438822   -3.268983    4.384262
     51          6           0        0.108593   -1.776032    1.189705
     52          1           0        0.514699   -2.095744    2.157906
     53          1           0       -0.980884   -1.878095    1.286475
     54          6           0       10.096084   -1.333299    3.693785
     55          1           0       10.242141   -1.690936    2.667049
     56          6           0       -0.391158    0.544787    2.011809
     57          1           0       -0.214838    0.205894    3.036945
     58          1           0       -1.462914    0.428759    1.813876
     59          1           0       -0.168088    1.614859    1.970316
     60          6           0        0.599189   -2.756441    0.106330
     61          1           0        1.695165   -2.757305    0.074914
     62          1           0        0.318639   -3.770712    0.418407
     63          6           0        0.081307   -2.501110   -1.322328
     64          1           0        0.521580   -3.258693   -1.987563
     65          1           0        0.463808   -1.535518   -1.679669
     66          6           0       -1.449507   -2.519879   -1.517761
     67          1           0       -1.889821   -1.752171   -0.865041
     68          6           0       -2.073552   -3.872669   -1.139508
     69          1           0       -1.648160   -4.680986   -1.748599
     70          1           0       -3.156367   -3.864984   -1.308564
     71          1           0       -1.906688   -4.125413   -0.087450
     72          6           0       -1.804155   -2.149279   -2.966869
     73          1           0       -1.395263   -2.886295   -3.670017
     74          1           0       -2.889545   -2.115548   -3.115314
     75          1           0       -1.397541   -1.168682   -3.239820
 ---------------------------------------------------------------------
 Rotational constants (GHZ):      0.3529901      0.0655944      0.0632859
 Leave Link  202 at Thu May 18 13:44:03 2017, MaxMem=   33554432 cpu:       0.2
 (Enter /scratch/michal/g09/l301.exe)
 Standard basis: 6-31G(d) (6D, 7F)
 Ernie: Thresh=  0.10000D-02 Tol=  0.10000D-05 Strict=F.
 AO basis set in the form of general basis input (Overlap normalization):
      1 0
 S   6 1.00       0.000000000000
      0.5484671660D+04  0.1831074430D-02
      0.8252349460D+03  0.1395017220D-01
      0.1880469580D+03  0.6844507810D-01
      0.5296450000D+02  0.2327143360D+00
      0.1689757040D+02  0.4701928980D+00
      0.5799635340D+01  0.3585208530D+00
 SP   3 1.00       0.000000000000
      0.1553961625D+02 -0.1107775495D+00  0.7087426823D-01
      0.3599933586D+01 -0.1480262627D+00  0.3397528391D+00
      0.1013761750D+01  0.1130767015D+01  0.7271585773D+00
 SP   1 1.00       0.000000000000
      0.2700058226D+00  0.1000000000D+01  0.1000000000D+01
 D   1 1.00       0.000000000000
      0.8000000000D+00  0.1000000000D+01
 ****
      2 0
 S   3 1.00       0.000000000000
      0.1873113696D+02  0.3349460434D-01
      0.2825394365D+01  0.2347269535D+00
      0.6401216923D+00  0.8137573261D+00
 S   1 1.00       0.000000000000
      0.1612777588D+00  0.1000000000D+01
 ****
      3 0
 S   6 1.00       0.000000000000
      0.5484671660D+04  0.1831074430D-02
      0.8252349460D+03  0.1395017220D-01
      0.1880469580D+03  0.6844507810D-01
      0.5296450000D+02  0.2327143360D+00
      0.1689757040D+02  0.4701928980D+00
      0.5799635340D+01  0.3585208530D+00
 SP   3 1.00       0.000000000000
      0.1553961625D+02 -0.1107775495D+00  0.7087426823D-01
      0.3599933586D+01 -0.1480262627D+00  0.3397528391D+00
      0.1013761750D+01  0.1130767015D+01  0.7271585773D+00
 SP   1 1.00       0.000000000000
      0.2700058226D+00  0.1000000000D+01  0.1000000000D+01
 D   1 1.00       0.000000000000
      0.8000000000D+00  0.1000000000D+01
 ****
      4 0
 S   3 1.00       0.000000000000
      0.1873113696D+02  0.3349460434D-01
      0.2825394365D+01  0.2347269535D+00
      0.6401216923D+00  0.8137573261D+00
 S   1 1.00       0.000000000000
      0.1612777588D+00  0.1000000000D+01
 ****
      5 0
 S   6 1.00       0.000000000000
      0.3047524880D+04  0.1834737132D-02
      0.4573695180D+03  0.1403732281D-01
      0.1039486850D+03  0.6884262226D-01
      0.2921015530D+02  0.2321844432D+00
      0.9286662960D+01  0.4679413484D+00
      0.3163926960D+01  0.3623119853D+00
 SP   3 1.00       0.000000000000
      0.7868272350D+01 -0.1193324198D+00  0.6899906659D-01
      0.1881288540D+01 -0.1608541517D+00  0.3164239610D+00
      0.5442492580D+00  0.1143456438D+01  0.7443082909D+00
 SP   1 1.00       0.000000000000
      0.1687144782D+00  0.1000000000D+01  0.1000000000D+01
 D   1 1.00       0.000000000000
      0.8000000000D+00  0.1000000000D+01
 ****
      6 0
 S   6 1.00       0.000000000000
      0.3047524880D+04  0.1834737132D-02
      0.4573695180D+03  0.1403732281D-01
      0.1039486850D+03  0.6884262226D-01
      0.2921015530D+02  0.2321844432D+00
      0.9286662960D+01  0.4679413484D+00
      0.3163926960D+01  0.3623119853D+00
 SP   3 1.00       0.000000000000
      0.7868272350D+01 -0.1193324198D+00  0.6899906659D-01
      0.1881288540D+01 -0.1608541517D+00  0.3164239610D+00
      0.5442492580D+00  0.1143456438D+01  0.7443082909D+00
 SP   1 1.00       0.000000000000
      0.1687144782D+00  0.1000000000D+01  0.1000000000D+01
 D   1 1.00       0.000000000000
      0.8000000000D+00  0.1000000000D+01
 ****
      7 0
 S   3 1.00       0.000000000000
      0.1873113696D+02  0.3349460434D-01
      0.2825394365D+01  0.2347269535D+00
      0.6401216923D+00  0.8137573261D+00
 S   1 1.00       0.000000000000
      0.1612777588D+00  0.1000000000D+01
 ****
      8 0
 S   6 1.00       0.000000000000
      0.3047524880D+04  0.1834737132D-02
      0.4573695180D+03  0.1403732281D-01
      0.1039486850D+03  0.6884262226D-01
      0.2921015530D+02  0.2321844432D+00
      0.9286662960D+01  0.4679413484D+00
      0.3163926960D+01  0.3623119853D+00
 SP   3 1.00       0.000000000000
      0.7868272350D+01 -0.1193324198D+00  0.6899906659D-01
      0.1881288540D+01 -0.1608541517D+00  0.3164239610D+00
      0.5442492580D+00  0.1143456438D+01  0.7443082909D+00
 SP   1 1.00       0.000000000000
      0.1687144782D+00  0.1000000000D+01  0.1000000000D+01
 D   1 1.00       0.000000000000
      0.8000000000D+00  0.1000000000D+01
 ****
      9 0
 S   3 1.00       0.000000000000
      0.1873113696D+02  0.3349460434D-01
      0.2825394365D+01  0.2347269535D+00
      0.6401216923D+00  0.8137573261D+00
 S   1 1.00       0.000000000000
      0.1612777588D+00  0.1000000000D+01
 ****
     10 0
 S   6 1.00       0.000000000000
      0.3047524880D+04  0.1834737132D-02
      0.4573695180D+03  0.1403732281D-01
      0.1039486850D+03  0.6884262226D-01
      0.2921015530D+02  0.2321844432D+00
      0.9286662960D+01  0.4679413484D+00
      0.3163926960D+01  0.3623119853D+00
 SP   3 1.00       0.000000000000
      0.7868272350D+01 -0.1193324198D+00  0.6899906659D-01
      0.1881288540D+01 -0.1608541517D+00  0.3164239610D+00
      0.5442492580D+00  0.1143456438D+01  0.7443082909D+00
 SP   1 1.00       0.000000000000
      0.1687144782D+00  0.1000000000D+01  0.1000000000D+01
 D   1 1.00       0.000000000000
      0.8000000000D+00  0.1000000000D+01
 ****
     11 0
 S   3 1.00       0.000000000000
      0.1873113696D+02  0.3349460434D-01
      0.2825394365D+01  0.2347269535D+00
      0.6401216923D+00  0.8137573261D+00
 S   1 1.00       0.000000000000
      0.1612777588D+00  0.1000000000D+01
 ****
     12 0
 S   6 1.00       0.000000000000
      0.3047524880D+04  0.1834737132D-02
      0.4573695180D+03  0.1403732281D-01
      0.1039486850D+03  0.6884262226D-01
      0.2921015530D+02  0.2321844432D+00
      0.9286662960D+01  0.4679413484D+00
      0.3163926960D+01  0.3623119853D+00
 SP   3 1.00       0.000000000000
      0.7868272350D+01 -0.1193324198D+00  0.6899906659D-01
      0.1881288540D+01 -0.1608541517D+00  0.3164239610D+00
      0.5442492580D+00  0.1143456438D+01  0.7443082909D+00
 SP   1 1.00       0.000000000000
      0.1687144782D+00  0.1000000000D+01  0.1000000000D+01
 D   1 1.00       0.000000000000
      0.8000000000D+00  0.1000000000D+01
 ****
     13 0
 S   3 1.00       0.000000000000
      0.1873113696D+02  0.3349460434D-01
      0.2825394365D+01  0.2347269535D+00
      0.6401216923D+00  0.8137573261D+00
 S   1 1.00       0.000000000000
      0.1612777588D+00  0.1000000000D+01
 ****
     14 0
 S   6 1.00       0.000000000000
      0.3047524880D+04  0.1834737132D-02
      0.4573695180D+03  0.1403732281D-01
      0.1039486850D+03  0.6884262226D-01
      0.2921015530D+02  0.2321844432D+00
      0.9286662960D+01  0.4679413484D+00
      0.3163926960D+01  0.3623119853D+00
 SP   3 1.00       0.000000000000
      0.7868272350D+01 -0.1193324198D+00  0.6899906659D-01
      0.1881288540D+01 -0.1608541517D+00  0.3164239610D+00
      0.5442492580D+00  0.1143456438D+01  0.7443082909D+00
 SP   1 1.00       0.000000000000
      0.1687144782D+00  0.1000000000D+01  0.1000000000D+01
 D   1 1.00       0.000000000000
      0.8000000000D+00  0.1000000000D+01
 ****
     15 0
 S   3 1.00       0.000000000000
      0.1873113696D+02  0.3349460434D-01
      0.2825394365D+01  0.2347269535D+00
      0.6401216923D+00  0.8137573261D+00
 S   1 1.00       0.000000000000
      0.1612777588D+00  0.1000000000D+01
 ****
     16 0
 S   3 1.00       0.000000000000
      0.1873113696D+02  0.3349460434D-01
      0.2825394365D+01  0.2347269535D+00
      0.6401216923D+00  0.8137573261D+00
 S   1 1.00       0.000000000000
      0.1612777588D+00  0.1000000000D+01
 ****
     17 0
 S   6 1.00       0.000000000000
      0.3047524880D+04  0.1834737132D-02
      0.4573695180D+03  0.1403732281D-01
      0.1039486850D+03  0.6884262226D-01
      0.2921015530D+02  0.2321844432D+00
      0.9286662960D+01  0.4679413484D+00
      0.3163926960D+01  0.3623119853D+00
 SP   3 1.00       0.000000000000
      0.7868272350D+01 -0.1193324198D+00  0.6899906659D-01
      0.1881288540D+01 -0.1608541517D+00  0.3164239610D+00
      0.5442492580D+00  0.1143456438D+01  0.7443082909D+00
 SP   1 1.00       0.000000000000
      0.1687144782D+00  0.1000000000D+01  0.1000000000D+01
 D   1 1.00       0.000000000000
      0.8000000000D+00  0.1000000000D+01
 ****
     18 0
 S   6 1.00       0.000000000000
      0.3047524880D+04  0.1834737132D-02
      0.4573695180D+03  0.1403732281D-01
      0.1039486850D+03  0.6884262226D-01
      0.2921015530D+02  0.2321844432D+00
      0.9286662960D+01  0.4679413484D+00
      0.3163926960D+01  0.3623119853D+00
 SP   3 1.00       0.000000000000
      0.7868272350D+01 -0.1193324198D+00  0.6899906659D-01
      0.1881288540D+01 -0.1608541517D+00  0.3164239610D+00
      0.5442492580D+00  0.1143456438D+01  0.7443082909D+00
 SP   1 1.00       0.000000000000
      0.1687144782D+00  0.1000000000D+01  0.1000000000D+01
 D   1 1.00       0.000000000000
      0.8000000000D+00  0.1000000000D+01
 ****
     19 0
 S   3 1.00       0.000000000000
      0.1873113696D+02  0.3349460434D-01
      0.2825394365D+01  0.2347269535D+00
      0.6401216923D+00  0.8137573261D+00
 S   1 1.00       0.000000000000
      0.1612777588D+00  0.1000000000D+01
 ****
     20 0
 S   3 1.00       0.000000000000
      0.1873113696D+02  0.3349460434D-01
      0.2825394365D+01  0.2347269535D+00
      0.6401216923D+00  0.8137573261D+00
 S   1 1.00       0.000000000000
      0.1612777588D+00  0.1000000000D+01
 ****
     21 0
 S   6 1.00       0.000000000000
      0.3047524880D+04  0.1834737132D-02
      0.4573695180D+03  0.1403732281D-01
      0.1039486850D+03  0.6884262226D-01
      0.2921015530D+02  0.2321844432D+00
      0.9286662960D+01  0.4679413484D+00
      0.3163926960D+01  0.3623119853D+00
 SP   3 1.00       0.000000000000
      0.7868272350D+01 -0.1193324198D+00  0.6899906659D-01
      0.1881288540D+01 -0.1608541517D+00  0.3164239610D+00
      0.5442492580D+00  0.1143456438D+01  0.7443082909D+00
 SP   1 1.00       0.000000000000
      0.1687144782D+00  0.1000000000D+01  0.1000000000D+01
 D   1 1.00       0.000000000000
      0.8000000000D+00  0.1000000000D+01
 ****
     22 0
 S   3 1.00       0.000000000000
      0.1873113696D+02  0.3349460434D-01
      0.2825394365D+01  0.2347269535D+00
      0.6401216923D+00  0.8137573261D+00
 S   1 1.00       0.000000000000
      0.1612777588D+00  0.1000000000D+01
 ****
     23 0
 S   3 1.00       0.000000000000
      0.1873113696D+02  0.3349460434D-01
      0.2825394365D+01  0.2347269535D+00
      0.6401216923D+00  0.8137573261D+00
 S   1 1.00       0.000000000000
      0.1612777588D+00  0.1000000000D+01
 ****
     24 0
 S   6 1.00       0.000000000000
      0.3047524880D+04  0.1834737132D-02
      0.4573695180D+03  0.1403732281D-01
      0.1039486850D+03  0.6884262226D-01
      0.2921015530D+02  0.2321844432D+00
      0.9286662960D+01  0.4679413484D+00
      0.3163926960D+01  0.3623119853D+00
 SP   3 1.00       0.000000000000
      0.7868272350D+01 -0.1193324198D+00  0.6899906659D-01
      0.1881288540D+01 -0.1608541517D+00  0.3164239610D+00
      0.5442492580D+00  0.1143456438D+01  0.7443082909D+00
 SP   1 1.00       0.000000000000
      0.1687144782D+00  0.1000000000D+01  0.1000000000D+01
 D   1 1.00       0.000000000000
      0.8000000000D+00  0.1000000000D+01
 ****
     25 0
 S   3 1.00       0.000000000000
      0.1873113696D+02  0.3349460434D-01
      0.2825394365D+01  0.2347269535D+00
      0.6401216923D+00  0.8137573261D+00
 S   1 1.00       0.000000000000
      0.1612777588D+00  0.1000000000D+01
 ****
     26 0
 S   3 1.00       0.000000000000
      0.1873113696D+02  0.3349460434D-01
      0.2825394365D+01  0.2347269535D+00
      0.6401216923D+00  0.8137573261D+00
 S   1 1.00       0.000000000000
      0.1612777588D+00  0.1000000000D+01
 ****
     27 0
 S   6 1.00       0.000000000000
      0.3047524880D+04  0.1834737132D-02
      0.4573695180D+03  0.1403732281D-01
      0.1039486850D+03  0.6884262226D-01
      0.2921015530D+02  0.2321844432D+00
      0.9286662960D+01  0.4679413484D+00
      0.3163926960D+01  0.3623119853D+00
 SP   3 1.00       0.000000000000
      0.7868272350D+01 -0.1193324198D+00  0.6899906659D-01
      0.1881288540D+01 -0.1608541517D+00  0.3164239610D+00
      0.5442492580D+00  0.1143456438D+01  0.7443082909D+00
 SP   1 1.00       0.000000000000
      0.1687144782D+00  0.1000000000D+01  0.1000000000D+01
 D   1 1.00       0.000000000000
      0.8000000000D+00  0.1000000000D+01
 ****
     28 0
 S   3 1.00       0.000000000000
      0.1873113696D+02  0.3349460434D-01
      0.2825394365D+01  0.2347269535D+00
      0.6401216923D+00  0.8137573261D+00
 S   1 1.00       0.000000000000
      0.1612777588D+00  0.1000000000D+01
 ****
     29 0
 S   6 1.00       0.000000000000
      0.3047524880D+04  0.1834737132D-02
      0.4573695180D+03  0.1403732281D-01
      0.1039486850D+03  0.6884262226D-01
      0.2921015530D+02  0.2321844432D+00
      0.9286662960D+01  0.4679413484D+00
      0.3163926960D+01  0.3623119853D+00
 SP   3 1.00       0.000000000000
      0.7868272350D+01 -0.1193324198D+00  0.6899906659D-01
      0.1881288540D+01 -0.1608541517D+00  0.3164239610D+00
      0.5442492580D+00  0.1143456438D+01  0.7443082909D+00
 SP   1 1.00       0.000000000000
      0.1687144782D+00  0.1000000000D+01  0.1000000000D+01
 D   1 1.00       0.000000000000
      0.8000000000D+00  0.1000000000D+01
 ****
     30 0
 S   3 1.00       0.000000000000
      0.1873113696D+02  0.3349460434D-01
      0.2825394365D+01  0.2347269535D+00
      0.6401216923D+00  0.8137573261D+00
 S   1 1.00       0.000000000000
      0.1612777588D+00  0.1000000000D+01
 ****
     31 0
 S   6 1.00       0.000000000000
      0.3047524880D+04  0.1834737132D-02
      0.4573695180D+03  0.1403732281D-01
      0.1039486850D+03  0.6884262226D-01
      0.2921015530D+02  0.2321844432D+00
      0.9286662960D+01  0.4679413484D+00
      0.3163926960D+01  0.3623119853D+00
 SP   3 1.00       0.000000000000
      0.7868272350D+01 -0.1193324198D+00  0.6899906659D-01
      0.1881288540D+01 -0.1608541517D+00  0.3164239610D+00
      0.5442492580D+00  0.1143456438D+01  0.7443082909D+00
 SP   1 1.00       0.000000000000
      0.1687144782D+00  0.1000000000D+01  0.1000000000D+01
 D   1 1.00       0.000000000000
      0.8000000000D+00  0.1000000000D+01
 ****
     32 0
 S   3 1.00       0.000000000000
      0.1873113696D+02  0.3349460434D-01
      0.2825394365D+01  0.2347269535D+00
      0.6401216923D+00  0.8137573261D+00
 S   1 1.00       0.000000000000
      0.1612777588D+00  0.1000000000D+01
 ****
     33 0
 S   3 1.00       0.000000000000
      0.1873113696D+02  0.3349460434D-01
      0.2825394365D+01  0.2347269535D+00
      0.6401216923D+00  0.8137573261D+00
 S   1 1.00       0.000000000000
      0.1612777588D+00  0.1000000000D+01
 ****
     34 0
 S   3 1.00       0.000000000000
      0.1873113696D+02  0.3349460434D-01
      0.2825394365D+01  0.2347269535D+00
      0.6401216923D+00  0.8137573261D+00
 S   1 1.00       0.000000000000
      0.1612777588D+00  0.1000000000D+01
 ****
     35 0
 S   6 1.00       0.000000000000
      0.3047524880D+04  0.1834737132D-02
      0.4573695180D+03  0.1403732281D-01
      0.1039486850D+03  0.6884262226D-01
      0.2921015530D+02  0.2321844432D+00
      0.9286662960D+01  0.4679413484D+00
      0.3163926960D+01  0.3623119853D+00
 SP   3 1.00       0.000000000000
      0.7868272350D+01 -0.1193324198D+00  0.6899906659D-01
      0.1881288540D+01 -0.1608541517D+00  0.3164239610D+00
      0.5442492580D+00  0.1143456438D+01  0.7443082909D+00
 SP   1 1.00       0.000000000000
      0.1687144782D+00  0.1000000000D+01  0.1000000000D+01
 D   1 1.00       0.000000000000
      0.8000000000D+00  0.1000000000D+01
 ****
     36 0
 S   6 1.00       0.000000000000
      0.3047524880D+04  0.1834737132D-02
      0.4573695180D+03  0.1403732281D-01
      0.1039486850D+03  0.6884262226D-01
      0.2921015530D+02  0.2321844432D+00
      0.9286662960D+01  0.4679413484D+00
      0.3163926960D+01  0.3623119853D+00
 SP   3 1.00       0.000000000000
      0.7868272350D+01 -0.1193324198D+00  0.6899906659D-01
      0.1881288540D+01 -0.1608541517D+00  0.3164239610D+00
      0.5442492580D+00  0.1143456438D+01  0.7443082909D+00
 SP   1 1.00       0.000000000000
      0.1687144782D+00  0.1000000000D+01  0.1000000000D+01
 D   1 1.00       0.000000000000
      0.8000000000D+00  0.1000000000D+01
 ****
     37 0
 S   3 1.00       0.000000000000
      0.1873113696D+02  0.3349460434D-01
      0.2825394365D+01  0.2347269535D+00
      0.6401216923D+00  0.8137573261D+00
 S   1 1.00       0.000000000000
      0.1612777588D+00  0.1000000000D+01
 ****
     38 0
 S   3 1.00       0.000000000000
      0.1873113696D+02  0.3349460434D-01
      0.2825394365D+01  0.2347269535D+00
      0.6401216923D+00  0.8137573261D+00
 S   1 1.00       0.000000000000
      0.1612777588D+00  0.1000000000D+01
 ****
     39 0
 S   6 1.00       0.000000000000
      0.3047524880D+04  0.1834737132D-02
      0.4573695180D+03  0.1403732281D-01
      0.1039486850D+03  0.6884262226D-01
      0.2921015530D+02  0.2321844432D+00
      0.9286662960D+01  0.4679413484D+00
      0.3163926960D+01  0.3623119853D+00
 SP   3 1.00       0.000000000000
      0.7868272350D+01 -0.1193324198D+00  0.6899906659D-01
      0.1881288540D+01 -0.1608541517D+00  0.3164239610D+00
      0.5442492580D+00  0.1143456438D+01  0.7443082909D+00
 SP   1 1.00       0.000000000000
      0.1687144782D+00  0.1000000000D+01  0.1000000000D+01
 D   1 1.00       0.000000000000
      0.8000000000D+00  0.1000000000D+01
 ****
     40 0
 S   3 1.00       0.000000000000
      0.1873113696D+02  0.3349460434D-01
      0.2825394365D+01  0.2347269535D+00
      0.6401216923D+00  0.8137573261D+00
 S   1 1.00       0.000000000000
      0.1612777588D+00  0.1000000000D+01
 ****
     41 0
 S   6 1.00       0.000000000000
      0.3047524880D+04  0.1834737132D-02
      0.4573695180D+03  0.1403732281D-01
      0.1039486850D+03  0.6884262226D-01
      0.2921015530D+02  0.2321844432D+00
      0.9286662960D+01  0.4679413484D+00
      0.3163926960D+01  0.3623119853D+00
 SP   3 1.00       0.000000000000
      0.7868272350D+01 -0.1193324198D+00  0.6899906659D-01
      0.1881288540D+01 -0.1608541517D+00  0.3164239610D+00
      0.5442492580D+00  0.1143456438D+01  0.7443082909D+00
 SP   1 1.00       0.000000000000
      0.1687144782D+00  0.1000000000D+01  0.1000000000D+01
 D   1 1.00       0.000000000000
      0.8000000000D+00  0.1000000000D+01
 ****
     42 0
 S   3 1.00       0.000000000000
      0.1873113696D+02  0.3349460434D-01
      0.2825394365D+01  0.2347269535D+00
      0.6401216923D+00  0.8137573261D+00
 S   1 1.00       0.000000000000
      0.1612777588D+00  0.1000000000D+01
 ****
     43 0
 S   3 1.00       0.000000000000
      0.1873113696D+02  0.3349460434D-01
      0.2825394365D+01  0.2347269535D+00
      0.6401216923D+00  0.8137573261D+00
 S   1 1.00       0.000000000000
      0.1612777588D+00  0.1000000000D+01
 ****
     44 0
 S   3 1.00       0.000000000000
      0.1873113696D+02  0.3349460434D-01
      0.2825394365D+01  0.2347269535D+00
      0.6401216923D+00  0.8137573261D+00
 S   1 1.00       0.000000000000
      0.1612777588D+00  0.1000000000D+01
 ****
     45 0
 S   6 1.00       0.000000000000
      0.3047524880D+04  0.1834737132D-02
      0.4573695180D+03  0.1403732281D-01
      0.1039486850D+03  0.6884262226D-01
      0.2921015530D+02  0.2321844432D+00
      0.9286662960D+01  0.4679413484D+00
      0.3163926960D+01  0.3623119853D+00
 SP   3 1.00       0.000000000000
      0.7868272350D+01 -0.1193324198D+00  0.6899906659D-01
      0.1881288540D+01 -0.1608541517D+00  0.3164239610D+00
      0.5442492580D+00  0.1143456438D+01  0.7443082909D+00
 SP   1 1.00       0.000000000000
      0.1687144782D+00  0.1000000000D+01  0.1000000000D+01
 D   1 1.00       0.000000000000
      0.8000000000D+00  0.1000000000D+01
 ****
     46 0
 S   3 1.00       0.000000000000
      0.1873113696D+02  0.3349460434D-01
      0.2825394365D+01  0.2347269535D+00
      0.6401216923D+00  0.8137573261D+00
 S   1 1.00       0.000000000000
      0.1612777588D+00  0.1000000000D+01
 ****
     47 0
 S   3 1.00       0.000000000000
      0.1873113696D+02  0.3349460434D-01
      0.2825394365D+01  0.2347269535D+00
      0.6401216923D+00  0.8137573261D+00
 S   1 1.00       0.000000000000
      0.1612777588D+00  0.1000000000D+01
 ****
     48 0
 S   6 1.00       0.000000000000
      0.3047524880D+04  0.1834737132D-02
      0.4573695180D+03  0.1403732281D-01
      0.1039486850D+03  0.6884262226D-01
      0.2921015530D+02  0.2321844432D+00
      0.9286662960D+01  0.4679413484D+00
      0.3163926960D+01  0.3623119853D+00
 SP   3 1.00       0.000000000000
      0.7868272350D+01 -0.1193324198D+00  0.6899906659D-01
      0.1881288540D+01 -0.1608541517D+00  0.3164239610D+00
      0.5442492580D+00  0.1143456438D+01  0.7443082909D+00
 SP   1 1.00       0.000000000000
      0.1687144782D+00  0.1000000000D+01  0.1000000000D+01
 D   1 1.00       0.000000000000
      0.8000000000D+00  0.1000000000D+01
 ****
     49 0
 S   3 1.00       0.000000000000
      0.1873113696D+02  0.3349460434D-01
      0.2825394365D+01  0.2347269535D+00
      0.6401216923D+00  0.8137573261D+00
 S   1 1.00       0.000000000000
      0.1612777588D+00  0.1000000000D+01
 ****
     50 0
 S   3 1.00       0.000000000000
      0.1873113696D+02  0.3349460434D-01
      0.2825394365D+01  0.2347269535D+00
      0.6401216923D+00  0.8137573261D+00
 S   1 1.00       0.000000000000
      0.1612777588D+00  0.1000000000D+01
 ****
     51 0
 S   6 1.00       0.000000000000
      0.3047524880D+04  0.1834737132D-02
      0.4573695180D+03  0.1403732281D-01
      0.1039486850D+03  0.6884262226D-01
      0.2921015530D+02  0.2321844432D+00
      0.9286662960D+01  0.4679413484D+00
      0.3163926960D+01  0.3623119853D+00
 SP   3 1.00       0.000000000000
      0.7868272350D+01 -0.1193324198D+00  0.6899906659D-01
      0.1881288540D+01 -0.1608541517D+00  0.3164239610D+00
      0.5442492580D+00  0.1143456438D+01  0.7443082909D+00
 SP   1 1.00       0.000000000000
      0.1687144782D+00  0.1000000000D+01  0.1000000000D+01
 D   1 1.00       0.000000000000
      0.8000000000D+00  0.1000000000D+01
 ****
     52 0
 S   3 1.00       0.000000000000
      0.1873113696D+02  0.3349460434D-01
      0.2825394365D+01  0.2347269535D+00
      0.6401216923D+00  0.8137573261D+00
 S   1 1.00       0.000000000000
      0.1612777588D+00  0.1000000000D+01
 ****
     53 0
 S   3 1.00       0.000000000000
      0.1873113696D+02  0.3349460434D-01
      0.2825394365D+01  0.2347269535D+00
      0.6401216923D+00  0.8137573261D+00
 S   1 1.00       0.000000000000
      0.1612777588D+00  0.1000000000D+01
 ****
     54 0
 S   6 1.00       0.000000000000
      0.3047524880D+04  0.1834737132D-02
      0.4573695180D+03  0.1403732281D-01
      0.1039486850D+03  0.6884262226D-01
      0.2921015530D+02  0.2321844432D+00
      0.9286662960D+01  0.4679413484D+00
      0.3163926960D+01  0.3623119853D+00
 SP   3 1.00       0.000000000000
      0.7868272350D+01 -0.1193324198D+00  0.6899906659D-01
      0.1881288540D+01 -0.1608541517D+00  0.3164239610D+00
      0.5442492580D+00  0.1143456438D+01  0.7443082909D+00
 SP   1 1.00       0.000000000000
      0.1687144782D+00  0.1000000000D+01  0.1000000000D+01
 D   1 1.00       0.000000000000
      0.8000000000D+00  0.1000000000D+01
 ****
     55 0
 S   3 1.00       0.000000000000
      0.1873113696D+02  0.3349460434D-01
      0.2825394365D+01  0.2347269535D+00
      0.6401216923D+00  0.8137573261D+00
 S   1 1.00       0.000000000000
      0.1612777588D+00  0.1000000000D+01
 ****
     56 0
 S   6 1.00       0.000000000000
      0.3047524880D+04  0.1834737132D-02
      0.4573695180D+03  0.1403732281D-01
      0.1039486850D+03  0.6884262226D-01
      0.2921015530D+02  0.2321844432D+00
      0.9286662960D+01  0.4679413484D+00
      0.3163926960D+01  0.3623119853D+00
 SP   3 1.00       0.000000000000
      0.7868272350D+01 -0.1193324198D+00  0.6899906659D-01
      0.1881288540D+01 -0.1608541517D+00  0.3164239610D+00
      0.5442492580D+00  0.1143456438D+01  0.7443082909D+00
 SP   1 1.00       0.000000000000
      0.1687144782D+00  0.1000000000D+01  0.1000000000D+01
 D   1 1.00       0.000000000000
      0.8000000000D+00  0.1000000000D+01
 ****
     57 0
 S   3 1.00       0.000000000000
      0.1873113696D+02  0.3349460434D-01
      0.2825394365D+01  0.2347269535D+00
      0.6401216923D+00  0.8137573261D+00
 S   1 1.00       0.000000000000
      0.1612777588D+00  0.1000000000D+01
 ****
     58 0
 S   3 1.00       0.000000000000
      0.1873113696D+02  0.3349460434D-01
      0.2825394365D+01  0.2347269535D+00
      0.6401216923D+00  0.8137573261D+00
 S   1 1.00       0.000000000000
      0.1612777588D+00  0.1000000000D+01
 ****
     59 0
 S   3 1.00       0.000000000000
      0.1873113696D+02  0.3349460434D-01
      0.2825394365D+01  0.2347269535D+00
      0.6401216923D+00  0.8137573261D+00
 S   1 1.00       0.000000000000
      0.1612777588D+00  0.1000000000D+01
 ****
     60 0
 S   6 1.00       0.000000000000
      0.3047524880D+04  0.1834737132D-02
      0.4573695180D+03  0.1403732281D-01
      0.1039486850D+03  0.6884262226D-01
      0.2921015530D+02  0.2321844432D+00
      0.9286662960D+01  0.4679413484D+00
      0.3163926960D+01  0.3623119853D+00
 SP   3 1.00       0.000000000000
      0.7868272350D+01 -0.1193324198D+00  0.6899906659D-01
      0.1881288540D+01 -0.1608541517D+00  0.3164239610D+00
      0.5442492580D+00  0.1143456438D+01  0.7443082909D+00
 SP   1 1.00       0.000000000000
      0.1687144782D+00  0.1000000000D+01  0.1000000000D+01
 D   1 1.00       0.000000000000
      0.8000000000D+00  0.1000000000D+01
 ****
     61 0
 S   3 1.00       0.000000000000
      0.1873113696D+02  0.3349460434D-01
      0.2825394365D+01  0.2347269535D+00
      0.6401216923D+00  0.8137573261D+00
 S   1 1.00       0.000000000000
      0.1612777588D+00  0.1000000000D+01
 ****
     62 0
 S   3 1.00       0.000000000000
      0.1873113696D+02  0.3349460434D-01
      0.2825394365D+01  0.2347269535D+00
      0.6401216923D+00  0.8137573261D+00
 S   1 1.00       0.000000000000
      0.1612777588D+00  0.1000000000D+01
 ****
     63 0
 S   6 1.00       0.000000000000
      0.3047524880D+04  0.1834737132D-02
      0.4573695180D+03  0.1403732281D-01
      0.1039486850D+03  0.6884262226D-01
      0.2921015530D+02  0.2321844432D+00
      0.9286662960D+01  0.4679413484D+00
      0.3163926960D+01  0.3623119853D+00
 SP   3 1.00       0.000000000000
      0.7868272350D+01 -0.1193324198D+00  0.6899906659D-01
      0.1881288540D+01 -0.1608541517D+00  0.3164239610D+00
      0.5442492580D+00  0.1143456438D+01  0.7443082909D+00
 SP   1 1.00       0.000000000000
      0.1687144782D+00  0.1000000000D+01  0.1000000000D+01
 D   1 1.00       0.000000000000
      0.8000000000D+00  0.1000000000D+01
 ****
     64 0
 S   3 1.00       0.000000000000
      0.1873113696D+02  0.3349460434D-01
      0.2825394365D+01  0.2347269535D+00
      0.6401216923D+00  0.8137573261D+00
 S   1 1.00       0.000000000000
      0.1612777588D+00  0.1000000000D+01
 ****
     65 0
 S   3 1.00       0.000000000000
      0.1873113696D+02  0.3349460434D-01
      0.2825394365D+01  0.2347269535D+00
      0.6401216923D+00  0.8137573261D+00
 S   1 1.00       0.000000000000
      0.1612777588D+00  0.1000000000D+01
 ****
     66 0
 S   6 1.00       0.000000000000
      0.3047524880D+04  0.1834737132D-02
      0.4573695180D+03  0.1403732281D-01
      0.1039486850D+03  0.6884262226D-01
      0.2921015530D+02  0.2321844432D+00
      0.9286662960D+01  0.4679413484D+00
      0.3163926960D+01  0.3623119853D+00
 SP   3 1.00       0.000000000000
      0.7868272350D+01 -0.1193324198D+00  0.6899906659D-01
      0.1881288540D+01 -0.1608541517D+00  0.3164239610D+00
      0.5442492580D+00  0.1143456438D+01  0.7443082909D+00
 SP   1 1.00       0.000000000000
      0.1687144782D+00  0.1000000000D+01  0.1000000000D+01
 D   1 1.00       0.000000000000
      0.8000000000D+00  0.1000000000D+01
 ****
     67 0
 S   3 1.00       0.000000000000
      0.1873113696D+02  0.3349460434D-01
      0.2825394365D+01  0.2347269535D+00
      0.6401216923D+00  0.8137573261D+00
 S   1 1.00       0.000000000000
      0.1612777588D+00  0.1000000000D+01
 ****
     68 0
 S   6 1.00       0.000000000000
      0.3047524880D+04  0.1834737132D-02
      0.4573695180D+03  0.1403732281D-01
      0.1039486850D+03  0.6884262226D-01
      0.2921015530D+02  0.2321844432D+00
      0.9286662960D+01  0.4679413484D+00
      0.3163926960D+01  0.3623119853D+00
 SP   3 1.00       0.000000000000
      0.7868272350D+01 -0.1193324198D+00  0.6899906659D-01
      0.1881288540D+01 -0.1608541517D+00  0.3164239610D+00
      0.5442492580D+00  0.1143456438D+01  0.7443082909D+00
 SP   1 1.00       0.000000000000
      0.1687144782D+00  0.1000000000D+01  0.1000000000D+01
 D   1 1.00       0.000000000000
      0.8000000000D+00  0.1000000000D+01
 ****
     69 0
 S   3 1.00       0.000000000000
      0.1873113696D+02  0.3349460434D-01
      0.2825394365D+01  0.2347269535D+00
      0.6401216923D+00  0.8137573261D+00
 S   1 1.00       0.000000000000
      0.1612777588D+00  0.1000000000D+01
 ****
     70 0
 S   3 1.00       0.000000000000
      0.1873113696D+02  0.3349460434D-01
      0.2825394365D+01  0.2347269535D+00
      0.6401216923D+00  0.8137573261D+00
 S   1 1.00       0.000000000000
      0.1612777588D+00  0.1000000000D+01
 ****
     71 0
 S   3 1.00       0.000000000000
      0.1873113696D+02  0.3349460434D-01
      0.2825394365D+01  0.2347269535D+00
      0.6401216923D+00  0.8137573261D+00
 S   1 1.00       0.000000000000
      0.1612777588D+00  0.1000000000D+01
 ****
     72 0
 S   6 1.00       0.000000000000
      0.3047524880D+04  0.1834737132D-02
      0.4573695180D+03  0.1403732281D-01
      0.1039486850D+03  0.6884262226D-01
      0.2921015530D+02  0.2321844432D+00
      0.9286662960D+01  0.4679413484D+00
      0.3163926960D+01  0.3623119853D+00
 SP   3 1.00       0.000000000000
      0.7868272350D+01 -0.1193324198D+00  0.6899906659D-01
      0.1881288540D+01 -0.1608541517D+00  0.3164239610D+00
      0.5442492580D+00  0.1143456438D+01  0.7443082909D+00
 SP   1 1.00       0.000000000000
      0.1687144782D+00  0.1000000000D+01  0.1000000000D+01
 D   1 1.00       0.000000000000
      0.8000000000D+00  0.1000000000D+01
 ****
     73 0
 S   3 1.00       0.000000000000
      0.1873113696D+02  0.3349460434D-01
      0.2825394365D+01  0.2347269535D+00
      0.6401216923D+00  0.8137573261D+00
 S   1 1.00       0.000000000000
      0.1612777588D+00  0.1000000000D+01
 ****
     74 0
 S   3 1.00       0.000000000000
      0.1873113696D+02  0.3349460434D-01
      0.2825394365D+01  0.2347269535D+00
      0.6401216923D+00  0.8137573261D+00
 S   1 1.00       0.000000000000
      0.1612777588D+00  0.1000000000D+01
 ****
     75 0
 S   3 1.00       0.000000000000
      0.1873113696D+02  0.3349460434D-01
      0.2825394365D+01  0.2347269535D+00
      0.6401216923D+00  0.8137573261D+00
 S   1 1.00       0.000000000000
      0.1612777588D+00  0.1000000000D+01
 ****

 AO basis set (Overlap normalization):
 Atom O1       Shell     1 S   6     bf    1 -     1         12.717492308355          1.550390033210          0.000000000000
      0.5484671660D+04  0.1831074430D-02
      0.8252349460D+03  0.1395017220D-01
      0.1880469580D+03  0.6844507810D-01
      0.5296450000D+02  0.2327143360D+00
      0.1689757040D+02  0.4701928980D+00
      0.5799635340D+01  0.3585208530D+00
 Atom O1       Shell     2 SP   3    bf    2 -     5         12.717492308355          1.550390033210          0.000000000000
      0.1553961625D+02 -0.1107775495D+00  0.7087426823D-01
      0.3599933586D+01 -0.1480262627D+00  0.3397528391D+00
      0.1013761750D+01  0.1130767015D+01  0.7271585773D+00
 Atom O1       Shell     3 SP   1    bf    6 -     9         12.717492308355          1.550390033210          0.000000000000
      0.2700058226D+00  0.1000000000D+01  0.1000000000D+01
 Atom O1       Shell     4 D   1     bf   10 -    15         12.717492308355          1.550390033210          0.000000000000
      0.8000000000D+00  0.1000000000D+01
 Atom H2       Shell     5 S   3     bf   16 -    16         13.683075447057          0.000000000000          0.000000000000
      0.1873113696D+02  0.3349460434D-01
      0.2825394365D+01  0.2347269535D+00
      0.6401216923D+00  0.8137573261D+00
 Atom H2       Shell     6 S   1     bf   17 -    17         13.683075447057          0.000000000000          0.000000000000
      0.1612777588D+00  0.1000000000D+01
 Atom O3       Shell     7 S   6     bf   18 -    18         21.539821944281         -2.668545219025          8.085568672545
      0.5484671660D+04  0.1831074430D-02
      0.8252349460D+03  0.1395017220D-01
      0.1880469580D+03  0.6844507810D-01
      0.5296450000D+02  0.2327143360D+00
      0.1689757040D+02  0.4701928980D+00
      0.5799635340D+01  0.3585208530D+00
 Atom O3       Shell     8 SP   3    bf   19 -    22         21.539821944281         -2.668545219025          8.085568672545
      0.1553961625D+02 -0.1107775495D+00  0.7087426823D-01
      0.3599933586D+01 -0.1480262627D+00  0.3397528391D+00
      0.1013761750D+01  0.1130767015D+01  0.7271585773D+00
 Atom O3       Shell     9 SP   1    bf   23 -    26         21.539821944281         -2.668545219025          8.085568672545
      0.2700058226D+00  0.1000000000D+01  0.1000000000D+01
 Atom O3       Shell    10 D   1     bf   27 -    32         21.539821944281         -2.668545219025          8.085568672545
      0.8000000000D+00  0.1000000000D+01
 Atom H4       Shell    11 S   3     bf   33 -    33         21.433232338598         -2.127246320754          9.828769447306
      0.1873113696D+02  0.3349460434D-01
      0.2825394365D+01  0.2347269535D+00
      0.6401216923D+00  0.8137573261D+00
 Atom H4       Shell    12 S   1     bf   34 -    34         21.433232338598         -2.127246320754          9.828769447306
      0.1612777588D+00  0.1000000000D+01
 Atom C5       Shell    13 S   6     bf   35 -    35          5.618412814720         -0.127628512535          3.788033077504
      0.3047524880D+04  0.1834737132D-02
      0.4573695180D+03  0.1403732281D-01
      0.1039486850D+03  0.6884262226D-01
      0.2921015530D+02  0.2321844432D+00
      0.9286662960D+01  0.4679413484D+00
      0.3163926960D+01  0.3623119853D+00
 Atom C5       Shell    14 SP   3    bf   36 -    39          5.618412814720         -0.127628512535          3.788033077504
      0.7868272350D+01 -0.1193324198D+00  0.6899906659D-01
      0.1881288540D+01 -0.1608541517D+00  0.3164239610D+00
      0.5442492580D+00  0.1143456438D+01  0.7443082909D+00
 Atom C5       Shell    15 SP   1    bf   40 -    43          5.618412814720         -0.127628512535          3.788033077504
      0.1687144782D+00  0.1000000000D+01  0.1000000000D+01
 Atom C5       Shell    16 D   1     bf   44 -    49          5.618412814720         -0.127628512535          3.788033077504
      0.8000000000D+00  0.1000000000D+01
 Atom C6       Shell    17 S   6     bf   50 -    50          7.929064917932          1.115934587533          2.461006500015
      0.3047524880D+04  0.1834737132D-02
      0.4573695180D+03  0.1403732281D-01
      0.1039486850D+03  0.6884262226D-01
      0.2921015530D+02  0.2321844432D+00
      0.9286662960D+01  0.4679413484D+00
      0.3163926960D+01  0.3623119853D+00
 Atom C6       Shell    18 SP   3    bf   51 -    54          7.929064917932          1.115934587533          2.461006500015
      0.7868272350D+01 -0.1193324198D+00  0.6899906659D-01
      0.1881288540D+01 -0.1608541517D+00  0.3164239610D+00
      0.5442492580D+00  0.1143456438D+01  0.7443082909D+00
 Atom C6       Shell    19 SP   1    bf   55 -    58          7.929064917932          1.115934587533          2.461006500015
      0.1687144782D+00  0.1000000000D+01  0.1000000000D+01
 Atom C6       Shell    20 D   1     bf   59 -    64          7.929064917932          1.115934587533          2.461006500015
      0.8000000000D+00  0.1000000000D+01
 Atom H7       Shell    21 S   3     bf   65 -    65          8.391683103345         -0.127426160661          0.863682623856
      0.1873113696D+02  0.3349460434D-01
      0.2825394365D+01  0.2347269535D+00
      0.6401216923D+00  0.8137573261D+00
 Atom H7       Shell    22 S   1     bf   66 -    66          8.391683103345         -0.127426160661          0.863682623856
      0.1612777588D+00  0.1000000000D+01
 Atom C8       Shell    23 S   6     bf   67 -    67         10.337923404858          1.254294722497          4.065297305098
      0.3047524880D+04  0.1834737132D-02
      0.4573695180D+03  0.1403732281D-01
      0.1039486850D+03  0.6884262226D-01
      0.2921015530D+02  0.2321844432D+00
      0.9286662960D+01  0.4679413484D+00
      0.3163926960D+01  0.3623119853D+00
 Atom C8       Shell    24 SP   3    bf   68 -    71         10.337923404858          1.254294722497          4.065297305098
      0.7868272350D+01 -0.1193324198D+00  0.6899906659D-01
      0.1881288540D+01 -0.1608541517D+00  0.3164239610D+00
      0.5442492580D+00  0.1143456438D+01  0.7443082909D+00
 Atom C8       Shell    25 SP   1    bf   72 -    75         10.337923404858          1.254294722497          4.065297305098
      0.1687144782D+00  0.1000000000D+01  0.1000000000D+01
 Atom C8       Shell    26 D   1     bf   76 -    81         10.337923404858          1.254294722497          4.065297305098
      0.8000000000D+00  0.1000000000D+01
 Atom H9       Shell    27 S   3     bf   82 -    82         10.010339228544          2.511802697515          5.686367952274
      0.1873113696D+02  0.3349460434D-01
      0.2825394365D+01  0.2347269535D+00
      0.6401216923D+00  0.8137573261D+00
 Atom H9       Shell    28 S   1     bf   83 -    83         10.010339228544          2.511802697515          5.686367952274
      0.1612777588D+00  0.1000000000D+01
 Atom C10      Shell    29 S   6     bf   84 -    84         11.075467073906         -1.407426714360          5.044763543602
      0.3047524880D+04  0.1834737132D-02
      0.4573695180D+03  0.1403732281D-01
      0.1039486850D+03  0.6884262226D-01
      0.2921015530D+02  0.2321844432D+00
      0.9286662960D+01  0.4679413484D+00
      0.3163926960D+01  0.3623119853D+00
 Atom C10      Shell    30 SP   3    bf   85 -    88         11.075467073906         -1.407426714360          5.044763543602
      0.7868272350D+01 -0.1193324198D+00  0.6899906659D-01
      0.1881288540D+01 -0.1608541517D+00  0.3164239610D+00
      0.5442492580D+00  0.1143456438D+01  0.7443082909D+00
 Atom C10      Shell    31 SP   1    bf   89 -    92         11.075467073906         -1.407426714360          5.044763543602
      0.1687144782D+00  0.1000000000D+01  0.1000000000D+01
 Atom C10      Shell    32 D   1     bf   93 -    98         11.075467073906         -1.407426714360          5.044763543602
      0.8000000000D+00  0.1000000000D+01
 Atom H11      Shell    33 S   3     bf   99 -    99         11.668133585065         -2.487400739550          3.363900468698
      0.1873113696D+02  0.3349460434D-01
      0.2825394365D+01  0.2347269535D+00
      0.6401216923D+00  0.8137573261D+00
 Atom H11      Shell    34 S   1     bf  100 -   100         11.668133585065         -2.487400739550          3.363900468698
      0.1612777588D+00  0.1000000000D+01
 Atom C12      Shell    35 S   6     bf  101 -   101          3.642372080112          0.126922416366          1.593052717153
      0.3047524880D+04  0.1834737132D-02
      0.4573695180D+03  0.1403732281D-01
      0.1039486850D+03  0.6884262226D-01
      0.2921015530D+02  0.2321844432D+00
      0.9286662960D+01  0.4679413484D+00
      0.3163926960D+01  0.3623119853D+00
 Atom C12      Shell    36 SP   3    bf  102 -   105          3.642372080112          0.126922416366          1.593052717153
      0.7868272350D+01 -0.1193324198D+00  0.6899906659D-01
      0.1881288540D+01 -0.1608541517D+00  0.3164239610D+00
      0.5442492580D+00  0.1143456438D+01  0.7443082909D+00
 Atom C12      Shell    37 SP   1    bf  106 -   109          3.642372080112          0.126922416366          1.593052717153
      0.1687144782D+00  0.1000000000D+01  0.1000000000D+01
 Atom C12      Shell    38 D   1     bf  110 -   115          3.642372080112          0.126922416366          1.593052717153
      0.8000000000D+00  0.1000000000D+01
 Atom H13      Shell    39 S   3     bf  116 -   116          4.341571769732         -1.165009527985          0.125935733660
      0.1873113696D+02  0.3349460434D-01
      0.2825394365D+01  0.2347269535D+00
      0.6401216923D+00  0.8137573261D+00
 Atom H13      Shell    40 S   1     bf  117 -   117          4.341571769732         -1.165009527985          0.125935733660
      0.1612777588D+00  0.1000000000D+01
 Atom C14      Shell    41 S   6     bf  118 -   118          6.419201289963         -2.835800192526          4.496085000220
      0.3047524880D+04  0.1834737132D-02
      0.4573695180D+03  0.1403732281D-01
      0.1039486850D+03  0.6884262226D-01
      0.2921015530D+02  0.2321844432D+00
      0.9286662960D+01  0.4679413484D+00
      0.3163926960D+01  0.3623119853D+00
 Atom C14      Shell    42 SP   3    bf  119 -   122          6.419201289963         -2.835800192526          4.496085000220
      0.7868272350D+01 -0.1193324198D+00  0.6899906659D-01
      0.1881288540D+01 -0.1608541517D+00  0.3164239610D+00
      0.5442492580D+00  0.1143456438D+01  0.7443082909D+00
 Atom C14      Shell    43 SP   1    bf  123 -   126          6.419201289963         -2.835800192526          4.496085000220
      0.1687144782D+00  0.1000000000D+01  0.1000000000D+01
 Atom C14      Shell    44 D   1     bf  127 -   132          6.419201289963         -2.835800192526          4.496085000220
      0.8000000000D+00  0.1000000000D+01
 Atom H15      Shell    45 S   3     bf  133 -   133          6.802853073722         -3.902118111817          2.755869350242
      0.1873113696D+02  0.3349460434D-01
      0.2825394365D+01  0.2347269535D+00
      0.6401216923D+00  0.8137573261D+00
 Atom H15      Shell    46 S   1     bf  134 -   134          6.802853073722         -3.902118111817          2.755869350242
      0.1612777588D+00  0.1000000000D+01
 Atom H16      Shell    47 S   3     bf  135 -   135          4.901873111489         -3.840699688135          5.486830069149
      0.1873113696D+02  0.3349460434D-01
      0.2825394365D+01  0.2347269535D+00
      0.6401216923D+00  0.8137573261D+00
 Atom H16      Shell    48 S   1     bf  136 -   136          4.901873111489         -3.840699688135          5.486830069149
      0.1612777588D+00  0.1000000000D+01
 Atom C17      Shell    49 S   6     bf  137 -   137         13.437165253104         -1.333543052393          6.836045225075
      0.3047524880D+04  0.1834737132D-02
      0.4573695180D+03  0.1403732281D-01
      0.1039486850D+03  0.6884262226D-01
      0.2921015530D+02  0.2321844432D+00
      0.9286662960D+01  0.4679413484D+00
      0.3163926960D+01  0.3623119853D+00
 Atom C17      Shell    50 SP   3    bf  138 -   141         13.437165253104         -1.333543052393          6.836045225075
      0.7868272350D+01 -0.1193324198D+00  0.6899906659D-01
      0.1881288540D+01 -0.1608541517D+00  0.3164239610D+00
      0.5442492580D+00  0.1143456438D+01  0.7443082909D+00
 Atom C17      Shell    51 SP   1    bf  142 -   145         13.437165253104         -1.333543052393          6.836045225075
      0.1687144782D+00  0.1000000000D+01  0.1000000000D+01
 Atom C17      Shell    52 D   1     bf  146 -   151         13.437165253104         -1.333543052393          6.836045225075
      0.8000000000D+00  0.1000000000D+01
 Atom C18      Shell    53 S   6     bf  152 -   152          6.871965819710          3.563616061668          1.301550536984
      0.3047524880D+04  0.1834737132D-02
      0.4573695180D+03  0.1403732281D-01
      0.1039486850D+03  0.6884262226D-01
      0.2921015530D+02  0.2321844432D+00
      0.9286662960D+01  0.4679413484D+00
      0.3163926960D+01  0.3623119853D+00
 Atom C18      Shell    54 SP   3    bf  153 -   156          6.871965819710          3.563616061668          1.301550536984
      0.7868272350D+01 -0.1193324198D+00  0.6899906659D-01
      0.1881288540D+01 -0.1608541517D+00  0.3164239610D+00
      0.5442492580D+00  0.1143456438D+01  0.7443082909D+00
 Atom C18      Shell    55 SP   1    bf  157 -   160          6.871965819710          3.563616061668          1.301550536984
      0.1687144782D+00  0.1000000000D+01  0.1000000000D+01
 Atom C18      Shell    56 D   1     bf  161 -   166          6.871965819710          3.563616061668          1.301550536984
      0.8000000000D+00  0.1000000000D+01
 Atom H19      Shell    57 S   3     bf  167 -   167          7.991059897057          4.187631579796         -0.319895239727
      0.1873113696D+02  0.3349460434D-01
      0.2825394365D+01  0.2347269535D+00
      0.6401216923D+00  0.8137573261D+00
 Atom H19      Shell    58 S   1     bf  168 -   168          7.991059897057          4.187631579796         -0.319895239727
      0.1612777588D+00  0.1000000000D+01
 Atom H20      Shell    59 S   3     bf  169 -   169          6.890814911920          5.108078458637          2.685827142456
      0.1873113696D+02  0.3349460434D-01
      0.2825394365D+01  0.2347269535D+00
      0.6401216923D+00  0.8137573261D+00
 Atom H20      Shell    60 S   1     bf  170 -   170          6.890814911920          5.108078458637          2.685827142456
      0.1612777588D+00  0.1000000000D+01
 Atom C21      Shell    61 S   6     bf  171 -   171          8.797036539808         -2.847725630541          6.182000900448
      0.3047524880D+04  0.1834737132D-02
      0.4573695180D+03  0.1403732281D-01
      0.1039486850D+03  0.6884262226D-01
      0.2921015530D+02  0.2321844432D+00
      0.9286662960D+01  0.4679413484D+00
      0.3163926960D+01  0.3623119853D+00
 Atom C21      Shell    62 SP   3    bf  172 -   175          8.797036539808         -2.847725630541          6.182000900448
      0.7868272350D+01 -0.1193324198D+00  0.6899906659D-01
      0.1881288540D+01 -0.1608541517D+00  0.3164239610D+00
      0.5442492580D+00  0.1143456438D+01  0.7443082909D+00
 Atom C21      Shell    63 SP   1    bf  176 -   179          8.797036539808         -2.847725630541          6.182000900448
      0.1687144782D+00  0.1000000000D+01  0.1000000000D+01
 Atom C21      Shell    64 D   1     bf  180 -   185          8.797036539808         -2.847725630541          6.182000900448
      0.8000000000D+00  0.1000000000D+01
 Atom H22      Shell    65 S   3     bf  186 -   186          8.299821569608         -2.039853233430          8.020474070130
      0.1873113696D+02  0.3349460434D-01
      0.2825394365D+01  0.2347269535D+00
      0.6401216923D+00  0.8137573261D+00
 Atom H22      Shell    66 S   1     bf  187 -   187          8.299821569608         -2.039853233430          8.020474070130
      0.1612777588D+00  0.1000000000D+01
 Atom H23      Shell    67 S   3     bf  188 -   188          9.333971153370         -4.814022181318          6.550549615008
      0.1873113696D+02  0.3349460434D-01
      0.2825394365D+01  0.2347269535D+00
      0.6401216923D+00  0.8137573261D+00
 Atom H23      Shell    68 S   1     bf  189 -   189          9.333971153370         -4.814022181318          6.550549615008
      0.1612777588D+00  0.1000000000D+01
 Atom C24      Shell    69 S   6     bf  190 -   190          4.117513442814          2.851439849461          0.559620076588
      0.3047524880D+04  0.1834737132D-02
      0.4573695180D+03  0.1403732281D-01
      0.1039486850D+03  0.6884262226D-01
      0.2921015530D+02  0.2321844432D+00
      0.9286662960D+01  0.4679413484D+00
      0.3163926960D+01  0.3623119853D+00
 Atom C24      Shell    70 SP   3    bf  191 -   194          4.117513442814          2.851439849461          0.559620076588
      0.7868272350D+01 -0.1193324198D+00  0.6899906659D-01
      0.1881288540D+01 -0.1608541517D+00  0.3164239610D+00
      0.5442492580D+00  0.1143456438D+01  0.7443082909D+00
 Atom C24      Shell    71 SP   1    bf  195 -   198          4.117513442814          2.851439849461          0.559620076588
      0.1687144782D+00  0.1000000000D+01  0.1000000000D+01
 Atom C24      Shell    72 D   1     bf  199 -   204          4.117513442814          2.851439849461          0.559620076588
      0.8000000000D+00  0.1000000000D+01
 Atom H25      Shell    73 S   3     bf  205 -   205          2.769193714719          4.201531460367          1.359437837311
      0.1873113696D+02  0.3349460434D-01
      0.2825394365D+01  0.2347269535D+00
      0.6401216923D+00  0.8137573261D+00
 Atom H25      Shell    74 S   1     bf  206 -   206          2.769193714719          4.201531460367          1.359437837311
      0.1612777588D+00  0.1000000000D+01
 Atom H26      Shell    75 S   3     bf  207 -   207          3.836002225812          2.898116859731         -1.490747517456
      0.1873113696D+02  0.3349460434D-01
      0.2825394365D+01  0.2347269535D+00
      0.6401216923D+00  0.8137573261D+00
 Atom H26      Shell    76 S   1     bf  208 -   208          3.836002225812          2.898116859731         -1.490747517456
      0.1612777588D+00  0.1000000000D+01
 Atom C27      Shell    77 S   6     bf  209 -   209         12.547265513743          2.444333143989          2.578963772148
      0.3047524880D+04  0.1834737132D-02
      0.4573695180D+03  0.1403732281D-01
      0.1039486850D+03  0.6884262226D-01
      0.2921015530D+02  0.2321844432D+00
      0.9286662960D+01  0.4679413484D+00
      0.3163926960D+01  0.3623119853D+00
 Atom C27      Shell    78 SP   3    bf  210 -   213         12.547265513743          2.444333143989          2.578963772148
      0.7868272350D+01 -0.1193324198D+00  0.6899906659D-01
      0.1881288540D+01 -0.1608541517D+00  0.3164239610D+00
      0.5442492580D+00  0.1143456438D+01  0.7443082909D+00
 Atom C27      Shell    79 SP   1    bf  214 -   217         12.547265513743          2.444333143989          2.578963772148
      0.1687144782D+00  0.1000000000D+01  0.1000000000D+01
 Atom C27      Shell    80 D   1     bf  218 -   223         12.547265513743          2.444333143989          2.578963772148
      0.8000000000D+00  0.1000000000D+01
 Atom H28      Shell    81 S   3     bf  224 -   224         12.175078282693          4.470314351412          2.361795311121
      0.1873113696D+02  0.3349460434D-01
      0.2825394365D+01  0.2347269535D+00
      0.6401216923D+00  0.8137573261D+00
 Atom H28      Shell    82 S   1     bf  225 -   225         12.175078282693          4.470314351412          2.361795311121
      0.1612777588D+00  0.1000000000D+01
 Atom C29      Shell    83 S   6     bf  226 -   226          0.785287845460         -0.515248154255          1.856550762301
      0.3047524880D+04  0.1834737132D-02
      0.4573695180D+03  0.1403732281D-01
      0.1039486850D+03  0.6884262226D-01
      0.2921015530D+02  0.2321844432D+00
      0.9286662960D+01  0.4679413484D+00
      0.3163926960D+01  0.3623119853D+00
 Atom C29      Shell    84 SP   3    bf  227 -   230          0.785287845460         -0.515248154255          1.856550762301
      0.7868272350D+01 -0.1193324198D+00  0.6899906659D-01
      0.1881288540D+01 -0.1608541517D+00  0.3164239610D+00
      0.5442492580D+00  0.1143456438D+01  0.7443082909D+00
 Atom C29      Shell    85 SP   1    bf  231 -   234          0.785287845460         -0.515248154255          1.856550762301
      0.1687144782D+00  0.1000000000D+01  0.1000000000D+01
 Atom C29      Shell    86 D   1     bf  235 -   240          0.785287845460         -0.515248154255          1.856550762301
      0.8000000000D+00  0.1000000000D+01
 Atom H30      Shell    87 S   3     bf  241 -   241          0.000000000000          0.000000000000          0.000000000000
      0.1873113696D+02  0.3349460434D-01
      0.2825394365D+01  0.2347269535D+00
      0.6401216923D+00  0.8137573261D+00
 Atom H30      Shell    88 S   1     bf  242 -   242          0.000000000000          0.000000000000          0.000000000000
      0.1612777588D+00  0.1000000000D+01
 Atom C31      Shell    89 S   6     bf  243 -   243          4.806803503079          1.339638118370          6.181887535777
      0.3047524880D+04  0.1834737132D-02
      0.4573695180D+03  0.1403732281D-01
      0.1039486850D+03  0.6884262226D-01
      0.2921015530D+02  0.2321844432D+00
      0.9286662960D+01  0.4679413484D+00
      0.3163926960D+01  0.3623119853D+00
 Atom C31      Shell    90 SP   3    bf  244 -   247          4.806803503079          1.339638118370          6.181887535777
      0.7868272350D+01 -0.1193324198D+00  0.6899906659D-01
      0.1881288540D+01 -0.1608541517D+00  0.3164239610D+00
      0.5442492580D+00  0.1143456438D+01  0.7443082909D+00
 Atom C31      Shell    91 SP   1    bf  248 -   251          4.806803503079          1.339638118370          6.181887535777
      0.1687144782D+00  0.1000000000D+01  0.1000000000D+01
 Atom C31      Shell    92 D   1     bf  252 -   257          4.806803503079          1.339638118370          6.181887535777
      0.8000000000D+00  0.1000000000D+01
 Atom H32      Shell    93 S   3     bf  258 -   258          6.394401166702          1.679980648390          7.458918479345
      0.1873113696D+02  0.3349460434D-01
      0.2825394365D+01  0.2347269535D+00
      0.6401216923D+00  0.8137573261D+00
 Atom H32      Shell    94 S   1     bf  259 -   259          6.394401166702          1.679980648390          7.458918479345
      0.1612777588D+00  0.1000000000D+01
 Atom H33      Shell    95 S   3     bf  260 -   260          3.988662201881          3.181289769614          5.729129355510
      0.1873113696D+02  0.3349460434D-01
      0.2825394365D+01  0.2347269535D+00
      0.6401216923D+00  0.8137573261D+00
 Atom H33      Shell    96 S   1     bf  261 -   261          3.988662201881          3.181289769614          5.729129355510
      0.1612777588D+00  0.1000000000D+01
 Atom H34      Shell    97 S   3     bf  262 -   262          3.391521121596          0.276389775723          7.249634919505
      0.1873113696D+02  0.3349460434D-01
      0.2825394365D+01  0.2347269535D+00
      0.6401216923D+00  0.8137573261D+00
 Atom H34      Shell    98 S   1     bf  263 -   263          3.391521121596          0.276389775723          7.249634919505
      0.1612777588D+00  0.1000000000D+01
 Atom C35      Shell    99 S   6     bf  264 -   264         15.479583506301          0.412749352116          5.746326562518
      0.3047524880D+04  0.1834737132D-02
      0.4573695180D+03  0.1403732281D-01
      0.1039486850D+03  0.6884262226D-01
      0.2921015530D+02  0.2321844432D+00
      0.9286662960D+01  0.4679413484D+00
      0.3163926960D+01  0.3623119853D+00
 Atom C35      Shell   100 SP   3    bf  265 -   268         15.479583506301          0.412749352116          5.746326562518
      0.7868272350D+01 -0.1193324198D+00  0.6899906659D-01
      0.1881288540D+01 -0.1608541517D+00  0.3164239610D+00
      0.5442492580D+00  0.1143456438D+01  0.7443082909D+00
 Atom C35      Shell   101 SP   1    bf  269 -   272         15.479583506301          0.412749352116          5.746326562518
      0.1687144782D+00  0.1000000000D+01  0.1000000000D+01
 Atom C35      Shell   102 D   1     bf  273 -   278         15.479583506301          0.412749352116          5.746326562518
      0.8000000000D+00  0.1000000000D+01
 Atom C36      Shell   103 S   6     bf  279 -   279         14.556762224369         -4.053932945669          7.034937766725
      0.3047524880D+04  0.1834737132D-02
      0.4573695180D+03  0.1403732281D-01
      0.1039486850D+03  0.6884262226D-01
      0.2921015530D+02  0.2321844432D+00
      0.9286662960D+01  0.4679413484D+00
      0.3163926960D+01  0.3623119853D+00
 Atom C36      Shell   104 SP   3    bf  280 -   283         14.556762224369         -4.053932945669          7.034937766725
      0.7868272350D+01 -0.1193324198D+00  0.6899906659D-01
      0.1881288540D+01 -0.1608541517D+00  0.3164239610D+00
      0.5442492580D+00  0.1143456438D+01  0.7443082909D+00
 Atom C36      Shell   105 SP   1    bf  284 -   287         14.556762224369         -4.053932945669          7.034937766725
      0.1687144782D+00  0.1000000000D+01  0.1000000000D+01
 Atom C36      Shell   106 D   1     bf  288 -   293         14.556762224369         -4.053932945669          7.034937766725
      0.8000000000D+00  0.1000000000D+01
 Atom H37      Shell   107 S   3     bf  294 -   294         14.720043708525         -4.831191495968          5.116132924949
      0.1873113696D+02  0.3349460434D-01
      0.2825394365D+01  0.2347269535D+00
      0.6401216923D+00  0.8137573261D+00
 Atom H37      Shell   108 S   1     bf  295 -   295         14.720043708525         -4.831191495968          5.116132924949
      0.1612777588D+00  0.1000000000D+01
 Atom H38      Shell   109 S   3     bf  296 -   296         13.222785120780         -5.270770556109          8.046564536189
      0.1873113696D+02  0.3349460434D-01
      0.2825394365D+01  0.2347269535D+00
      0.6401216923D+00  0.8137573261D+00
 Atom H38      Shell   110 S   1     bf  297 -   297         13.222785120780         -5.270770556109          8.046564536189
      0.1612777588D+00  0.1000000000D+01
 Atom C39      Shell   111 S   6     bf  298 -   298         15.040574916685          2.076919474534          3.880482089301
      0.3047524880D+04  0.1834737132D-02
      0.4573695180D+03  0.1403732281D-01
      0.1039486850D+03  0.6884262226D-01
      0.2921015530D+02  0.2321844432D+00
      0.9286662960D+01  0.4679413484D+00
      0.3163926960D+01  0.3623119853D+00
 Atom C39      Shell   112 SP   3    bf  299 -   302         15.040574916685          2.076919474534          3.880482089301
      0.7868272350D+01 -0.1193324198D+00  0.6899906659D-01
      0.1881288540D+01 -0.1608541517D+00  0.3164239610D+00
      0.5442492580D+00  0.1143456438D+01  0.7443082909D+00
 Atom C39      Shell   113 SP   1    bf  303 -   306         15.040574916685          2.076919474534          3.880482089301
      0.1687144782D+00  0.1000000000D+01  0.1000000000D+01
 Atom C39      Shell   114 D   1     bf  307 -   312         15.040574916685          2.076919474534          3.880482089301
      0.8000000000D+00  0.1000000000D+01
 Atom H40      Shell   115 S   3     bf  313 -   313         16.595900933451          3.225387927322          3.172023799877
[...]
 1526 Fit      -0.001315
 1527 Fit       0.002141
 1528 Fit       0.002352
 1529 Fit       0.001672
 1530 Fit      -0.000009
 1531 Fit      -0.002367
 1532 Fit       0.002514
 1533 Fit       0.001301
 1534 Fit      -0.000764
 1535 Fit       0.000115
 1536 Fit      -0.002320
 1537 Fit       0.002419
 1538 Fit       0.001253
 1539 Fit       0.001976
 1540 Fit       0.003135
 1541 Fit      -0.001135
 1542 Fit      -0.000495
 1543 Fit       0.000473
 1544 Fit       0.001742
 1545 Fit      -0.000665
 1546 Fit      -0.001180
 1547 Fit      -0.004110
 1548 Fit      -0.002802
 1549 Fit      -0.002996
 1550 Fit      -0.003393
 1551 Fit      -0.003100
 1552 Fit      -0.003758
 1553 Fit      -0.003930
 1554 Fit      -0.003731
 1555 Fit      -0.003624
 1556 Fit       0.002710
 1557 Fit      -0.001400
 1558 Fit      -0.001699
 1559 Fit       0.000573
 1560 Fit       0.001729
 1561 Fit       0.001008
 1562 Fit      -0.001075
 1563 Fit      -0.003374
 1564 Fit      -0.003073
 1565 Fit      -0.000772
 1566 Fit       0.000455
 1567 Fit      -0.001692
 1568 Fit       0.000090
 1569 Fit       0.001812
 1570 Fit      -0.001915
 1571 Fit       0.000383
 1572 Fit       0.001908
 1573 Fit       0.002248
 1574 Fit       0.001230
 1575 Fit      -0.000921
 1576 Fit       0.000744
 1577 Fit       0.000786
 1578 Fit      -0.000946
 1579 Fit      -0.002764
 1580 Fit      -0.001338
 1581 Fit      -0.002828
 1582 Fit       0.002377
 1583 Fit       0.000613
 1584 Fit       0.001748
 1585 Fit       0.001210
 1586 Fit      -0.000266
 1587 Fit      -0.002365
 1588 Fit      -0.002770
 1589 Fit      -0.000348
 1590 Fit       0.000601
 1591 Fit      -0.000078
 1592 Fit      -0.002018
 1593 Fit      -0.003115
 1594 Fit      -0.001357
 1595 Fit      -0.002279
 1596 Fit      -0.005524
 1597 Fit      -0.013033
 1598 Fit      -0.017172
 1599 Fit      -0.018544
 1600 Fit      -0.017845
 1601 Fit      -0.011097
 1602 Fit      -0.018788
 1603 Fit      -0.022853
 1604 Fit      -0.023813
 1605 Fit      -0.016638
 1606 Fit      -0.009396
 1607 Fit      -0.016275
 1608 Fit      -0.023111
 1609 Fit      -0.024547
 1610 Fit      -0.022113
 1611 Fit      -0.015430
 1612 Fit      -0.010626
 1613 Fit      -0.020234
 1614 Fit       0.016691
 1615 Fit       0.003668
 1616 Fit       0.005555
 1617 Fit       0.012571
 1618 Fit       0.015525
 1619 Fit       0.014644
 1620 Fit       0.010388
 1621 Fit       0.000409
 1622 Fit       0.007598
 1623 Fit       0.010284
 1624 Fit       0.007757
 1625 Fit       0.001423
 1626 Fit      -0.000214
 1627 Fit      -0.003260
 1628 Fit      -0.002164
 1629 Fit      -0.010938
 1630 Fit      -0.006648
 1631 Fit      -0.001136
 1632 Fit      -0.012690
 1633 Fit      -0.014861
 1634 Fit      -0.013893
 1635 Fit      -0.019944
 1636 Fit      -0.017165
 1637 Fit      -0.013109
 1638 Fit      -0.007437
 1639 Fit      -0.013401
 1640 Fit      -0.019397
 1641 Fit      -0.021691
 1642 Fit      -0.021580
 1643 Fit      -0.023914
 1644 Fit      -0.021470
 1645 Fit      -0.016615
 1646 Fit      -0.017738
 1647 Fit      -0.022747
 1648 Fit      -0.024463
 1649 Fit      -0.022302
 1650 Fit      -0.019607
 1651 Fit      -0.017143
 1652 Fit      -0.021577
 1653 Fit      -0.015098
 1654 Fit       0.020285
 1655 Fit       0.015336
 1656 Fit       0.019363
 1657 Fit       0.023455
 1658 Fit       0.023588
 1659 Fit       0.018000
 1660 Fit       0.014139
 1661 Fit       0.007483
 1662 Fit       0.011436
 1663 Fit       0.015888
 1664 Fit       0.020830
 1665 Fit       0.007772
 1666 Fit       0.004251
 1667 Fit       0.004599
 1668 Fit       0.000180
 1669 Fit       0.005293
 1670 Fit       0.010672
 1671 Fit       0.001353
 1672 Fit       0.000268
 1673 Fit      -0.003848
 1674 Fit      -0.008090
 1675 Fit      -0.012553
 1676 Fit       0.006478
 1677 Fit       0.004805
 1678 Fit       0.004736
 1679 Fit       0.007095
 1680 Fit       0.008021
 1681 Fit       0.011787
 1682 Fit       0.018358
 1683 Fit       0.006352
 1684 Fit      -0.000397
 1685 Fit      -0.003645
 1686 Fit       0.000114
 1687 Fit       0.002446
 1688 Fit       0.003517
 1689 Fit       0.005527
 1690 Fit       0.004398
 1691 Fit       0.005949
 1692 Fit       0.003867
 1693 Fit       0.005542
 1694 Fit       0.005059
 1695 Fit       0.004903
 1696 Fit       0.004482
 1697 Fit       0.003264
 1698 Fit       0.003583
 1699 Fit       0.000889
 1700 Fit      -0.004496
 1701 Fit      -0.004366
 1702 Fit      -0.003914
 1703 Fit      -0.005663
 1704 Fit      -0.008375
 1705 Fit      -0.006042
 1706 Fit      -0.016462
 1707 Fit      -0.008553
 1708 Fit      -0.006350
 1709 Fit      -0.006081
 1710 Fit      -0.018424
 1711 Fit      -0.010216
 1712 Fit      -0.006868
 1713 Fit      -0.017399
 1714 Fit      -0.010078
 1715 Fit       0.003917
 1716 Fit       0.002838
 1717 Fit       0.002332
 1718 Fit       0.002870
 1719 Fit       0.001619
 1720 Fit       0.000623
 1721 Fit       0.000572
 1722 Fit       0.001184
 1723 Fit      -0.001828
 1724 Fit      -0.002278
 1725 Fit      -0.002093
 1726 Fit      -0.001667
 1727 Fit       0.005179
 1728 Fit       0.006700
 1729 Fit       0.006341
 1730 Fit       0.007321
 1731 Fit       0.005119
 1732 Fit       0.005311
 1733 Fit       0.007080
 1734 Fit       0.005513
 1735 Fit       0.007476
 1736 Fit       0.004764
 1737 Fit       0.006319
 1738 Fit       0.008162
 1739 Fit       0.005280
 1740 Fit       0.006774
 1741 Fit       0.004805
 1742 Fit       0.006531
 1743 Fit      -0.004764
 1744 Fit      -0.003729
 1745 Fit      -0.002882
 1746 Fit      -0.001729
 1747 Fit       0.003041
 1748 Fit      -0.000313
 1749 Fit       0.000972
 1750 Fit       0.001972
 1751 Fit      -0.003110
 1752 Fit      -0.001315
 1753 Fit      -0.000351
 1754 Fit      -0.000439
 1755 Fit      -0.002585
 1756 Fit      -0.002321
 1757 Fit      -0.005088
 1758 Fit      -0.003569
 1759 Fit      -0.002312
 1760 Fit      -0.000907
 1761 Fit       0.001153
 1762 Fit      -0.002867
 1763 Fit      -0.007675
 1764 Fit      -0.004821
 1765 Fit      -0.003619
 1766 Fit      -0.001861
 1767 Fit      -0.000345
 1768 Fit      -0.000187
 1769 Fit      -0.002700
 1770 Fit      -0.001859
 1771 Fit       0.002255
 1772 Fit       0.003574
 1773 Fit       0.001801
 1774 Fit       0.001954
 1775 Fit       0.002010
 1776 Fit      -0.000922
 1777 Fit      -0.000788
 1778 Fit      -0.001059
 1779 Fit      -0.007059
 1780 Fit      -0.006099
 1781 Fit      -0.001098
 1782 Fit       0.000224
 1783 Fit      -0.001152
 1784 Fit       0.000116
 1785 Fit       0.001483
 1786 Fit       0.002387
 1787 Fit       0.000832
 1788 Fit       0.004675
 1789 Fit       0.000611
 1790 Fit      -0.000242
 1791 Fit       0.002328
 1792 Fit      -0.000979
 1793 Fit       0.003420
 1794 Fit       0.004399
 1795 Fit       0.005395
 1796 Fit       0.002313
 1797 Fit       0.005709
 1798 Fit       0.002194
 1799 Fit       0.003813
 1800 Fit       0.001320
 1801 Fit       0.000540
 1802 Fit       0.002581
 1803 Fit       0.002594
 1804 Fit       0.002265
 1805 Fit       0.003390
 1806 Fit       0.002571
 1807 Fit       0.001003
 1808 Fit       0.002843
 1809 Fit       0.004031
 1810 Fit       0.004119
 1811 Fit       0.004963
 1812 Fit       0.005233
 1813 Fit      -0.000782
 1814 Fit       0.006384
 1815 Fit       0.006131
 1816 Fit       0.006788
 1817 Fit       0.006354
 1818 Fit       0.006360
 1819 Fit       0.006344
 1820 Fit       0.008025
 1821 Fit       0.007626
 1822 Fit       0.007600
 1823 Fit       0.008260
 1824 Fit       0.012731
 1825 Fit       0.010568
 1826 Fit       0.010237
 1827 Fit       0.016051
 1828 Fit       0.009519
 1829 Fit       0.009792
 1830 Fit       0.009307
 1831 Fit       0.008425
 1832 Fit       0.009038
 1833 Fit       0.007930
 1834 Fit       0.007262
 1835 Fit       0.007148
 1836 Fit      -0.000838
 1837 Fit      -0.000434
 1838 Fit      -0.000126
 1839 Fit       0.002782
 1840 Fit       0.000999
 1841 Fit       0.001705
 1842 Fit       0.001913
 1843 Fit       0.001612
 1844 Fit       0.003713
 1845 Fit       0.002224
 1846 Fit       0.003832
 1847 Fit       0.003029
 1848 Fit       0.001769
 1849 Fit       0.001046
 1850 Fit       0.001144
 1851 Fit       0.001012
 1852 Fit      -0.000547
 1853 Fit      -0.003678
 1854 Fit       0.000864
 1855 Fit      -0.003734
 1856 Fit      -0.006565
 1857 Fit       0.006944
 1858 Fit       0.005552
 1859 Fit       0.005968
 1860 Fit       0.008815
 1861 Fit       0.005386
 1862 Fit       0.005052
 1863 Fit       0.005389
 1864 Fit       0.005978
 1865 Fit       0.006080
 1866 Fit       0.004583
 1867 Fit       0.007024
 1868 Fit       0.006906
 1869 Fit       0.007986
 1870 Fit       0.008413
 1871 Fit       0.006537
 1872 Fit       0.007739
 1873 Fit       0.008569
 1874 Fit       0.009267
 1875 Fit       0.009599
 1876 Fit       0.008545
 1877 Fit       0.009270
 1878 Fit       0.013781
 1879 Fit       0.010269
 1880 Fit       0.012128
 1881 Fit       0.021445
 1882 Fit       0.015483
 1883 Fit       0.009921
 1884 Fit       0.006906
 1885 Fit       0.005246
 1886 Fit       0.005357
 1887 Fit       0.005734
 1888 Fit       0.006081
 1889 Fit       0.005947
 1890 Fit       0.004835
 1891 Fit       0.006367
 1892 Fit       0.007192
 1893 Fit       0.003400
 1894 Fit       0.002192
 1895 Fit      -0.002750
 1896 Fit       0.001770
 1897 Fit       0.003037
 1898 Fit      -0.010296
 1899 Fit      -0.001777
 1900 Fit       0.002354
 1901 Fit       0.004344
 1902 Fit      -0.003608
 1903 Fit       0.001186
 1904 Fit       0.000763
 1905 Fit       0.019560
 1906 Fit       0.023308
 1907 Fit       0.014869
 1908 Fit       0.012863
 1909 Fit       0.009694
 1910 Fit       0.008835
 1911 Fit       0.005685
 1912 Fit       0.005221
 1913 Fit       0.004336
 1914 Fit       0.008063
 1915 Fit       0.006075
 1916 Fit       0.004846
 1917 Fit       0.006142
 1918 Fit       0.007460
 1919 Fit       0.012872
 1920 Fit       0.016031
 1921 Fit       0.018223
 1922 Fit       0.011066
 1923 Fit       0.009673
 1924 Fit       0.010329
 1925 Fit       0.008628
 1926 Fit       0.006933
 1927 Fit       0.006369
 1928 Fit       0.009732
 1929 Fit       0.004174
 1930 Fit       0.004897
 1931 Fit       0.002619
 1932 Fit      -0.001283
 1933 Fit       0.006885
 1934 Fit       0.005344
 1935 Fit       0.003296
 1936 Fit      -0.000720
 1937 Fit      -0.009355
 1938 Fit       0.005363
 1939 Fit       0.003166
 1940 Fit      -0.001314
 1941 Fit      -0.011349
 1942 Fit       0.005182
 1943 Fit       0.002045
 1944 Fit      -0.004199
 1945 Fit       0.004178
 1946 Fit       0.000049
 1947 Fit       0.000851
 1948 Fit       0.005200
 1949 Fit       0.002205
 1950 Fit       0.003110
 1951 Fit       0.000994
 1952 Fit       0.002552
 1953 Fit       0.001803
 1954 Fit      -0.000766
 1955 Fit       0.000324
 1956 Fit       0.000705
 1957 Fit       0.000611
 1958 Fit       0.001717
 1959 Fit       0.001222
 1960 Fit      -0.000630
 1961 Fit      -0.008982
 1962 Fit      -0.007534
 1963 Fit      -0.005069
 1964 Fit       0.005778
 1965 Fit       0.000299
 1966 Fit      -0.004887
 1967 Fit       0.000311
 1968 Fit       0.002281
 1969 Fit       0.006741
 1970 Fit       0.012810
 1971 Fit       0.008474
 1972 Fit       0.003145
 1973 Fit       0.005986
 1974 Fit      -0.001390
 1975 Fit      -0.001907
 1976 Fit      -0.001802
 1977 Fit      -0.001223
 1978 Fit      -0.001628
 1979 Fit      -0.002071
 1980 Fit      -0.001027
 1981 Fit      -0.001661
 1982 Fit      -0.001572
 1983 Fit      -0.001465
 1984 Fit      -0.001361
 1985 Fit       0.002770
 1986 Fit       0.000388
 1987 Fit       0.001000
 1988 Fit       0.002751
 1989 Fit      -0.001347
 1990 Fit      -0.000447
 1991 Fit       0.000805
 1992 Fit       0.002904
 1993 Fit      -0.000760
 1994 Fit      -0.000236
 1995 Fit      -0.000648
 1996 Fit      -0.001405
 1997 Fit      -0.000002
 1998 Fit       0.000966
 1999 Fit       0.001307
 2000 Fit      -0.000971
 2001 Fit       0.000555
 2002 Fit       0.001697
 2003 Fit       0.002381
 2004 Fit      -0.000603
 2005 Fit       0.001059
 2006 Fit       0.002504
 2007 Fit       0.000827
 2008 Fit      -0.001036
 2009 Fit       0.003155
 2010 Fit       0.001458
 2011 Fit      -0.000376
 2012 Fit       0.001398
 2013 Fit      -0.000373
 2014 Fit      -0.000980
 2015 Fit      -0.000008
 2016 Fit      -0.000332
 2017 Fit       0.001319
 2018 Fit       0.001235
 2019 Fit       0.003393
 2020 Fit       0.001625
 2021 Fit       0.001275
 2022 Fit       0.001772
 2023 Fit       0.001683
 2024 Fit       0.002688
 2025 Fit       0.002140
 2026 Fit       0.001482
 2027 Fit       0.000386
 2028 Fit       0.001701
 2029 Fit       0.001364
 2030 Fit       0.000509
 2031 Fit       0.000234
 2032 Fit       0.000622
 2033 Fit      -0.000070
 2034 Fit       0.000008
 2035 Fit      -0.002083
 2036 Fit       0.000432
 2037 Fit       0.000248
 2038 Fit      -0.000650
 2039 Fit       0.001441
 2040 Fit       0.001057
 2041 Fit       0.000459
 2042 Fit      -0.001086
 2043 Fit       0.002131
 2044 Fit       0.001404
 2045 Fit       0.000487
 2046 Fit      -0.001056
 2047 Fit       0.000720
 2048 Fit      -0.001647
 2049 Fit      -0.002738
 2050 Fit      -0.001706
 2051 Fit      -0.000010
 2052 Fit      -0.002972
 2053 Fit      -0.001397
 2054 Fit       0.001988
 2055 Fit       0.001527
 2056 Fit       0.001309
 2057 Fit       0.000917
 2058 Fit       0.000179
 2059 Fit      -0.000013
 2060 Fit       0.000371
 2061 Fit       0.001126
 2062 Fit      -0.000373
 2063 Fit       0.000331
 2064 Fit      -0.001454
 2065 Fit      -0.001604
 2066 Fit      -0.001121
 2067 Fit      -0.002009
 2068 Fit      -0.002012
 2069 Fit      -0.001344
 2070 Fit      -0.002016
 2071 Fit      -0.001925
 2072 Fit      -0.002068
 2073 Fit      -0.001190
 2074 Fit      -0.000136
 2075 Fit       0.000388
 2076 Fit       0.000250
 2077 Fit      -0.001651
 2078 Fit      -0.000262
 2079 Fit       0.000819
 2080 Fit       0.001366
 2081 Fit       0.001566
 2082 Fit      -0.001086
 2083 Fit       0.000457
 2084 Fit       0.001520
 2085 Fit       0.002054
 2086 Fit      -0.000195
 2087 Fit       0.001406
 2088 Fit       0.000368
 2089 Fit       0.000400
 2090 Fit      -0.000088
 2091 Fit      -0.001262
 2092 Fit       0.001189
 2093 Fit       0.001491
 2094 Fit       0.001313
 2095 Fit       0.000492
 2096 Fit      -0.000905
 2097 Fit       0.002135
 2098 Fit       0.001697
 2099 Fit       0.000746
 2100 Fit      -0.000736
 2101 Fit       0.001861
 2102 Fit       0.000624
 2103 Fit      -0.000907
 2104 Fit       0.001807
 2105 Fit       0.001219
 2106 Fit       0.001719
 2107 Fit       0.002514
 2108 Fit      -0.000131
 2109 Fit      -0.000247
 2110 Fit       0.000190
 2111 Fit       0.000941
 2112 Fit       0.001962
 2113 Fit      -0.001033
 2114 Fit      -0.000194
 2115 Fit      -0.001260
 2116 Fit      -0.001833
 2117 Fit      -0.003044
 2118 Fit      -0.002297
 2119 Fit      -0.002165
 2120 Fit      -0.002785
 2121 Fit      -0.002348
 2122 Fit      -0.003088
 2123 Fit      -0.003174
 2124 Fit      -0.002983
 2125 Fit      -0.002916
 2126 Fit      -0.001933
 2127 Fit       0.000079
 2128 Fit       0.001590
 2129 Fit       0.001755
 2130 Fit      -0.001289
 2131 Fit      -0.001342
 2132 Fit       0.000196
 2133 Fit       0.000966
 2134 Fit       0.000406
 2135 Fit      -0.001206
 2136 Fit      -0.002769
 2137 Fit      -0.002505
 2138 Fit      -0.000933
 2139 Fit      -0.000130
 2140 Fit      -0.001656
 2141 Fit       0.000270
 2142 Fit       0.001401
 2143 Fit      -0.000239
 2144 Fit       0.001102
 2145 Fit       0.001907
 2146 Fit      -0.000648
 2147 Fit       0.000700
 2148 Fit       0.001306
 2149 Fit       0.000979
 2150 Fit      -0.000462
 2151 Fit      -0.001224
 2152 Fit      -0.000067
 2153 Fit      -0.000041
 2154 Fit      -0.001220
 2155 Fit      -0.001628
 2156 Fit       0.000616
 2157 Fit       0.001752
 2158 Fit       0.000970
 2159 Fit       0.000027
 2160 Fit      -0.001240
 2161 Fit      -0.000323
 2162 Fit       0.000553
 2163 Fit       0.000528
 2164 Fit      -0.000214
 2165 Fit      -0.001496
 2166 Fit      -0.002632
 2167 Fit      -0.001068
 2168 Fit      -0.000327
 2169 Fit      -0.000708
 2170 Fit      -0.001957
 2171 Fit      -0.001742
 2172 Fit      -0.002300
 -----------------------------------------------------------------
 Leave Link  602 at Thu May 18 13:45:28 2017, MaxMem=   33554432 cpu:      15.8
 (Enter /scratch/michal/g09/l9999.exe)

 Test job not archived.
 1\1\GINC-RZEPICHA\SP\RHF\6-31G(d)\C27H46O2\MICHAL\18-May-2017\0\\#P HF
 /6-31G* SCF(Conver=6) NoSymm Test Pop=mk IOp(6/33=2) GFInput GFPrint\\
 MEP - Input generated by R.E.D.-III.x MOLECULE\\0,1\O,0,6.72980708,0.8
 2043107,0.\H,0,7.24077167,0.,0.\O,0,11.39838285,-1.41213331,4.27869866
 \H,0,11.34197806,-1.12569027,5.20116078\C,0,2.97313601,-0.0675381,2.00
 454077\C,0,4.19588044,0.59052715,1.30230855\H,0,4.44068744,-0.06743102
 ,0.45704116\C,0,5.47059345,0.66374418,2.15126268\H,0,5.29724337,1.3291
 8874,3.00909632\C,0,5.86088475,-0.74477814,2.66957389\H,0,6.17451036,-
 1.31627578,1.78009946\C,0,1.92746029,0.06716445,0.84300719\H,0,2.29746
 083,-0.61649649,0.06664232\C,0,3.39689502,-1.50064083,2.37922571\H,0,3
 .5999148,-2.06491197,1.45834325\H,0,2.59395953,-2.03241074,2.90350542\
 C,0,7.1106416,-0.70568059,3.61747933\C,0,3.63648769,1.8857844,0.688750
 88\H,0,4.22868677,2.21599919,-0.16928127\H,0,3.6464622,2.7030787,1.421
 27851\C,0,4.65519124,-1.5069515,3.27137398\H,0,4.39207641,-1.07944384,
 4.24425208\H,0,4.9393248,-2.54747082,3.46640156\C,0,2.17889427,1.50891
 698,0.29613819\H,0,1.4653942,2.22335469,0.71938352\H,0,2.02992495,1.53
 361739,-0.78886961\C,0,6.63972694,1.29348539,1.36472885\H,0,6.44277394
 ,2.36558847,1.24980825\C,0,0.41555643,-0.27265758,0.98244435\H,0,0.,0.
 ,0.\C,0,2.54365086,0.70890596,3.27131399\H,0,3.38377136,0.88900747,3.9
 4708966\H,0,2.11070913,1.68346604,3.03172468\H,0,1.79471568,0.14625917
 ,3.83634157\C,0,8.19144279,0.21841755,3.04082505\C,0,7.7031068,-2.1452
 4892,3.72272873\H,0,7.78951164,-2.55655643,2.70734094\H,0,6.99719652,-
 2.78917165,4.25805856\C,0,7.95912945,1.09905845,2.05346268\H,0,8.78217
 253,1.70680178,1.6785627\C,0,6.73650303,-0.19346983,5.03510726\H,0,6.1
 0821617,-0.91514735,5.56566459\H,0,7.62417883,-0.02653144,5.65020625\H
 ,0,6.19748464,0.75727946,4.98339484\C,0,9.57831884,0.11241103,3.648230
 5\H,0,10.28316271,0.73960266,3.09367312\H,0,9.56257005,0.49395582,4.68
 166322\C,0,9.08065012,-2.23335623,4.39727976\H,0,9.01102778,-1.9379793
 3,5.45458713\H,0,9.43882164,-3.26898316,4.38426245\C,0,0.10859259,-1.7
 7603227,1.18970522\H,0,0.51469926,-2.09574408,2.15790613\H,0,-0.980884
 44,-1.87809496,1.28647484\C,0,10.09608392,-1.33329923,3.69378478\H,0,1
 0.24214113,-1.69093611,2.66704924\C,0,-0.39115756,0.54478704,2.0118088
 9\H,0,-0.21483844,0.20589444,3.03694525\H,0,-1.46291358,0.42875917,1.8
 1387595\H,0,-0.16808835,1.61485865,1.97031627\C,0,0.59918899,-2.756441
 16,0.10632992\H,0,1.69516481,-2.75730549,0.0749141\H,0,0.31863876,-3.7
 7071173,0.41840738\C,0,0.08130653,-2.50111003,-1.32232753\H,0,0.521580
 05,-3.25869273,-1.98756345\H,0,0.46380827,-1.53551813,-1.67966883\C,0,
 -1.44950719,-2.51987893,-1.5177611\H,0,-1.88982111,-1.75217089,-0.8650
 409\C,0,-2.07355166,-3.87266915,-1.13950789\H,0,-1.64815967,-4.6809863
 1,-1.74859861\H,0,-3.15636737,-3.86498374,-1.30856382\H,0,-1.90668849,
 -4.12541291,-0.0874497\C,0,-1.80415504,-2.14927876,-2.96686892\H,0,-1.
 39526297,-2.88629485,-3.6700167\H,0,-2.88954515,-2.11554757,-3.1153139
 1\H,0,-1.39754104,-1.16868231,-3.23981968\\Version=EM64L-G09RevC.01\HF
 =-1198.9193633\RMSD=5.028e-07\Dipole=-0.3306624,-0.2178264,0.9356944\Q
 uadrupole=-14.8828255,2.7876349,12.0951906,0.3469141,10.6662683,1.1682
 79\PG=C01 [X(C27H46O2)]\\@


 YOU CANNOT THROW TO THE GROUND THE LETTERS OF
 THE GREEK ALPHABET AND PICK UP THE ILIAD.
        - RUFUS CHOATE, 1799-1859
 Job cpu time:  0 days  0 hours 43 minutes 16.7 seconds.
 File lengths (MBytes):  RWF=    151 Int=      0 D2E=      0 Chk=     11 Scr=      1
 Normal termination of Gaussian 09 at Thu May 18 13:45:28 2017.
