 Entering Gaussian System, Link 0=/scratch/michal/g09//g09
 Input=JOB2-gau_m1-19-1.com
 Output=JOB2-gau_m1-19-1.log
 Initial command:
 /scratch/michal/g09/l1.exe /scratch/michal/gauss_scratch/Gau-35837.inp -scrdir=/scratch/michal/gauss_scratch/
 Entering Link 1 = /scratch/michal/g09/l1.exe PID=     35839.
  
 Copyright (c) 1988,1990,1992,1993,1995,1998,2003,2009,2011,
            Gaussian, Inc.  All Rights Reserved.
  
 This is part of the Gaussian(R) 09 program.  It is based on
 the Gaussian(R) 03 system (copyright 2003, Gaussian, Inc.),
 the Gaussian(R) 98 system (copyright 1998, Gaussian, Inc.),
 the Gaussian(R) 94 system (copyright 1995, Gaussian, Inc.),
 the Gaussian 92(TM) system (copyright 1992, Gaussian, Inc.),
 the Gaussian 90(TM) system (copyright 1990, Gaussian, Inc.),
 the Gaussian 88(TM) system (copyright 1988, Gaussian, Inc.),
 the Gaussian 86(TM) system (copyright 1986, Carnegie Mellon
 University), and the Gaussian 82(TM) system (copyright 1983,
 Carnegie Mellon University). Gaussian is a federally registered
 trademark of Gaussian, Inc.
  
 This software contains proprietary and confidential information,
 including trade secrets, belonging to Gaussian, Inc.
  
 This software is provided under written license and may be
 used, copied, transmitted, or stored only in accord with that
 written license.
  
 The following legend is applicable only to US Government
 contracts under FAR:
  
                    RESTRICTED RIGHTS LEGEND
  
 Use, reproduction and disclosure by the US Government is
 subject to restrictions as set forth in subparagraphs (a)
 and (c) of the Commercial Computer Software - Restricted
 Rights clause in FAR 52.227-19.
  
 Gaussian, Inc.
 340 Quinnipiac St., Bldg. 40, Wallingford CT 06492
  
  
 ---------------------------------------------------------------
 Warning -- This program may not be used in any manner that
 competes with the business of Gaussian, Inc. or will provide
 assistance to any competitor of Gaussian, Inc.  The licensee
 of this program is prohibited from giving any competitor of
 Gaussian, Inc. access to this program.  By using this program,
 the user acknowledges that Gaussian, Inc. is engaged in the
 business of creating and licensing software in the field of
 computational chemistry and represents and warrants to the
 licensee that it is not a competitor of Gaussian, Inc. and that
 it will not use this program in any manner prohibited above.
 ---------------------------------------------------------------
  

 Cite this work as:
 Gaussian 09, Revision C.01,
 M. J. Frisch, G. W. Trucks, H. B. Schlegel, G. E. Scuseria, 
 M. A. Robb, J. R. Cheeseman, G. Scalmani, V. Barone, B. Mennucci, 
 G. A. Petersson, H. Nakatsuji, M. Caricato, X. Li, H. P. Hratchian, 
 A. F. Izmaylov, J. Bloino, G. Zheng, J. L. Sonnenberg, M. Hada, 
 M. Ehara, K. Toyota, R. Fukuda, J. Hasegawa, M. Ishida, T. Nakajima, 
 Y. Honda, O. Kitao, H. Nakai, T. Vreven, J. A. Montgomery, Jr., 
 J. E. Peralta, F. Ogliaro, M. Bearpark, J. J. Heyd, E. Brothers, 
 K. N. Kudin, V. N. Staroverov, T. Keith, R. Kobayashi, J. Normand, 
 K. Raghavachari, A. Rendell, J. C. Burant, S. S. Iyengar, J. Tomasi, 
 M. Cossi, N. Rega, J. M. Millam, M. Klene, J. E. Knox, J. B. Cross, 
 V. Bakken, C. Adamo, J. Jaramillo, R. Gomperts, R. E. Stratmann, 
 O. Yazyev, A. J. Austin, R. Cammi, C. Pomelli, J. W. Ochterski, 
 R. L. Martin, K. Morokuma, V. G. Zakrzewski, G. A. Voth, 
 P. Salvador, J. J. Dannenberg, S. Dapprich, A. D. Daniels, 
 O. Farkas, J. B. Foresman, J. V. Ortiz, J. Cioslowski, 
 and D. J. Fox, Gaussian, Inc., Wallingford CT, 2010.
 
 ******************************************
 Gaussian 09:  EM64L-G09RevC.01 23-Sep-2011
                18-May-2017 
 ******************************************
 %Mem=256MB
 %NProc=48
 Will use up to   48 processors via shared memory.
 ----------------------------------------------------------------------
 #P HF/6-31G* SCF(Conver=6) NoSymm Test Pop=mk IOp(6/33=2) GFInput GFPr
 int
 ----------------------------------------------------------------------
 1/38=1/1;
 2/12=2,15=1,17=6,18=5,40=1/2;
 3/5=1,6=6,7=1,11=9,16=1,24=110,25=1,30=1/1,2,3;
 4//1;
 5/5=2,6=6,38=5/2;
 6/7=2,8=2,9=2,10=2,15=8,20=1,28=1,33=2/1,2;
 99/5=1,9=1/99;
 Leave Link    1 at Thu May 18 13:59:02 2017, MaxMem=   33554432 cpu:       6.8
 (Enter /scratch/michal/g09/l101.exe)
 ----------------------------------------------
 MEP - Input generated by R.E.D.-III.x MOLECULE
 ----------------------------------------------
 Charge =  0 Multiplicity = 1
 Symbolic Z-Matrix:
 O                     0.        0.        0. 
 H                     0.96653   0.        0. 
 O                     4.36654  -1.25278  -4.94535 
 H                     4.09342  -1.05555  -5.85237 
 C                    -1.24582   4.10483  -0.72423 
 C                    -1.14103   2.57081  -0.49851 
 H                    -0.44435   2.44606   0.34264 
 C                    -0.53287   1.78276  -1.66497 
 H                    -1.19269   1.86879  -2.54053 
 C                     0.86721   2.34128  -2.02517 
 H                     1.51973   2.09129  -1.17203 
 C                    -1.92359   4.52408   0.62657 
 H                    -1.13889   4.4302    1.39142 
 C                     0.19293   4.60935  -0.95648 
 H                     0.7761    4.443    -0.03933 
 H                     0.22075   5.6862   -1.15211 
 C                     1.49492   1.62265  -3.27075 
 C                    -2.52323   2.161     0.03031 
 H                    -2.47536   1.24371   0.62369 
 H                    -3.22118   1.97436  -0.79603 
 C                     0.87003   3.88435  -2.13785 
 H                     0.36904   4.18973  -3.06222 
 H                     1.90171   4.24505  -2.22213 
 C                    -2.97291   3.38915   0.87004 
 H                    -3.97177   3.72359   0.56546 
 H                    -3.04291   3.14323   1.9343 
 C                    -0.44898   0.27466  -1.34823 
 H                    -1.46277  -0.14151  -1.36846 
 C                    -2.53853   5.93903   0.76432 
 H                    -3.32426   6.02906   0. 
 C                    -2.1542    4.47444  -1.91892 
 H                    -1.82231   4.01439  -2.85328 
 H                    -3.19018   4.16168  -1.75689 
 H                    -2.16221   5.55812  -2.07878 
 C                     1.28464   0.1057   -3.17568 
 C                     3.02929   1.90458  -3.28907 
 H                     3.42559   1.71651  -2.28148 
 H                     3.19985   2.96672  -3.4949 
 C                     0.41463  -0.46639  -2.32704 
 H                     0.33506  -1.55277  -2.29938 
 C                     0.86026   2.11997  -4.5982 
 H                     1.13739   3.1575   -4.80748 
 H                     1.18968   1.52104  -5.45084 
 H                    -0.23153   2.05709  -4.56348 
 C                     2.10945  -0.75991  -4.1105 
 H                     1.95237  -1.81882  -3.88303 
 H                     1.77656  -0.60801  -5.14972 
 C                     3.83319   1.0591   -4.28863 
 H                     3.54388   1.30508  -5.32102 
 H                     4.90121   1.28796  -4.19952 
 C                    -3.26194   6.13965   2.1242 
 H                    -3.75849   7.11816   2.08521 
 H                    -4.06786   5.40084   2.21986 
 C                     3.60963  -0.43404  -4.05034 
 H                     3.99153  -0.70003  -3.05694 
 C                    -1.53265   7.07981   0.52064 
 H                    -0.63157   6.96848   1.13419 
 H                    -1.98453   8.04802   0.76721 
 H                    -1.21451   7.12832  -0.52384 
 C                    -2.38172   6.06903   3.3834 
 H                    -1.84946   5.10966   3.40352 
 H                    -1.60364   6.84108   3.34286 
 C                    -3.16654   6.19117   4.70368 
 H                    -2.47446   6.0142    5.54046 
 H                    -3.90534   5.37771   4.74563 
 C                    -3.89776   7.5259    4.96212 
 H                    -4.60198   7.70025   4.13616 
 C                    -2.93354   8.72138   5.02025 
 H                    -2.19294   8.58531   5.81925 
 H                    -3.47552   9.65162   5.2255 
 H                    -2.38807   8.85887   4.08103 
 C                    -4.722     7.43576   6.25657 
 H                    -4.0709    7.26527   7.12371 
 H                    -5.28097   8.36091   6.43813 
 H                    -5.44263   6.61092   6.21479 
 
 NAtoms=     75 NQM=        0 NQMF=       0 NMMI=     75 NMMIF=      0
                NMic=       0 NMicF=      0.
                    Isotopes and Nuclear Properties:
 (Nuclear quadrupole moments (NQMom) in fm**2, nuclear magnetic moments (NMagM)
  in nuclear magnetons)

  Atom         1           2           3           4           5           6           7           8           9          10
 IAtWgt=          16           1          16           1          12          12           1          12           1          12
 AtmWgt=  15.9949146   1.0078250  15.9949146   1.0078250  12.0000000  12.0000000   1.0078250  12.0000000   1.0078250  12.0000000
 NucSpn=           0           1           0           1           0           0           1           0           1           0
 AtZEff=   0.0000000   0.0000000   0.0000000   0.0000000   0.0000000   0.0000000   0.0000000   0.0000000   0.0000000   0.0000000
 NQMom=    0.0000000   0.0000000   0.0000000   0.0000000   0.0000000   0.0000000   0.0000000   0.0000000   0.0000000   0.0000000
 NMagM=    0.0000000   2.7928460   0.0000000   2.7928460   0.0000000   0.0000000   2.7928460   0.0000000   2.7928460   0.0000000

  Atom        11          12          13          14          15          16          17          18          19          20
 IAtWgt=           1          12           1          12           1           1          12          12           1           1
 AtmWgt=   1.0078250  12.0000000   1.0078250  12.0000000   1.0078250   1.0078250  12.0000000  12.0000000   1.0078250   1.0078250
 NucSpn=           1           0           1           0           1           1           0           0           1           1
 AtZEff=   0.0000000   0.0000000   0.0000000   0.0000000   0.0000000   0.0000000   0.0000000   0.0000000   0.0000000   0.0000000
 NQMom=    0.0000000   0.0000000   0.0000000   0.0000000   0.0000000   0.0000000   0.0000000   0.0000000   0.0000000   0.0000000
 NMagM=    2.7928460   0.0000000   2.7928460   0.0000000   2.7928460   2.7928460   0.0000000   0.0000000   2.7928460   2.7928460

  Atom        21          22          23          24          25          26          27          28          29          30
 IAtWgt=          12           1           1          12           1           1          12           1          12           1
 AtmWgt=  12.0000000   1.0078250   1.0078250  12.0000000   1.0078250   1.0078250  12.0000000   1.0078250  12.0000000   1.0078250
 NucSpn=           0           1           1           0           1           1           0           1           0           1
 AtZEff=   0.0000000   0.0000000   0.0000000   0.0000000   0.0000000   0.0000000   0.0000000   0.0000000   0.0000000   0.0000000
 NQMom=    0.0000000   0.0000000   0.0000000   0.0000000   0.0000000   0.0000000   0.0000000   0.0000000   0.0000000   0.0000000
 NMagM=    0.0000000   2.7928460   2.7928460   0.0000000   2.7928460   2.7928460   0.0000000   2.7928460   0.0000000   2.7928460

  Atom        31          32          33          34          35          36          37          38          39          40
 IAtWgt=          12           1           1           1          12          12           1           1          12           1
 AtmWgt=  12.0000000   1.0078250   1.0078250   1.0078250  12.0000000  12.0000000   1.0078250   1.0078250  12.0000000   1.0078250
 NucSpn=           0           1           1           1           0           0           1           1           0           1
 AtZEff=   0.0000000   0.0000000   0.0000000   0.0000000   0.0000000   0.0000000   0.0000000   0.0000000   0.0000000   0.0000000
 NQMom=    0.0000000   0.0000000   0.0000000   0.0000000   0.0000000   0.0000000   0.0000000   0.0000000   0.0000000   0.0000000
 NMagM=    0.0000000   2.7928460   2.7928460   2.7928460   0.0000000   0.0000000   2.7928460   2.7928460   0.0000000   2.7928460

  Atom        41          42          43          44          45          46          47          48          49          50
 IAtWgt=          12           1           1           1          12           1           1          12           1           1
 AtmWgt=  12.0000000   1.0078250   1.0078250   1.0078250  12.0000000   1.0078250   1.0078250  12.0000000   1.0078250   1.0078250
 NucSpn=           0           1           1           1           0           1           1           0           1           1
 AtZEff=   0.0000000   0.0000000   0.0000000   0.0000000   0.0000000   0.0000000   0.0000000   0.0000000   0.0000000   0.0000000
 NQMom=    0.0000000   0.0000000   0.0000000   0.0000000   0.0000000   0.0000000   0.0000000   0.0000000   0.0000000   0.0000000
 NMagM=    0.0000000   2.7928460   2.7928460   2.7928460   0.0000000   2.7928460   2.7928460   0.0000000   2.7928460   2.7928460

  Atom        51          52          53          54          55          56          57          58          59          60
 IAtWgt=          12           1           1          12           1          12           1           1           1          12
 AtmWgt=  12.0000000   1.0078250   1.0078250  12.0000000   1.0078250  12.0000000   1.0078250   1.0078250   1.0078250  12.0000000
 NucSpn=           0           1           1           0           1           0           1           1           1           0
 AtZEff=   0.0000000   0.0000000   0.0000000   0.0000000   0.0000000   0.0000000   0.0000000   0.0000000   0.0000000   0.0000000
 NQMom=    0.0000000   0.0000000   0.0000000   0.0000000   0.0000000   0.0000000   0.0000000   0.0000000   0.0000000   0.0000000
 NMagM=    0.0000000   2.7928460   2.7928460   0.0000000   2.7928460   0.0000000   2.7928460   2.7928460   2.7928460   0.0000000

  Atom        61          62          63          64          65          66          67          68          69          70
 IAtWgt=           1           1          12           1           1          12           1          12           1           1
 AtmWgt=   1.0078250   1.0078250  12.0000000   1.0078250   1.0078250  12.0000000   1.0078250  12.0000000   1.0078250   1.0078250
 NucSpn=           1           1           0           1           1           0           1           0           1           1
 AtZEff=   0.0000000   0.0000000   0.0000000   0.0000000   0.0000000   0.0000000   0.0000000   0.0000000   0.0000000   0.0000000
 NQMom=    0.0000000   0.0000000   0.0000000   0.0000000   0.0000000   0.0000000   0.0000000   0.0000000   0.0000000   0.0000000
 NMagM=    2.7928460   2.7928460   0.0000000   2.7928460   2.7928460   0.0000000   2.7928460   0.0000000   2.7928460   2.7928460

  Atom        71          72          73          74          75
 IAtWgt=           1          12           1           1           1
 AtmWgt=   1.0078250  12.0000000   1.0078250   1.0078250   1.0078250
 NucSpn=           1           0           1           1           1
 AtZEff=   0.0000000   0.0000000   0.0000000   0.0000000   0.0000000
 NQMom=    0.0000000   0.0000000   0.0000000   0.0000000   0.0000000
 NMagM=    2.7928460   0.0000000   2.7928460   2.7928460   2.7928460
 Leave Link  101 at Thu May 18 13:59:02 2017, MaxMem=   33554432 cpu:       9.0
 (Enter /scratch/michal/g09/l202.exe)
 Symmetry turned off by external request.
 Stoichiometry    C27H46O2
 Framework group  C1[X(C27H46O2)]
 Deg. of freedom   219
 Full point group                 C1      NOp   1
                          Input orientation:                          
 ---------------------------------------------------------------------
 Center     Atomic      Atomic             Coordinates (Angstroms)
 Number     Number       Type             X           Y           Z
 ---------------------------------------------------------------------
      1          8           0        0.000000    0.000000    0.000000
      2          1           0        0.966532    0.000000    0.000000
      3          8           0        4.366538   -1.252778   -4.945351
      4          1           0        4.093417   -1.055549   -5.852366
      5          6           0       -1.245823    4.104827   -0.724234
      6          6           0       -1.141025    2.570812   -0.498505
      7          1           0       -0.444347    2.446061    0.342639
      8          6           0       -0.532874    1.782762   -1.664971
      9          1           0       -1.192686    1.868793   -2.540527
     10          6           0        0.867214    2.341284   -2.025171
     11          1           0        1.519730    2.091289   -1.172027
     12          6           0       -1.923589    4.524080    0.626568
     13          1           0       -1.138890    4.430199    1.391418
     14          6           0        0.192935    4.609346   -0.956480
     15          1           0        0.776102    4.443003   -0.039326
     16          1           0        0.220749    5.686195   -1.152107
     17          6           0        1.494917    1.622645   -3.270749
     18          6           0       -2.523229    2.161003    0.030308
     19          1           0       -2.475356    1.243711    0.623687
     20          1           0       -3.221184    1.974358   -0.796028
     21          6           0        0.870030    3.884348   -2.137846
     22          1           0        0.369045    4.189725   -3.062224
     23          1           0        1.901712    4.245046   -2.222126
     24          6           0       -2.972911    3.389147    0.870044
     25          1           0       -3.971770    3.723590    0.565463
     26          1           0       -3.042907    3.143231    1.934296
     27          6           0       -0.448977    0.274658   -1.348234
     28          1           0       -1.462775   -0.141509   -1.368461
     29          6           0       -2.538531    5.939026    0.764320
     30          1           0       -3.324260    6.029063    0.000000
     31          6           0       -2.154197    4.474436   -1.918925
     32          1           0       -1.822314    4.014390   -2.853277
     33          1           0       -3.190178    4.161678   -1.756887
     34          1           0       -2.162212    5.558118   -2.078781
     35          6           0        1.284641    0.105703   -3.175676
     36          6           0        3.029289    1.904581   -3.289072
     37          1           0        3.425591    1.716512   -2.281484
     38          1           0        3.199845    2.966721   -3.494899
     39          6           0        0.414632   -0.466393   -2.327038
     40          1           0        0.335058   -1.552771   -2.299383
     41          6           0        0.860262    2.119973   -4.598199
     42          1           0        1.137392    3.157496   -4.807478
     43          1           0        1.189681    1.521041   -5.450843
     44          1           0       -0.231528    2.057093   -4.563480
     45          6           0        2.109449   -0.759914   -4.110504
     46          1           0        1.952368   -1.818825   -3.883027
     47          1           0        1.776559   -0.608012   -5.149716
     48          6           0        3.833187    1.059099   -4.288626
     49          1           0        3.543878    1.305083   -5.321024
     50          1           0        4.901206    1.287958   -4.199521
     51          6           0       -3.261938    6.139646    2.124196
     52          1           0       -3.758488    7.118164    2.085212
     53          1           0       -4.067863    5.400844    2.219856
     54          6           0        3.609630   -0.434039   -4.050338
     55          1           0        3.991527   -0.700033   -3.056940
     56          6           0       -1.532655    7.079811    0.520638
     57          1           0       -0.631574    6.968476    1.134194
     58          1           0       -1.984533    8.048021    0.767207
     59          1           0       -1.214506    7.128323   -0.523843
     60          6           0       -2.381720    6.069026    3.383397
     61          1           0       -1.849460    5.109657    3.403516
     62          1           0       -1.603642    6.841077    3.342857
     63          6           0       -3.166536    6.191169    4.703681
     64          1           0       -2.474455    6.014196    5.540459
     65          1           0       -3.905340    5.377705    4.745635
     66          6           0       -3.897756    7.525905    4.962115
     67          1           0       -4.601976    7.700253    4.136164
     68          6           0       -2.933538    8.721378    5.020249
     69          1           0       -2.192944    8.585307    5.819247
     70          1           0       -3.475521    9.651620    5.225497
     71          1           0       -2.388066    8.858874    4.081032
     72          6           0       -4.722000    7.435763    6.256567
     73          1           0       -4.070904    7.265266    7.123705
     74          1           0       -5.280969    8.360912    6.438131
     75          1           0       -5.442627    6.610923    6.214790
 ---------------------------------------------------------------------
 Rotational constants (GHZ):      0.4608253      0.0562504      0.0542410
 Leave Link  202 at Thu May 18 13:59:02 2017, MaxMem=   33554432 cpu:       0.1
 (Enter /scratch/michal/g09/l301.exe)
 Standard basis: 6-31G(d) (6D, 7F)
 Ernie: Thresh=  0.10000D-02 Tol=  0.10000D-05 Strict=F.
 AO basis set in the form of general basis input (Overlap normalization):
      1 0
 S   6 1.00       0.000000000000
      0.5484671660D+04  0.1831074430D-02
      0.8252349460D+03  0.1395017220D-01
      0.1880469580D+03  0.6844507810D-01
      0.5296450000D+02  0.2327143360D+00
      0.1689757040D+02  0.4701928980D+00
      0.5799635340D+01  0.3585208530D+00
 SP   3 1.00       0.000000000000
      0.1553961625D+02 -0.1107775495D+00  0.7087426823D-01
      0.3599933586D+01 -0.1480262627D+00  0.3397528391D+00
      0.1013761750D+01  0.1130767015D+01  0.7271585773D+00
 SP   1 1.00       0.000000000000
      0.2700058226D+00  0.1000000000D+01  0.1000000000D+01
 D   1 1.00       0.000000000000
      0.8000000000D+00  0.1000000000D+01
 ****
      2 0
 S   3 1.00       0.000000000000
      0.1873113696D+02  0.3349460434D-01
      0.2825394365D+01  0.2347269535D+00
      0.6401216923D+00  0.8137573261D+00
 S   1 1.00       0.000000000000
      0.1612777588D+00  0.1000000000D+01
 ****
      3 0
 S   6 1.00       0.000000000000
      0.5484671660D+04  0.1831074430D-02
      0.8252349460D+03  0.1395017220D-01
      0.1880469580D+03  0.6844507810D-01
      0.5296450000D+02  0.2327143360D+00
      0.1689757040D+02  0.4701928980D+00
      0.5799635340D+01  0.3585208530D+00
 SP   3 1.00       0.000000000000
      0.1553961625D+02 -0.1107775495D+00  0.7087426823D-01
      0.3599933586D+01 -0.1480262627D+00  0.3397528391D+00
      0.1013761750D+01  0.1130767015D+01  0.7271585773D+00
 SP   1 1.00       0.000000000000
      0.2700058226D+00  0.1000000000D+01  0.1000000000D+01
 D   1 1.00       0.000000000000
      0.8000000000D+00  0.1000000000D+01
 ****
      4 0
 S   3 1.00       0.000000000000
      0.1873113696D+02  0.3349460434D-01
      0.2825394365D+01  0.2347269535D+00
      0.6401216923D+00  0.8137573261D+00
 S   1 1.00       0.000000000000
      0.1612777588D+00  0.1000000000D+01
 ****
      5 0
 S   6 1.00       0.000000000000
      0.3047524880D+04  0.1834737132D-02
      0.4573695180D+03  0.1403732281D-01
      0.1039486850D+03  0.6884262226D-01
      0.2921015530D+02  0.2321844432D+00
      0.9286662960D+01  0.4679413484D+00
      0.3163926960D+01  0.3623119853D+00
 SP   3 1.00       0.000000000000
      0.7868272350D+01 -0.1193324198D+00  0.6899906659D-01
      0.1881288540D+01 -0.1608541517D+00  0.3164239610D+00
      0.5442492580D+00  0.1143456438D+01  0.7443082909D+00
 SP   1 1.00       0.000000000000
      0.1687144782D+00  0.1000000000D+01  0.1000000000D+01
 D   1 1.00       0.000000000000
      0.8000000000D+00  0.1000000000D+01
 ****
      6 0
 S   6 1.00       0.000000000000
      0.3047524880D+04  0.1834737132D-02
      0.4573695180D+03  0.1403732281D-01
      0.1039486850D+03  0.6884262226D-01
      0.2921015530D+02  0.2321844432D+00
      0.9286662960D+01  0.4679413484D+00
      0.3163926960D+01  0.3623119853D+00
 SP   3 1.00       0.000000000000
      0.7868272350D+01 -0.1193324198D+00  0.6899906659D-01
      0.1881288540D+01 -0.1608541517D+00  0.3164239610D+00
      0.5442492580D+00  0.1143456438D+01  0.7443082909D+00
 SP   1 1.00       0.000000000000
      0.1687144782D+00  0.1000000000D+01  0.1000000000D+01
 D   1 1.00       0.000000000000
      0.8000000000D+00  0.1000000000D+01
 ****
      7 0
 S   3 1.00       0.000000000000
      0.1873113696D+02  0.3349460434D-01
      0.2825394365D+01  0.2347269535D+00
      0.6401216923D+00  0.8137573261D+00
 S   1 1.00       0.000000000000
      0.1612777588D+00  0.1000000000D+01
 ****
      8 0
 S   6 1.00       0.000000000000
      0.3047524880D+04  0.1834737132D-02
      0.4573695180D+03  0.1403732281D-01
      0.1039486850D+03  0.6884262226D-01
      0.2921015530D+02  0.2321844432D+00
      0.9286662960D+01  0.4679413484D+00
      0.3163926960D+01  0.3623119853D+00
 SP   3 1.00       0.000000000000
      0.7868272350D+01 -0.1193324198D+00  0.6899906659D-01
      0.1881288540D+01 -0.1608541517D+00  0.3164239610D+00
      0.5442492580D+00  0.1143456438D+01  0.7443082909D+00
 SP   1 1.00       0.000000000000
      0.1687144782D+00  0.1000000000D+01  0.1000000000D+01
 D   1 1.00       0.000000000000
      0.8000000000D+00  0.1000000000D+01
 ****
      9 0
 S   3 1.00       0.000000000000
      0.1873113696D+02  0.3349460434D-01
      0.2825394365D+01  0.2347269535D+00
      0.6401216923D+00  0.8137573261D+00
 S   1 1.00       0.000000000000
      0.1612777588D+00  0.1000000000D+01
 ****
     10 0
 S   6 1.00       0.000000000000
      0.3047524880D+04  0.1834737132D-02
      0.4573695180D+03  0.1403732281D-01
      0.1039486850D+03  0.6884262226D-01
      0.2921015530D+02  0.2321844432D+00
      0.9286662960D+01  0.4679413484D+00
      0.3163926960D+01  0.3623119853D+00
 SP   3 1.00       0.000000000000
      0.7868272350D+01 -0.1193324198D+00  0.6899906659D-01
      0.1881288540D+01 -0.1608541517D+00  0.3164239610D+00
      0.5442492580D+00  0.1143456438D+01  0.7443082909D+00
 SP   1 1.00       0.000000000000
      0.1687144782D+00  0.1000000000D+01  0.1000000000D+01
 D   1 1.00       0.000000000000
      0.8000000000D+00  0.1000000000D+01
 ****
     11 0
 S   3 1.00       0.000000000000
      0.1873113696D+02  0.3349460434D-01
      0.2825394365D+01  0.2347269535D+00
      0.6401216923D+00  0.8137573261D+00
 S   1 1.00       0.000000000000
      0.1612777588D+00  0.1000000000D+01
 ****
     12 0
 S   6 1.00       0.000000000000
      0.3047524880D+04  0.1834737132D-02
      0.4573695180D+03  0.1403732281D-01
      0.1039486850D+03  0.6884262226D-01
      0.2921015530D+02  0.2321844432D+00
      0.9286662960D+01  0.4679413484D+00
      0.3163926960D+01  0.3623119853D+00
 SP   3 1.00       0.000000000000
      0.7868272350D+01 -0.1193324198D+00  0.6899906659D-01
      0.1881288540D+01 -0.1608541517D+00  0.3164239610D+00
      0.5442492580D+00  0.1143456438D+01  0.7443082909D+00
 SP   1 1.00       0.000000000000
      0.1687144782D+00  0.1000000000D+01  0.1000000000D+01
 D   1 1.00       0.000000000000
      0.8000000000D+00  0.1000000000D+01
 ****
     13 0
 S   3 1.00       0.000000000000
      0.1873113696D+02  0.3349460434D-01
      0.2825394365D+01  0.2347269535D+00
      0.6401216923D+00  0.8137573261D+00
 S   1 1.00       0.000000000000
      0.1612777588D+00  0.1000000000D+01
 ****
     14 0
 S   6 1.00       0.000000000000
      0.3047524880D+04  0.1834737132D-02
      0.4573695180D+03  0.1403732281D-01
      0.1039486850D+03  0.6884262226D-01
      0.2921015530D+02  0.2321844432D+00
      0.9286662960D+01  0.4679413484D+00
      0.3163926960D+01  0.3623119853D+00
 SP   3 1.00       0.000000000000
      0.7868272350D+01 -0.1193324198D+00  0.6899906659D-01
      0.1881288540D+01 -0.1608541517D+00  0.3164239610D+00
      0.5442492580D+00  0.1143456438D+01  0.7443082909D+00
 SP   1 1.00       0.000000000000
      0.1687144782D+00  0.1000000000D+01  0.1000000000D+01
 D   1 1.00       0.000000000000
      0.8000000000D+00  0.1000000000D+01
 ****
     15 0
 S   3 1.00       0.000000000000
      0.1873113696D+02  0.3349460434D-01
      0.2825394365D+01  0.2347269535D+00
      0.6401216923D+00  0.8137573261D+00
 S   1 1.00       0.000000000000
      0.1612777588D+00  0.1000000000D+01
 ****
     16 0
 S   3 1.00       0.000000000000
      0.1873113696D+02  0.3349460434D-01
      0.2825394365D+01  0.2347269535D+00
      0.6401216923D+00  0.8137573261D+00
 S   1 1.00       0.000000000000
      0.1612777588D+00  0.1000000000D+01
 ****
     17 0
 S   6 1.00       0.000000000000
      0.3047524880D+04  0.1834737132D-02
      0.4573695180D+03  0.1403732281D-01
      0.1039486850D+03  0.6884262226D-01
      0.2921015530D+02  0.2321844432D+00
      0.9286662960D+01  0.4679413484D+00
      0.3163926960D+01  0.3623119853D+00
 SP   3 1.00       0.000000000000
      0.7868272350D+01 -0.1193324198D+00  0.6899906659D-01
      0.1881288540D+01 -0.1608541517D+00  0.3164239610D+00
      0.5442492580D+00  0.1143456438D+01  0.7443082909D+00
 SP   1 1.00       0.000000000000
      0.1687144782D+00  0.1000000000D+01  0.1000000000D+01
 D   1 1.00       0.000000000000
      0.8000000000D+00  0.1000000000D+01
 ****
     18 0
 S   6 1.00       0.000000000000
      0.3047524880D+04  0.1834737132D-02
      0.4573695180D+03  0.1403732281D-01
      0.1039486850D+03  0.6884262226D-01
      0.2921015530D+02  0.2321844432D+00
      0.9286662960D+01  0.4679413484D+00
      0.3163926960D+01  0.3623119853D+00
 SP   3 1.00       0.000000000000
      0.7868272350D+01 -0.1193324198D+00  0.6899906659D-01
      0.1881288540D+01 -0.1608541517D+00  0.3164239610D+00
      0.5442492580D+00  0.1143456438D+01  0.7443082909D+00
 SP   1 1.00       0.000000000000
      0.1687144782D+00  0.1000000000D+01  0.1000000000D+01
 D   1 1.00       0.000000000000
      0.8000000000D+00  0.1000000000D+01
 ****
     19 0
 S   3 1.00       0.000000000000
      0.1873113696D+02  0.3349460434D-01
      0.2825394365D+01  0.2347269535D+00
      0.6401216923D+00  0.8137573261D+00
 S   1 1.00       0.000000000000
      0.1612777588D+00  0.1000000000D+01
 ****
     20 0
 S   3 1.00       0.000000000000
      0.1873113696D+02  0.3349460434D-01
      0.2825394365D+01  0.2347269535D+00
      0.6401216923D+00  0.8137573261D+00
 S   1 1.00       0.000000000000
      0.1612777588D+00  0.1000000000D+01
 ****
     21 0
 S   6 1.00       0.000000000000
      0.3047524880D+04  0.1834737132D-02
      0.4573695180D+03  0.1403732281D-01
      0.1039486850D+03  0.6884262226D-01
      0.2921015530D+02  0.2321844432D+00
      0.9286662960D+01  0.4679413484D+00
      0.3163926960D+01  0.3623119853D+00
 SP   3 1.00       0.000000000000
      0.7868272350D+01 -0.1193324198D+00  0.6899906659D-01
      0.1881288540D+01 -0.1608541517D+00  0.3164239610D+00
      0.5442492580D+00  0.1143456438D+01  0.7443082909D+00
 SP   1 1.00       0.000000000000
      0.1687144782D+00  0.1000000000D+01  0.1000000000D+01
 D   1 1.00       0.000000000000
      0.8000000000D+00  0.1000000000D+01
 ****
     22 0
 S   3 1.00       0.000000000000
      0.1873113696D+02  0.3349460434D-01
      0.2825394365D+01  0.2347269535D+00
      0.6401216923D+00  0.8137573261D+00
 S   1 1.00       0.000000000000
      0.1612777588D+00  0.1000000000D+01
 ****
     23 0
 S   3 1.00       0.000000000000
      0.1873113696D+02  0.3349460434D-01
      0.2825394365D+01  0.2347269535D+00
      0.6401216923D+00  0.8137573261D+00
 S   1 1.00       0.000000000000
      0.1612777588D+00  0.1000000000D+01
 ****
     24 0
 S   6 1.00       0.000000000000
      0.3047524880D+04  0.1834737132D-02
      0.4573695180D+03  0.1403732281D-01
      0.1039486850D+03  0.6884262226D-01
      0.2921015530D+02  0.2321844432D+00
      0.9286662960D+01  0.4679413484D+00
      0.3163926960D+01  0.3623119853D+00
 SP   3 1.00       0.000000000000
      0.7868272350D+01 -0.1193324198D+00  0.6899906659D-01
      0.1881288540D+01 -0.1608541517D+00  0.3164239610D+00
      0.5442492580D+00  0.1143456438D+01  0.7443082909D+00
 SP   1 1.00       0.000000000000
      0.1687144782D+00  0.1000000000D+01  0.1000000000D+01
 D   1 1.00       0.000000000000
      0.8000000000D+00  0.1000000000D+01
 ****
     25 0
 S   3 1.00       0.000000000000
      0.1873113696D+02  0.3349460434D-01
      0.2825394365D+01  0.2347269535D+00
      0.6401216923D+00  0.8137573261D+00
 S   1 1.00       0.000000000000
      0.1612777588D+00  0.1000000000D+01
 ****
     26 0
 S   3 1.00       0.000000000000
      0.1873113696D+02  0.3349460434D-01
      0.2825394365D+01  0.2347269535D+00
      0.6401216923D+00  0.8137573261D+00
 S   1 1.00       0.000000000000
      0.1612777588D+00  0.1000000000D+01
 ****
     27 0
 S   6 1.00       0.000000000000
      0.3047524880D+04  0.1834737132D-02
      0.4573695180D+03  0.1403732281D-01
      0.1039486850D+03  0.6884262226D-01
      0.2921015530D+02  0.2321844432D+00
      0.9286662960D+01  0.4679413484D+00
      0.3163926960D+01  0.3623119853D+00
 SP   3 1.00       0.000000000000
      0.7868272350D+01 -0.1193324198D+00  0.6899906659D-01
      0.1881288540D+01 -0.1608541517D+00  0.3164239610D+00
      0.5442492580D+00  0.1143456438D+01  0.7443082909D+00
 SP   1 1.00       0.000000000000
      0.1687144782D+00  0.1000000000D+01  0.1000000000D+01
 D   1 1.00       0.000000000000
      0.8000000000D+00  0.1000000000D+01
 ****
     28 0
 S   3 1.00       0.000000000000
      0.1873113696D+02  0.3349460434D-01
      0.2825394365D+01  0.2347269535D+00
      0.6401216923D+00  0.8137573261D+00
 S   1 1.00       0.000000000000
      0.1612777588D+00  0.1000000000D+01
 ****
     29 0
 S   6 1.00       0.000000000000
      0.3047524880D+04  0.1834737132D-02
      0.4573695180D+03  0.1403732281D-01
      0.1039486850D+03  0.6884262226D-01
      0.2921015530D+02  0.2321844432D+00
      0.9286662960D+01  0.4679413484D+00
      0.3163926960D+01  0.3623119853D+00
 SP   3 1.00       0.000000000000
      0.7868272350D+01 -0.1193324198D+00  0.6899906659D-01
      0.1881288540D+01 -0.1608541517D+00  0.3164239610D+00
      0.5442492580D+00  0.1143456438D+01  0.7443082909D+00
 SP   1 1.00       0.000000000000
      0.1687144782D+00  0.1000000000D+01  0.1000000000D+01
 D   1 1.00       0.000000000000
      0.8000000000D+00  0.1000000000D+01
 ****
     30 0
 S   3 1.00       0.000000000000
      0.1873113696D+02  0.3349460434D-01
      0.2825394365D+01  0.2347269535D+00
      0.6401216923D+00  0.8137573261D+00
 S   1 1.00       0.000000000000
      0.1612777588D+00  0.1000000000D+01
 ****
     31 0
 S   6 1.00       0.000000000000
      0.3047524880D+04  0.1834737132D-02
      0.4573695180D+03  0.1403732281D-01
      0.1039486850D+03  0.6884262226D-01
      0.2921015530D+02  0.2321844432D+00
      0.9286662960D+01  0.4679413484D+00
      0.3163926960D+01  0.3623119853D+00
 SP   3 1.00       0.000000000000
      0.7868272350D+01 -0.1193324198D+00  0.6899906659D-01
      0.1881288540D+01 -0.1608541517D+00  0.3164239610D+00
      0.5442492580D+00  0.1143456438D+01  0.7443082909D+00
 SP   1 1.00       0.000000000000
      0.1687144782D+00  0.1000000000D+01  0.1000000000D+01
 D   1 1.00       0.000000000000
      0.8000000000D+00  0.1000000000D+01
 ****
     32 0
 S   3 1.00       0.000000000000
      0.1873113696D+02  0.3349460434D-01
      0.2825394365D+01  0.2347269535D+00
      0.6401216923D+00  0.8137573261D+00
 S   1 1.00       0.000000000000
      0.1612777588D+00  0.1000000000D+01
 ****
     33 0
 S   3 1.00       0.000000000000
      0.1873113696D+02  0.3349460434D-01
      0.2825394365D+01  0.2347269535D+00
      0.6401216923D+00  0.8137573261D+00
 S   1 1.00       0.000000000000
      0.1612777588D+00  0.1000000000D+01
 ****
     34 0
 S   3 1.00       0.000000000000
      0.1873113696D+02  0.3349460434D-01
      0.2825394365D+01  0.2347269535D+00
      0.6401216923D+00  0.8137573261D+00
 S   1 1.00       0.000000000000
      0.1612777588D+00  0.1000000000D+01
 ****
     35 0
 S   6 1.00       0.000000000000
      0.3047524880D+04  0.1834737132D-02
      0.4573695180D+03  0.1403732281D-01
      0.1039486850D+03  0.6884262226D-01
      0.2921015530D+02  0.2321844432D+00
      0.9286662960D+01  0.4679413484D+00
      0.3163926960D+01  0.3623119853D+00
 SP   3 1.00       0.000000000000
      0.7868272350D+01 -0.1193324198D+00  0.6899906659D-01
      0.1881288540D+01 -0.1608541517D+00  0.3164239610D+00
      0.5442492580D+00  0.1143456438D+01  0.7443082909D+00
 SP   1 1.00       0.000000000000
      0.1687144782D+00  0.1000000000D+01  0.1000000000D+01
 D   1 1.00       0.000000000000
      0.8000000000D+00  0.1000000000D+01
 ****
     36 0
 S   6 1.00       0.000000000000
      0.3047524880D+04  0.1834737132D-02
      0.4573695180D+03  0.1403732281D-01
      0.1039486850D+03  0.6884262226D-01
      0.2921015530D+02  0.2321844432D+00
      0.9286662960D+01  0.4679413484D+00
      0.3163926960D+01  0.3623119853D+00
 SP   3 1.00       0.000000000000
      0.7868272350D+01 -0.1193324198D+00  0.6899906659D-01
      0.1881288540D+01 -0.1608541517D+00  0.3164239610D+00
      0.5442492580D+00  0.1143456438D+01  0.7443082909D+00
 SP   1 1.00       0.000000000000
      0.1687144782D+00  0.1000000000D+01  0.1000000000D+01
 D   1 1.00       0.000000000000
      0.8000000000D+00  0.1000000000D+01
 ****
     37 0
 S   3 1.00       0.000000000000
      0.1873113696D+02  0.3349460434D-01
      0.2825394365D+01  0.2347269535D+00
      0.6401216923D+00  0.8137573261D+00
 S   1 1.00       0.000000000000
      0.1612777588D+00  0.1000000000D+01
 ****
     38 0
 S   3 1.00       0.000000000000
      0.1873113696D+02  0.3349460434D-01
      0.2825394365D+01  0.2347269535D+00
      0.6401216923D+00  0.8137573261D+00
 S   1 1.00       0.000000000000
      0.1612777588D+00  0.1000000000D+01
 ****
     39 0
 S   6 1.00       0.000000000000
      0.3047524880D+04  0.1834737132D-02
      0.4573695180D+03  0.1403732281D-01
      0.1039486850D+03  0.6884262226D-01
      0.2921015530D+02  0.2321844432D+00
      0.9286662960D+01  0.4679413484D+00
      0.3163926960D+01  0.3623119853D+00
 SP   3 1.00       0.000000000000
      0.7868272350D+01 -0.1193324198D+00  0.6899906659D-01
      0.1881288540D+01 -0.1608541517D+00  0.3164239610D+00
      0.5442492580D+00  0.1143456438D+01  0.7443082909D+00
 SP   1 1.00       0.000000000000
      0.1687144782D+00  0.1000000000D+01  0.1000000000D+01
 D   1 1.00       0.000000000000
      0.8000000000D+00  0.1000000000D+01
 ****
     40 0
 S   3 1.00       0.000000000000
      0.1873113696D+02  0.3349460434D-01
      0.2825394365D+01  0.2347269535D+00
      0.6401216923D+00  0.8137573261D+00
 S   1 1.00       0.000000000000
      0.1612777588D+00  0.1000000000D+01
 ****
     41 0
 S   6 1.00       0.000000000000
      0.3047524880D+04  0.1834737132D-02
      0.4573695180D+03  0.1403732281D-01
      0.1039486850D+03  0.6884262226D-01
      0.2921015530D+02  0.2321844432D+00
      0.9286662960D+01  0.4679413484D+00
      0.3163926960D+01  0.3623119853D+00
 SP   3 1.00       0.000000000000
      0.7868272350D+01 -0.1193324198D+00  0.6899906659D-01
      0.1881288540D+01 -0.1608541517D+00  0.3164239610D+00
      0.5442492580D+00  0.1143456438D+01  0.7443082909D+00
 SP   1 1.00       0.000000000000
      0.1687144782D+00  0.1000000000D+01  0.1000000000D+01
 D   1 1.00       0.000000000000
      0.8000000000D+00  0.1000000000D+01
 ****
     42 0
 S   3 1.00       0.000000000000
      0.1873113696D+02  0.3349460434D-01
      0.2825394365D+01  0.2347269535D+00
      0.6401216923D+00  0.8137573261D+00
 S   1 1.00       0.000000000000
      0.1612777588D+00  0.1000000000D+01
 ****
     43 0
 S   3 1.00       0.000000000000
      0.1873113696D+02  0.3349460434D-01
      0.2825394365D+01  0.2347269535D+00
      0.6401216923D+00  0.8137573261D+00
 S   1 1.00       0.000000000000
      0.1612777588D+00  0.1000000000D+01
 ****
     44 0
 S   3 1.00       0.000000000000
      0.1873113696D+02  0.3349460434D-01
      0.2825394365D+01  0.2347269535D+00
      0.6401216923D+00  0.8137573261D+00
 S   1 1.00       0.000000000000
      0.1612777588D+00  0.1000000000D+01
 ****
     45 0
 S   6 1.00       0.000000000000
      0.3047524880D+04  0.1834737132D-02
      0.4573695180D+03  0.1403732281D-01
      0.1039486850D+03  0.6884262226D-01
      0.2921015530D+02  0.2321844432D+00
      0.9286662960D+01  0.4679413484D+00
      0.3163926960D+01  0.3623119853D+00
 SP   3 1.00       0.000000000000
      0.7868272350D+01 -0.1193324198D+00  0.6899906659D-01
      0.1881288540D+01 -0.1608541517D+00  0.3164239610D+00
      0.5442492580D+00  0.1143456438D+01  0.7443082909D+00
 SP   1 1.00       0.000000000000
      0.1687144782D+00  0.1000000000D+01  0.1000000000D+01
 D   1 1.00       0.000000000000
      0.8000000000D+00  0.1000000000D+01
 ****
     46 0
 S   3 1.00       0.000000000000
      0.1873113696D+02  0.3349460434D-01
      0.2825394365D+01  0.2347269535D+00
      0.6401216923D+00  0.8137573261D+00
 S   1 1.00       0.000000000000
      0.1612777588D+00  0.1000000000D+01
 ****
     47 0
 S   3 1.00       0.000000000000
      0.1873113696D+02  0.3349460434D-01
      0.2825394365D+01  0.2347269535D+00
      0.6401216923D+00  0.8137573261D+00
 S   1 1.00       0.000000000000
      0.1612777588D+00  0.1000000000D+01
 ****
     48 0
 S   6 1.00       0.000000000000
      0.3047524880D+04  0.1834737132D-02
      0.4573695180D+03  0.1403732281D-01
      0.1039486850D+03  0.6884262226D-01
      0.2921015530D+02  0.2321844432D+00
      0.9286662960D+01  0.4679413484D+00
      0.3163926960D+01  0.3623119853D+00
 SP   3 1.00       0.000000000000
      0.7868272350D+01 -0.1193324198D+00  0.6899906659D-01
      0.1881288540D+01 -0.1608541517D+00  0.3164239610D+00
      0.5442492580D+00  0.1143456438D+01  0.7443082909D+00
 SP   1 1.00       0.000000000000
      0.1687144782D+00  0.1000000000D+01  0.1000000000D+01
 D   1 1.00       0.000000000000
      0.8000000000D+00  0.1000000000D+01
 ****
     49 0
 S   3 1.00       0.000000000000
      0.1873113696D+02  0.3349460434D-01
      0.2825394365D+01  0.2347269535D+00
      0.6401216923D+00  0.8137573261D+00
 S   1 1.00       0.000000000000
      0.1612777588D+00  0.1000000000D+01
 ****
     50 0
 S   3 1.00       0.000000000000
      0.1873113696D+02  0.3349460434D-01
      0.2825394365D+01  0.2347269535D+00
      0.6401216923D+00  0.8137573261D+00
 S   1 1.00       0.000000000000
      0.1612777588D+00  0.1000000000D+01
 ****
     51 0
 S   6 1.00       0.000000000000
      0.3047524880D+04  0.1834737132D-02
      0.4573695180D+03  0.1403732281D-01
      0.1039486850D+03  0.6884262226D-01
      0.2921015530D+02  0.2321844432D+00
      0.9286662960D+01  0.4679413484D+00
      0.3163926960D+01  0.3623119853D+00
 SP   3 1.00       0.000000000000
      0.7868272350D+01 -0.1193324198D+00  0.6899906659D-01
      0.1881288540D+01 -0.1608541517D+00  0.3164239610D+00
      0.5442492580D+00  0.1143456438D+01  0.7443082909D+00
 SP   1 1.00       0.000000000000
      0.1687144782D+00  0.1000000000D+01  0.1000000000D+01
 D   1 1.00       0.000000000000
      0.8000000000D+00  0.1000000000D+01
 ****
     52 0
 S   3 1.00       0.000000000000
      0.1873113696D+02  0.3349460434D-01
      0.2825394365D+01  0.2347269535D+00
      0.6401216923D+00  0.8137573261D+00
 S   1 1.00       0.000000000000
      0.1612777588D+00  0.1000000000D+01
 ****
     53 0
 S   3 1.00       0.000000000000
      0.1873113696D+02  0.3349460434D-01
      0.2825394365D+01  0.2347269535D+00
      0.6401216923D+00  0.8137573261D+00
 S   1 1.00       0.000000000000
      0.1612777588D+00  0.1000000000D+01
 ****
     54 0
 S   6 1.00       0.000000000000
      0.3047524880D+04  0.1834737132D-02
      0.4573695180D+03  0.1403732281D-01
      0.1039486850D+03  0.6884262226D-01
      0.2921015530D+02  0.2321844432D+00
      0.9286662960D+01  0.4679413484D+00
      0.3163926960D+01  0.3623119853D+00
 SP   3 1.00       0.000000000000
      0.7868272350D+01 -0.1193324198D+00  0.6899906659D-01
      0.1881288540D+01 -0.1608541517D+00  0.3164239610D+00
      0.5442492580D+00  0.1143456438D+01  0.7443082909D+00
 SP   1 1.00       0.000000000000
      0.1687144782D+00  0.1000000000D+01  0.1000000000D+01
 D   1 1.00       0.000000000000
      0.8000000000D+00  0.1000000000D+01
 ****
     55 0
 S   3 1.00       0.000000000000
      0.1873113696D+02  0.3349460434D-01
      0.2825394365D+01  0.2347269535D+00
      0.6401216923D+00  0.8137573261D+00
 S   1 1.00       0.000000000000
      0.1612777588D+00  0.1000000000D+01
 ****
     56 0
 S   6 1.00       0.000000000000
      0.3047524880D+04  0.1834737132D-02
      0.4573695180D+03  0.1403732281D-01
      0.1039486850D+03  0.6884262226D-01
      0.2921015530D+02  0.2321844432D+00
      0.9286662960D+01  0.4679413484D+00
      0.3163926960D+01  0.3623119853D+00
 SP   3 1.00       0.000000000000
      0.7868272350D+01 -0.1193324198D+00  0.6899906659D-01
      0.1881288540D+01 -0.1608541517D+00  0.3164239610D+00
      0.5442492580D+00  0.1143456438D+01  0.7443082909D+00
 SP   1 1.00       0.000000000000
      0.1687144782D+00  0.1000000000D+01  0.1000000000D+01
 D   1 1.00       0.000000000000
      0.8000000000D+00  0.1000000000D+01
 ****
     57 0
 S   3 1.00       0.000000000000
      0.1873113696D+02  0.3349460434D-01
      0.2825394365D+01  0.2347269535D+00
      0.6401216923D+00  0.8137573261D+00
 S   1 1.00       0.000000000000
      0.1612777588D+00  0.1000000000D+01
 ****
     58 0
 S   3 1.00       0.000000000000
      0.1873113696D+02  0.3349460434D-01
      0.2825394365D+01  0.2347269535D+00
      0.6401216923D+00  0.8137573261D+00
 S   1 1.00       0.000000000000
      0.1612777588D+00  0.1000000000D+01
 ****
     59 0
 S   3 1.00       0.000000000000
      0.1873113696D+02  0.3349460434D-01
      0.2825394365D+01  0.2347269535D+00
      0.6401216923D+00  0.8137573261D+00
 S   1 1.00       0.000000000000
      0.1612777588D+00  0.1000000000D+01
 ****
     60 0
 S   6 1.00       0.000000000000
      0.3047524880D+04  0.1834737132D-02
      0.4573695180D+03  0.1403732281D-01
      0.1039486850D+03  0.6884262226D-01
      0.2921015530D+02  0.2321844432D+00
      0.9286662960D+01  0.4679413484D+00
      0.3163926960D+01  0.3623119853D+00
 SP   3 1.00       0.000000000000
      0.7868272350D+01 -0.1193324198D+00  0.6899906659D-01
      0.1881288540D+01 -0.1608541517D+00  0.3164239610D+00
      0.5442492580D+00  0.1143456438D+01  0.7443082909D+00
 SP   1 1.00       0.000000000000
      0.1687144782D+00  0.1000000000D+01  0.1000000000D+01
 D   1 1.00       0.000000000000
      0.8000000000D+00  0.1000000000D+01
 ****
     61 0
 S   3 1.00       0.000000000000
      0.1873113696D+02  0.3349460434D-01
      0.2825394365D+01  0.2347269535D+00
      0.6401216923D+00  0.8137573261D+00
 S   1 1.00       0.000000000000
      0.1612777588D+00  0.1000000000D+01
 ****
     62 0
 S   3 1.00       0.000000000000
      0.1873113696D+02  0.3349460434D-01
      0.2825394365D+01  0.2347269535D+00
      0.6401216923D+00  0.8137573261D+00
 S   1 1.00       0.000000000000
      0.1612777588D+00  0.1000000000D+01
 ****
     63 0
 S   6 1.00       0.000000000000
      0.3047524880D+04  0.1834737132D-02
      0.4573695180D+03  0.1403732281D-01
      0.1039486850D+03  0.6884262226D-01
      0.2921015530D+02  0.2321844432D+00
      0.9286662960D+01  0.4679413484D+00
      0.3163926960D+01  0.3623119853D+00
 SP   3 1.00       0.000000000000
      0.7868272350D+01 -0.1193324198D+00  0.6899906659D-01
      0.1881288540D+01 -0.1608541517D+00  0.3164239610D+00
      0.5442492580D+00  0.1143456438D+01  0.7443082909D+00
 SP   1 1.00       0.000000000000
      0.1687144782D+00  0.1000000000D+01  0.1000000000D+01
 D   1 1.00       0.000000000000
      0.8000000000D+00  0.1000000000D+01
 ****
     64 0
 S   3 1.00       0.000000000000
      0.1873113696D+02  0.3349460434D-01
      0.2825394365D+01  0.2347269535D+00
      0.6401216923D+00  0.8137573261D+00
 S   1 1.00       0.000000000000
      0.1612777588D+00  0.1000000000D+01
 ****
     65 0
 S   3 1.00       0.000000000000
      0.1873113696D+02  0.3349460434D-01
      0.2825394365D+01  0.2347269535D+00
      0.6401216923D+00  0.8137573261D+00
 S   1 1.00       0.000000000000
      0.1612777588D+00  0.1000000000D+01
 ****
     66 0
 S   6 1.00       0.000000000000
      0.3047524880D+04  0.1834737132D-02
      0.4573695180D+03  0.1403732281D-01
      0.1039486850D+03  0.6884262226D-01
      0.2921015530D+02  0.2321844432D+00
      0.9286662960D+01  0.4679413484D+00
      0.3163926960D+01  0.3623119853D+00
 SP   3 1.00       0.000000000000
      0.7868272350D+01 -0.1193324198D+00  0.6899906659D-01
      0.1881288540D+01 -0.1608541517D+00  0.3164239610D+00
      0.5442492580D+00  0.1143456438D+01  0.7443082909D+00
 SP   1 1.00       0.000000000000
      0.1687144782D+00  0.1000000000D+01  0.1000000000D+01
 D   1 1.00       0.000000000000
      0.8000000000D+00  0.1000000000D+01
 ****
     67 0
 S   3 1.00       0.000000000000
      0.1873113696D+02  0.3349460434D-01
      0.2825394365D+01  0.2347269535D+00
      0.6401216923D+00  0.8137573261D+00
 S   1 1.00       0.000000000000
      0.1612777588D+00  0.1000000000D+01
 ****
     68 0
 S   6 1.00       0.000000000000
      0.3047524880D+04  0.1834737132D-02
      0.4573695180D+03  0.1403732281D-01
      0.1039486850D+03  0.6884262226D-01
      0.2921015530D+02  0.2321844432D+00
      0.9286662960D+01  0.4679413484D+00
      0.3163926960D+01  0.3623119853D+00
 SP   3 1.00       0.000000000000
      0.7868272350D+01 -0.1193324198D+00  0.6899906659D-01
      0.1881288540D+01 -0.1608541517D+00  0.3164239610D+00
      0.5442492580D+00  0.1143456438D+01  0.7443082909D+00
 SP   1 1.00       0.000000000000
      0.1687144782D+00  0.1000000000D+01  0.1000000000D+01
 D   1 1.00       0.000000000000
      0.8000000000D+00  0.1000000000D+01
 ****
     69 0
 S   3 1.00       0.000000000000
      0.1873113696D+02  0.3349460434D-01
      0.2825394365D+01  0.2347269535D+00
      0.6401216923D+00  0.8137573261D+00
 S   1 1.00       0.000000000000
      0.1612777588D+00  0.1000000000D+01
 ****
     70 0
 S   3 1.00       0.000000000000
      0.1873113696D+02  0.3349460434D-01
      0.2825394365D+01  0.2347269535D+00
      0.6401216923D+00  0.8137573261D+00
 S   1 1.00       0.000000000000
      0.1612777588D+00  0.1000000000D+01
 ****
     71 0
 S   3 1.00       0.000000000000
      0.1873113696D+02  0.3349460434D-01
      0.2825394365D+01  0.2347269535D+00
      0.6401216923D+00  0.8137573261D+00
 S   1 1.00       0.000000000000
      0.1612777588D+00  0.1000000000D+01
 ****
     72 0
 S   6 1.00       0.000000000000
      0.3047524880D+04  0.1834737132D-02
      0.4573695180D+03  0.1403732281D-01
      0.1039486850D+03  0.6884262226D-01
      0.2921015530D+02  0.2321844432D+00
      0.9286662960D+01  0.4679413484D+00
      0.3163926960D+01  0.3623119853D+00
 SP   3 1.00       0.000000000000
      0.7868272350D+01 -0.1193324198D+00  0.6899906659D-01
      0.1881288540D+01 -0.1608541517D+00  0.3164239610D+00
      0.5442492580D+00  0.1143456438D+01  0.7443082909D+00
 SP   1 1.00       0.000000000000
      0.1687144782D+00  0.1000000000D+01  0.1000000000D+01
 D   1 1.00       0.000000000000
      0.8000000000D+00  0.1000000000D+01
 ****
     73 0
 S   3 1.00       0.000000000000
      0.1873113696D+02  0.3349460434D-01
      0.2825394365D+01  0.2347269535D+00
      0.6401216923D+00  0.8137573261D+00
 S   1 1.00       0.000000000000
      0.1612777588D+00  0.1000000000D+01
 ****
     74 0
 S   3 1.00       0.000000000000
      0.1873113696D+02  0.3349460434D-01
      0.2825394365D+01  0.2347269535D+00
      0.6401216923D+00  0.8137573261D+00
 S   1 1.00       0.000000000000
      0.1612777588D+00  0.1000000000D+01
 ****
     75 0
 S   3 1.00       0.000000000000
      0.1873113696D+02  0.3349460434D-01
      0.2825394365D+01  0.2347269535D+00
      0.6401216923D+00  0.8137573261D+00
 S   1 1.00       0.000000000000
      0.1612777588D+00  0.1000000000D+01
 ****

 AO basis set (Overlap normalization):
 Atom O1       Shell     1 S   6     bf    1 -     1          0.000000000000          0.000000000000          0.000000000000
      0.5484671660D+04  0.1831074430D-02
      0.8252349460D+03  0.1395017220D-01
      0.1880469580D+03  0.6844507810D-01
      0.5296450000D+02  0.2327143360D+00
      0.1689757040D+02  0.4701928980D+00
      0.5799635340D+01  0.3585208530D+00
 Atom O1       Shell     2 SP   3    bf    2 -     5          0.000000000000          0.000000000000          0.000000000000
      0.1553961625D+02 -0.1107775495D+00  0.7087426823D-01
      0.3599933586D+01 -0.1480262627D+00  0.3397528391D+00
      0.1013761750D+01  0.1130767015D+01  0.7271585773D+00
 Atom O1       Shell     3 SP   1    bf    6 -     9          0.000000000000          0.000000000000          0.000000000000
      0.2700058226D+00  0.1000000000D+01  0.1000000000D+01
 Atom O1       Shell     4 D   1     bf   10 -    15          0.000000000000          0.000000000000          0.000000000000
      0.8000000000D+00  0.1000000000D+01
 Atom H2       Shell     5 S   3     bf   16 -    16          1.826481477869          0.000000000000          0.000000000000
      0.1873113696D+02  0.3349460434D-01
      0.2825394365D+01  0.2347269535D+00
      0.6401216923D+00  0.8137573261D+00
 Atom H2       Shell     6 S   1     bf   17 -    17          1.826481477869          0.000000000000          0.000000000000
      0.1612777588D+00  0.1000000000D+01
 Atom O3       Shell     7 S   6     bf   18 -    18          8.251561838112         -2.367407948914         -9.345359587910
      0.5484671660D+04  0.1831074430D-02
      0.8252349460D+03  0.1395017220D-01
      0.1880469580D+03  0.6844507810D-01
      0.5296450000D+02  0.2327143360D+00
      0.1689757040D+02  0.4701928980D+00
      0.5799635340D+01  0.3585208530D+00
 Atom O3       Shell     8 SP   3    bf   19 -    22          8.251561838112         -2.367407948914         -9.345359587910
      0.1553961625D+02 -0.1107775495D+00  0.7087426823D-01
      0.3599933586D+01 -0.1480262627D+00  0.3397528391D+00
      0.1013761750D+01  0.1130767015D+01  0.7271585773D+00
 Atom O3       Shell     9 SP   1    bf   23 -    26          8.251561838112         -2.367407948914         -9.345359587910
      0.2700058226D+00  0.1000000000D+01  0.1000000000D+01
 Atom O3       Shell    10 D   1     bf   27 -    32          8.251561838112         -2.367407948914         -9.345359587910
      0.8000000000D+00  0.1000000000D+01
 Atom H4       Shell    11 S   3     bf   33 -    33          7.735437115493         -1.994698662122        -11.059369744199
      0.1873113696D+02  0.3349460434D-01
      0.2825394365D+01  0.2347269535D+00
      0.6401216923D+00  0.8137573261D+00
 Atom H4       Shell    12 S   1     bf   34 -    34          7.735437115493         -1.994698662122        -11.059369744199
      0.1612777588D+00  0.1000000000D+01
 Atom C5       Shell    13 S   6     bf   35 -    35         -2.354264223358          7.756998815080         -1.368604142891
      0.3047524880D+04  0.1834737132D-02
      0.4573695180D+03  0.1403732281D-01
      0.1039486850D+03  0.6884262226D-01
      0.2921015530D+02  0.2321844432D+00
      0.9286662960D+01  0.4679413484D+00
      0.3163926960D+01  0.3623119853D+00
 Atom C5       Shell    14 SP   3    bf   36 -    39         -2.354264223358          7.756998815080         -1.368604142891
      0.7868272350D+01 -0.1193324198D+00  0.6899906659D-01
      0.1881288540D+01 -0.1608541517D+00  0.3164239610D+00
      0.5442492580D+00  0.1143456438D+01  0.7443082909D+00
 Atom C5       Shell    15 SP   1    bf   40 -    43         -2.354264223358          7.756998815080         -1.368604142891
      0.1687144782D+00  0.1000000000D+01  0.1000000000D+01
 Atom C5       Shell    16 D   1     bf   44 -    49         -2.354264223358          7.756998815080         -1.368604142891
      0.8000000000D+00  0.1000000000D+01
 Atom C6       Shell    17 S   6     bf   50 -    50         -2.156224817468          4.858130203396         -0.942038266025
      0.3047524880D+04  0.1834737132D-02
      0.4573695180D+03  0.1403732281D-01
      0.1039486850D+03  0.6884262226D-01
      0.2921015530D+02  0.2321844432D+00
      0.9286662960D+01  0.4679413484D+00
      0.3163926960D+01  0.3623119853D+00
 Atom C6       Shell    18 SP   3    bf   51 -    54         -2.156224817468          4.858130203396         -0.942038266025
      0.7868272350D+01 -0.1193324198D+00  0.6899906659D-01
      0.1881288540D+01 -0.1608541517D+00  0.3164239610D+00
      0.5442492580D+00  0.1143456438D+01  0.7443082909D+00
 Atom C6       Shell    19 SP   1    bf   55 -    58         -2.156224817468          4.858130203396         -0.942038266025
      0.1687144782D+00  0.1000000000D+01  0.1000000000D+01
 Atom C6       Shell    20 D   1     bf   59 -    64         -2.156224817468          4.858130203396         -0.942038266025
      0.8000000000D+00  0.1000000000D+01
 Atom H7       Shell    21 S   3     bf   65 -    65         -0.839694799373          4.622384808517          0.647493777959
      0.1873113696D+02  0.3349460434D-01
      0.2825394365D+01  0.2347269535D+00
      0.6401216923D+00  0.8137573261D+00
 Atom H7       Shell    22 S   1     bf   66 -    66         -0.839694799373          4.622384808517          0.647493777959
      0.1612777588D+00  0.1000000000D+01
 Atom C8       Shell    23 S   6     bf   67 -    67         -1.006986565842          3.368931751143         -3.146339020224
      0.3047524880D+04  0.1834737132D-02
      0.4573695180D+03  0.1403732281D-01
      0.1039486850D+03  0.6884262226D-01
      0.2921015530D+02  0.2321844432D+00
      0.9286662960D+01  0.4679413484D+00
      0.3163926960D+01  0.3623119853D+00
 Atom C8       Shell    24 SP   3    bf   68 -    71         -1.006986565842          3.368931751143         -3.146339020224
      0.7868272350D+01 -0.1193324198D+00  0.6899906659D-01
      0.1881288540D+01 -0.1608541517D+00  0.3164239610D+00
      0.5442492580D+00  0.1143456438D+01  0.7443082909D+00
 Atom C8       Shell    25 SP   1    bf   72 -    75         -1.006986565842          3.368931751143         -3.146339020224
      0.1687144782D+00  0.1000000000D+01  0.1000000000D+01
 Atom C8       Shell    26 D   1     bf   76 -    81         -1.006986565842          3.368931751143         -3.146339020224
      0.8000000000D+00  0.1000000000D+01
 Atom H9       Shell    27 S   3     bf   82 -    82         -2.253849619068          3.531506647800         -4.800899809667
      0.1873113696D+02  0.3349460434D-01
      0.2825394365D+01  0.2347269535D+00
      0.6401216923D+00  0.8137573261D+00
 Atom H9       Shell    28 S   1     bf   83 -    83         -2.253849619068          3.531506647800         -4.800899809667
      0.1612777588D+00  0.1000000000D+01
 Atom C10      Shell    29 S   6     bf   84 -    84          1.638796505070          4.424385842766         -3.827018694543
      0.3047524880D+04  0.1834737132D-02
      0.4573695180D+03  0.1403732281D-01
      0.1039486850D+03  0.6884262226D-01
      0.2921015530D+02  0.2321844432D+00
      0.9286662960D+01  0.4679413484D+00
      0.3163926960D+01  0.3623119853D+00
 Atom C10      Shell    30 SP   3    bf   85 -    88          1.638796505070          4.424385842766         -3.827018694543
      0.7868272350D+01 -0.1193324198D+00  0.6899906659D-01
      0.1881288540D+01 -0.1608541517D+00  0.3164239610D+00
      0.5442492580D+00  0.1143456438D+01  0.7443082909D+00
 Atom C10      Shell    31 SP   1    bf   89 -    92          1.638796505070          4.424385842766         -3.827018694543
      0.1687144782D+00  0.1000000000D+01  0.1000000000D+01
 Atom C10      Shell    32 D   1     bf   93 -    98          1.638796505070          4.424385842766         -3.827018694543
      0.8000000000D+00  0.1000000000D+01
 Atom H11      Shell    33 S   3     bf   99 -    99          2.871873042396          3.951964381785         -2.214810182628
      0.1873113696D+02  0.3349460434D-01
      0.2825394365D+01  0.2347269535D+00
      0.6401216923D+00  0.8137573261D+00
 Atom H11      Shell    34 S   1     bf  100 -   100          2.871873042396          3.951964381785         -2.214810182628
      0.1612777588D+00  0.1000000000D+01
 Atom C12      Shell    35 S   6     bf  101 -   101         -3.635056780177          8.549272241060          1.184042547240
      0.3047524880D+04  0.1834737132D-02
      0.4573695180D+03  0.1403732281D-01
      0.1039486850D+03  0.6884262226D-01
      0.2921015530D+02  0.2321844432D+00
      0.9286662960D+01  0.4679413484D+00
      0.3163926960D+01  0.3623119853D+00
 Atom C12      Shell    36 SP   3    bf  102 -   105         -3.635056780177          8.549272241060          1.184042547240
      0.7868272350D+01 -0.1193324198D+00  0.6899906659D-01
      0.1881288540D+01 -0.1608541517D+00  0.3164239610D+00
      0.5442492580D+00  0.1143456438D+01  0.7443082909D+00
 Atom C12      Shell    37 SP   1    bf  106 -   109         -3.635056780177          8.549272241060          1.184042547240
      0.1687144782D+00  0.1000000000D+01  0.1000000000D+01
 Atom C12      Shell    38 D   1     bf  110 -   115         -3.635056780177          8.549272241060          1.184042547240
      0.8000000000D+00  0.1000000000D+01
 Atom H13      Shell    39 S   3     bf  116 -   116         -2.152189250619          8.371863523383          2.629399504388
      0.1873113696D+02  0.3349460434D-01
      0.2825394365D+01  0.2347269535D+00
      0.6401216923D+00  0.8137573261D+00
 Atom H13      Shell    40 S   1     bf  117 -   117         -2.152189250619          8.371863523383          2.629399504388
      0.1612777588D+00  0.1000000000D+01
 Atom C14      Shell    41 S   6     bf  118 -   118          0.364593479969          8.710402045246         -1.807486083062
      0.3047524880D+04  0.1834737132D-02
      0.4573695180D+03  0.1403732281D-01
      0.1039486850D+03  0.6884262226D-01
      0.2921015530D+02  0.2321844432D+00
      0.9286662960D+01  0.4679413484D+00
      0.3163926960D+01  0.3623119853D+00
 Atom C14      Shell    42 SP   3    bf  119 -   122          0.364593479969          8.710402045246         -1.807486083062
      0.7868272350D+01 -0.1193324198D+00  0.6899906659D-01
      0.1881288540D+01 -0.1608541517D+00  0.3164239610D+00
      0.5442492580D+00  0.1143456438D+01  0.7443082909D+00
 Atom C14      Shell    43 SP   1    bf  123 -   126          0.364593479969          8.710402045246         -1.807486083062
      0.1687144782D+00  0.1000000000D+01  0.1000000000D+01
 Atom C14      Shell    44 D   1     bf  127 -   132          0.364593479969          8.710402045246         -1.807486083062
      0.8000000000D+00  0.1000000000D+01
 Atom H15      Shell    45 S   3     bf  133 -   133          1.466619550883          8.396058461850         -0.074316201381
      0.1873113696D+02  0.3349460434D-01
      0.2825394365D+01  0.2347269535D+00
      0.6401216923D+00  0.8137573261D+00
 Atom H15      Shell    46 S   1     bf  134 -   134          1.466619550883          8.396058461850         -0.074316201381
      0.1612777588D+00  0.1000000000D+01
 Atom H16      Shell    47 S   3     bf  135 -   135          0.417155853307         10.745351401567         -2.177166138863
      0.1873113696D+02  0.3349460434D-01
      0.2825394365D+01  0.2347269535D+00
      0.6401216923D+00  0.8137573261D+00
 Atom H16      Shell    48 S   1     bf  136 -   136          0.417155853307         10.745351401567         -2.177166138863
      0.1612777588D+00  0.1000000000D+01
 Atom C17      Shell    49 S   6     bf  137 -   137          2.824982795429          3.066355284506         -6.180820728684
      0.3047524880D+04  0.1834737132D-02
      0.4573695180D+03  0.1403732281D-01
      0.1039486850D+03  0.6884262226D-01
      0.2921015530D+02  0.2321844432D+00
      0.9286662960D+01  0.4679413484D+00
      0.3163926960D+01  0.3623119853D+00
 Atom C17      Shell    50 SP   3    bf  138 -   141          2.824982795429          3.066355284506         -6.180820728684
      0.7868272350D+01 -0.1193324198D+00  0.6899906659D-01
      0.1881288540D+01 -0.1608541517D+00  0.3164239610D+00
      0.5442492580D+00  0.1143456438D+01  0.7443082909D+00
 Atom C17      Shell    51 SP   1    bf  142 -   145          2.824982795429          3.066355284506         -6.180820728684
      0.1687144782D+00  0.1000000000D+01  0.1000000000D+01
 Atom C17      Shell    52 D   1     bf  146 -   151          2.824982795429          3.066355284506         -6.180820728684
      0.8000000000D+00  0.1000000000D+01
 Atom C18      Shell    53 S   6     bf  152 -   152         -4.768212423062          4.083703596680          0.057273555074
      0.3047524880D+04  0.1834737132D-02
      0.4573695180D+03  0.1403732281D-01
      0.1039486850D+03  0.6884262226D-01
      0.2921015530D+02  0.2321844432D+00
      0.9286662960D+01  0.4679413484D+00
      0.3163926960D+01  0.3623119853D+00
 Atom C18      Shell    54 SP   3    bf  153 -   156         -4.768212423062          4.083703596680          0.057273555074
      0.7868272350D+01 -0.1193324198D+00  0.6899906659D-01
      0.1881288540D+01 -0.1608541517D+00  0.3164239610D+00
      0.5442492580D+00  0.1143456438D+01  0.7443082909D+00
 Atom C18      Shell    55 SP   1    bf  157 -   160         -4.768212423062          4.083703596680          0.057273555074
      0.1687144782D+00  0.1000000000D+01  0.1000000000D+01
 Atom C18      Shell    56 D   1     bf  161 -   166         -4.768212423062          4.083703596680          0.057273555074
      0.8000000000D+00  0.1000000000D+01
 Atom H19      Shell    57 S   3     bf  167 -   167         -4.677744165505          2.350273745375          1.178598189559
      0.1873113696D+02  0.3349460434D-01
      0.2825394365D+01  0.2347269535D+00
      0.6401216923D+00  0.8137573261D+00
 Atom H19      Shell    58 S   1     bf  168 -   168         -4.677744165505          2.350273745375          1.178598189559
      0.1612777588D+00  0.1000000000D+01
 Atom H20      Shell    59 S   3     bf  169 -   169         -6.087154903332          3.730995473635         -1.504274082629
      0.1873113696D+02  0.3349460434D-01
      0.2825394365D+01  0.2347269535D+00
      0.6401216923D+00  0.8137573261D+00
 Atom H20      Shell    60 S   1     bf  170 -   170         -6.087154903332          3.730995473635         -1.504274082629
      0.1612777588D+00  0.1000000000D+01
 Atom C21      Shell    61 S   6     bf  171 -   171          1.644117841579          7.340353849233         -4.039943359799
      0.3047524880D+04  0.1834737132D-02
      0.4573695180D+03  0.1403732281D-01
      0.1039486850D+03  0.6884262226D-01
      0.2921015530D+02  0.2321844432D+00
      0.9286662960D+01  0.4679413484D+00
      0.3163926960D+01  0.3623119853D+00
 Atom C21      Shell    62 SP   3    bf  172 -   175          1.644117841579          7.340353849233         -4.039943359799
      0.7868272350D+01 -0.1193324198D+00  0.6899906659D-01
      0.1881288540D+01 -0.1608541517D+00  0.3164239610D+00
      0.5442492580D+00  0.1143456438D+01  0.7443082909D+00
 Atom C21      Shell    63 SP   1    bf  176 -   179          1.644117841579          7.340353849233         -4.039943359799
      0.1687144782D+00  0.1000000000D+01  0.1000000000D+01
 Atom C21      Shell    64 D   1     bf  180 -   185          1.644117841579          7.340353849233         -4.039943359799
      0.8000000000D+00  0.1000000000D+01
 Atom H22      Shell    65 S   3     bf  186 -   186          0.697393375998          7.917433710276         -5.786764982111
      0.1873113696D+02  0.3349460434D-01
      0.2825394365D+01  0.2347269535D+00
      0.6401216923D+00  0.8137573261D+00
 Atom H22      Shell    66 S   1     bf  187 -   187          0.697393375998          7.917433710276         -5.786764982111
      0.1612777588D+00  0.1000000000D+01
 Atom H23      Shell    67 S   3     bf  188 -   188          3.593714995903          8.021974588269         -4.199208760182
      0.1873113696D+02  0.3349460434D-01
      0.2825394365D+01  0.2347269535D+00
      0.6401216923D+00  0.8137573261D+00
 Atom H23      Shell    68 S   1     bf  189 -   189          3.593714995903          8.021974588269         -4.199208760182
      0.1612777588D+00  0.1000000000D+01
 Atom C24      Shell    69 S   6     bf  190 -   190         -5.617988344436          6.404559956447          1.644145148122
      0.3047524880D+04  0.1834737132D-02
      0.4573695180D+03  0.1403732281D-01
      0.1039486850D+03  0.6884262226D-01
      0.2921015530D+02  0.2321844432D+00
      0.9286662960D+01  0.4679413484D+00
      0.3163926960D+01  0.3623119853D+00
 Atom C24      Shell    70 SP   3    bf  191 -   194         -5.617988344436          6.404559956447          1.644145148122
      0.7868272350D+01 -0.1193324198D+00  0.6899906659D-01
      0.1881288540D+01 -0.1608541517D+00  0.3164239610D+00
      0.5442492580D+00  0.1143456438D+01  0.7443082909D+00
 Atom C24      Shell    71 SP   1    bf  195 -   198         -5.617988344436          6.404559956447          1.644145148122
      0.1687144782D+00  0.1000000000D+01  0.1000000000D+01
 Atom C24      Shell    72 D   1     bf  199 -   204         -5.617988344436          6.404559956447          1.644145148122
      0.8000000000D+00  0.1000000000D+01
 Atom H25      Shell    73 S   3     bf  205 -   205         -7.505557392736          7.036565501227          1.068570567328
      0.1873113696D+02  0.3349460434D-01
      0.2825394365D+01  0.2347269535D+00
      0.6401216923D+00  0.8137573261D+00
 Atom H25      Shell    74 S   1     bf  206 -   206         -7.505557392736          7.036565501227          1.068570567328
      0.1612777588D+00  0.1000000000D+01
 Atom H26      Shell    75 S   3     bf  207 -   207         -5.750260953430          5.939846556081          3.655288773970
      0.1873113696D+02  0.3349460434D-01
      0.2825394365D+01  0.2347269535D+00
      0.6401216923D+00  0.8137573261D+00
 Atom H26      Shell    76 S   1     bf  208 -   208         -5.750260953430          5.939846556081          3.655288773970
      0.1612777588D+00  0.1000000000D+01
 Atom C27      Shell    77 S   6     bf  209 -   209         -0.848443853424          0.519028324617         -2.547792909661
      0.3047524880D+04  0.1834737132D-02
      0.4573695180D+03  0.1403732281D-01
      0.1039486850D+03  0.6884262226D-01
      0.2921015530D+02  0.2321844432D+00
      0.9286662960D+01  0.4679413484D+00
      0.3163926960D+01  0.3623119853D+00
 Atom C27      Shell    78 SP   3    bf  210 -   213         -0.848443853424          0.519028324617         -2.547792909661
      0.7868272350D+01 -0.1193324198D+00  0.6899906659D-01
      0.1881288540D+01 -0.1608541517D+00  0.3164239610D+00
      0.5442492580D+00  0.1143456438D+01  0.7443082909D+00
 Atom C27      Shell    79 SP   1    bf  214 -   217         -0.848443853424          0.519028324617         -2.547792909661
      0.1687144782D+00  0.1000000000D+01  0.1000000000D+01
 Atom C27      Shell    80 D   1     bf  218 -   223         -0.848443853424          0.519028324617         -2.547792909661
      0.8000000000D+00  0.1000000000D+01
 Atom H28      Shell    81 S   3     bf  224 -   224         -2.764243596011         -0.267413141955         -2.586016929275
      0.1873113696D+02  0.3349460434D-01
      0.2825394365D+01  0.2347269535D+00
      0.6401216923D+00  0.8137573261D+00
 Atom H28      Shell    82 S   1     bf  225 -   225         -2.764243596011         -0.267413141955         -2.586016929275
      0.1612777588D+00  0.1000000000D+01
 Atom C29      Shell    83 S   6     bf  226 -   226         -4.797127443875         11.223133221902          1.444355383401
      0.3047524880D+04  0.1834737132D-02
      0.4573695180D+03  0.1403732281D-01
      0.1039486850D+03  0.6884262226D-01
      0.2921015530D+02  0.2321844432D+00
      0.9286662960D+01  0.4679413484D+00
      0.3163926960D+01  0.3623119853D+00
 Atom C29      Shell    84 SP   3    bf  227 -   230         -4.797127443875         11.223133221902          1.444355383401
      0.7868272350D+01 -0.1193324198D+00  0.6899906659D-01
      0.1881288540D+01 -0.1608541517D+00  0.3164239610D+00
      0.5442492580D+00  0.1143456438D+01  0.7443082909D+00
 Atom C29      Shell    85 SP   1    bf  231 -   234         -4.797127443875         11.223133221902          1.444355383401
      0.1687144782D+00  0.1000000000D+01  0.1000000000D+01
 Atom C29      Shell    86 D   1     bf  235 -   240         -4.797127443875         11.223133221902          1.444355383401
      0.8000000000D+00  0.1000000000D+01
 Atom H30      Shell    87 S   3     bf  241 -   241         -6.281941183479         11.393277511071          0.000000000000
      0.1873113696D+02  0.3349460434D-01
      0.2825394365D+01  0.2347269535D+00
      0.6401216923D+00  0.8137573261D+00
 Atom H30      Shell    88 S   1     bf  242 -   242         -6.281941183479         11.393277511071          0.000000000000
      0.1612777588D+00  0.1000000000D+01
 Atom C31      Shell    89 S   6     bf  243 -   243         -4.070841799366          8.455458601330         -3.626241812479
      0.3047524880D+04  0.1834737132D-02
      0.4573695180D+03  0.1403732281D-01
      0.1039486850D+03  0.6884262226D-01
      0.2921015530D+02  0.2321844432D+00
      0.9286662960D+01  0.4679413484D+00
      0.3163926960D+01  0.3623119853D+00
 Atom C31      Shell    90 SP   3    bf  244 -   247         -4.070841799366          8.455458601330         -3.626241812479
      0.7868272350D+01 -0.1193324198D+00  0.6899906659D-01
      0.1881288540D+01 -0.1608541517D+00  0.3164239610D+00
      0.5442492580D+00  0.1143456438D+01  0.7443082909D+00
 Atom C31      Shell    91 SP   1    bf  248 -   251         -4.070841799366          8.455458601330         -3.626241812479
      0.1687144782D+00  0.1000000000D+01  0.1000000000D+01
 Atom C31      Shell    92 D   1     bf  252 -   257         -4.070841799366          8.455458601330         -3.626241812479
      0.8000000000D+00  0.1000000000D+01
 Atom H32      Shell    93 S   3     bf  258 -   258         -3.443674085767          7.586097066985         -5.391912961638
      0.1873113696D+02  0.3349460434D-01
      0.2825394365D+01  0.2347269535D+00
      0.6401216923D+00  0.8137573261D+00
 Atom H32      Shell    94 S   1     bf  259 -   259         -3.443674085767          7.586097066985         -5.391912961638
      0.1612777588D+00  0.1000000000D+01
 Atom H33      Shell    95 S   3     bf  260 -   260         -6.028563245383          7.864432051200         -3.320035276427
      0.1873113696D+02  0.3349460434D-01
      0.2825394365D+01  0.2347269535D+00
      0.6401216923D+00  0.8137573261D+00
 Atom H33      Shell    96 S   1     bf  261 -   261         -6.028563245383          7.864432051200         -3.320035276427
      0.1612777588D+00  0.1000000000D+01
 Atom H34      Shell    97 S   3     bf  262 -   262         -4.085988483444         10.503321646844         -3.928326855835
      0.1873113696D+02  0.3349460434D-01
      0.2825394365D+01  0.2347269535D+00
      0.6401216923D+00  0.8137573261D+00
 Atom H34      Shell    98 S   1     bf  263 -   263         -4.085988483444         10.503321646844         -3.928326855835
      0.1612777588D+00  0.1000000000D+01
 Atom C35      Shell    99 S   6     bf  264 -   264          2.427619517898          0.199749872603         -6.001157114196
      0.3047524880D+04  0.1834737132D-02
      0.4573695180D+03  0.1403732281D-01
      0.1039486850D+03  0.6884262226D-01
      0.2921015530D+02  0.2321844432D+00
      0.9286662960D+01  0.4679413484D+00
      0.3163926960D+01  0.3623119853D+00
 Atom C35      Shell   100 SP   3    bf  265 -   268          2.427619517898          0.199749872603         -6.001157114196
      0.7868272350D+01 -0.1193324198D+00  0.6899906659D-01
      0.1881288540D+01 -0.1608541517D+00  0.3164239610D+00
      0.5442492580D+00  0.1143456438D+01  0.7443082909D+00
 Atom C35      Shell   101 SP   1    bf  269 -   272          2.427619517898          0.199749872603         -6.001157114196
      0.1687144782D+00  0.1000000000D+01  0.1000000000D+01
 Atom C35      Shell   102 D   1     bf  273 -   278          2.427619517898          0.199749872603         -6.001157114196
      0.8000000000D+00  0.1000000000D+01
 Atom C36      Shell   103 S   6     bf  279 -   279          5.724527059795          3.599137394966         -6.215446161719
      0.3047524880D+04  0.1834737132D-02
      0.4573695180D+03  0.1403732281D-01
      0.1039486850D+03  0.6884262226D-01
      0.2921015530D+02  0.2321844432D+00
      0.9286662960D+01  0.4679413484D+00
      0.3163926960D+01  0.3623119853D+00
 Atom C36      Shell   104 SP   3    bf  280 -   283          5.724527059795          3.599137394966         -6.215446161719
      0.7868272350D+01 -0.1193324198D+00  0.6899906659D-01
      0.1881288540D+01 -0.1608541517D+00  0.3164239610D+00
      0.5442492580D+00  0.1143456438D+01  0.7443082909D+00
 Atom C36      Shell   105 SP   1    bf  284 -   287          5.724527059795          3.599137394966         -6.215446161719
      0.1687144782D+00  0.1000000000D+01  0.1000000000D+01
 Atom C36      Shell   106 D   1     bf  288 -   293          5.724527059795          3.599137394966         -6.215446161719
      0.8000000000D+00  0.1000000000D+01
 Atom H37      Shell   107 S   3     bf  294 -   294          6.473428644305          3.243737716093         -4.311380163328
      0.1873113696D+02  0.3349460434D-01
      0.2825394365D+01  0.2347269535D+00
      0.6401216923D+00  0.8137573261D+00
 Atom H37      Shell   108 S   1     bf  295 -   295          6.473428644305          3.243737716093         -4.311380163328
      0.1612777588D+00  0.1000000000D+01
 Atom H38      Shell   109 S   3     bf  296 -   296          6.046831454677          5.606289975913         -6.604402898062
      0.1873113696D+02  0.3349460434D-01
      0.2825394365D+01  0.2347269535D+00
      0.6401216923D+00  0.8137573261D+00
 Atom H38      Shell   110 S   1     bf  297 -   297          6.046831454677          5.606289975913         -6.604402898062
      0.1612777588D+00  0.1000000000D+01
 Atom C39      Shell   111 S   6     bf  298 -   298          0.783540037759         -0.881355909569         -4.397464086181
      0.3047524880D+04  0.1834737132D-02
      0.4573695180D+03  0.1403732281D-01
      0.1039486850D+03  0.6884262226D-01
      0.2921015530D+02  0.2321844432D+00
      0.9286662960D+01  0.4679413484D+00
      0.3163926960D+01  0.3623119853D+00
 Atom C39      Shell   112 SP   3    bf  299 -   302          0.783540037759         -0.881355909569         -4.397464086181
      0.7868272350D+01 -0.1193324198D+00  0.6899906659D-01
      0.1881288540D+01 -0.1608541517D+00  0.3164239610D+00
      0.5442492580D+00  0.1143456438D+01  0.7443082909D+00
 Atom C39      Shell   113 SP   1    bf  303 -   306          0.783540037759         -0.881355909569         -4.397464086181
      0.1687144782D+00  0.1000000000D+01  0.1000000000D+01
 Atom C39      Shell   114 D   1     bf  307 -   312          0.783540037759         -0.881355909569         -4.397464086181
      0.8000000000D+00  0.1000000000D+01
 Atom H40      Shell   115 S   3     bf  313 -   313          0.633167480687         -2.934312050471         -4.345203558798
[...]
 1520 Fit      -0.002666
 1521 Fit       0.001832
 1522 Fit       0.000937
 1523 Fit      -0.000301
 1524 Fit      -0.002131
 1525 Fit       0.001443
 1526 Fit      -0.000514
 1527 Fit      -0.001592
 1528 Fit      -0.000204
 1529 Fit      -0.002581
 1530 Fit      -0.000691
 1531 Fit      -0.001441
 1532 Fit       0.000669
 1533 Fit       0.001758
 1534 Fit      -0.002216
 1535 Fit       0.000074
 1536 Fit       0.001580
 1537 Fit       0.002121
 1538 Fit       0.002103
 1539 Fit      -0.001898
 1540 Fit       0.000001
 1541 Fit       0.000860
 1542 Fit       0.000623
 1543 Fit      -0.001167
 1544 Fit      -0.000384
 1545 Fit      -0.001171
 1546 Fit      -0.002020
 1547 Fit       0.001697
 1548 Fit       0.000997
 1549 Fit       0.000226
 1550 Fit      -0.000795
 1551 Fit       0.002416
 1552 Fit       0.002010
 1553 Fit      -0.003820
 1554 Fit      -0.004203
 1555 Fit      -0.003448
 1556 Fit      -0.003609
 1557 Fit      -0.003970
 1558 Fit      -0.004014
 1559 Fit      -0.003467
 1560 Fit      -0.004463
 1561 Fit      -0.002403
 1562 Fit      -0.001018
 1563 Fit       0.000642
 1564 Fit      -0.000882
 1565 Fit      -0.002823
 1566 Fit      -0.003425
 1567 Fit      -0.002310
 1568 Fit      -0.000272
 1569 Fit       0.001540
 1570 Fit       0.000274
 1571 Fit      -0.002326
 1572 Fit      -0.003227
 1573 Fit      -0.001214
 1574 Fit       0.000863
 1575 Fit      -0.002920
 1576 Fit      -0.001451
 1577 Fit      -0.002984
 1578 Fit      -0.001258
 1579 Fit       0.000620
 1580 Fit       0.000670
 1581 Fit      -0.000882
 1582 Fit      -0.003365
 1583 Fit       0.002035
 1584 Fit       0.001239
 1585 Fit      -0.000615
 1586 Fit       0.001132
 1587 Fit      -0.000692
 1588 Fit      -0.002997
 1589 Fit      -0.003175
 1590 Fit      -0.001211
 1591 Fit      -0.000477
 1592 Fit      -0.001448
 1593 Fit      -0.003843
 1594 Fit      -0.002222
 1595 Fit      -0.000200
 1596 Fit       0.000873
 1597 Fit       0.000690
 1598 Fit      -0.001869
 1599 Fit       0.000073
 1600 Fit       0.001137
 1601 Fit      -0.000840
 1602 Fit      -0.019248
 1603 Fit      -0.009812
 1604 Fit      -0.013504
 1605 Fit      -0.019834
 1606 Fit      -0.023259
 1607 Fit      -0.023028
 1608 Fit      -0.016171
 1609 Fit      -0.024074
 1610 Fit      -0.024384
 1611 Fit      -0.020407
 1612 Fit      -0.012081
 1613 Fit      -0.021046
 1614 Fit      -0.022399
 1615 Fit      -0.019969
 1616 Fit      -0.013102
 1617 Fit      -0.015683
 1618 Fit      -0.015730
 1619 Fit      -0.012394
 1620 Fit      -0.005767
 1621 Fit       0.002113
 1622 Fit       0.010710
 1623 Fit       0.009895
 1624 Fit       0.003729
 1625 Fit      -0.002323
 1626 Fit       0.006715
 1627 Fit       0.015460
 1628 Fit       0.016215
 1629 Fit       0.005335
 1630 Fit       0.011750
 1631 Fit       0.016960
 1632 Fit       0.005428
 1633 Fit       0.011879
 1634 Fit      -0.013700
 1635 Fit      -0.014639
 1636 Fit      -0.018048
 1637 Fit      -0.017691
 1638 Fit      -0.019598
 1639 Fit      -0.018468
 1640 Fit      -0.022595
 1641 Fit      -0.023886
 1642 Fit      -0.022985
 1643 Fit      -0.020325
 1644 Fit      -0.015027
 1645 Fit      -0.015931
 1646 Fit      -0.020703
 1647 Fit      -0.023092
 1648 Fit      -0.023780
 1649 Fit      -0.022976
 1650 Fit      -0.015326
 1651 Fit      -0.010190
 1652 Fit      -0.006336
 1653 Fit      -0.012732
 1654 Fit      -0.016454
 1655 Fit      -0.017997
 1656 Fit      -0.017715
 1657 Fit      -0.004818
 1658 Fit      -0.002767
 1659 Fit      -0.006496
 1660 Fit      -0.007198
 1661 Fit       0.002922
 1662 Fit       0.008370
 1663 Fit       0.015348
 1664 Fit       0.018919
 1665 Fit       0.012013
 1666 Fit       0.005841
 1667 Fit       0.001735
 1668 Fit       0.000625
 1669 Fit       0.012601
 1670 Fit       0.017827
 1671 Fit       0.022474
 1672 Fit       0.021266
 1673 Fit       0.015806
 1674 Fit       0.011744
 1675 Fit       0.018377
 1676 Fit      -0.005528
 1677 Fit      -0.003516
 1678 Fit      -0.012877
 1679 Fit       0.000751
 1680 Fit       0.004712
 1681 Fit       0.005918
 1682 Fit       0.004632
 1683 Fit       0.008769
 1684 Fit       0.010503
 1685 Fit       0.007245
 1686 Fit       0.016943
 1687 Fit       0.001273
 1688 Fit      -0.003541
 1689 Fit      -0.000088
 1690 Fit       0.000519
 1691 Fit       0.003040
 1692 Fit       0.001571
 1693 Fit       0.002719
 1694 Fit       0.002061
 1695 Fit       0.002109
 1696 Fit       0.003605
 1697 Fit       0.002360
 1698 Fit       0.004392
 1699 Fit       0.004340
 1700 Fit       0.002654
 1701 Fit       0.000953
 1702 Fit       0.006219
 1703 Fit       0.001790
 1704 Fit       0.001613
 1705 Fit       0.003624
 1706 Fit       0.003449
 1707 Fit       0.003784
 1708 Fit       0.004459
 1709 Fit       0.004684
 1710 Fit       0.005590
 1711 Fit       0.005028
 1712 Fit      -0.005888
 1713 Fit      -0.003779
 1714 Fit      -0.004882
 1715 Fit      -0.003733
 1716 Fit      -0.012679
 1717 Fit      -0.008362
 1718 Fit      -0.013793
 1719 Fit      -0.005964
 1720 Fit      -0.007377
 1721 Fit      -0.012537
 1722 Fit      -0.005863
 1723 Fit      -0.006985
 1724 Fit      -0.011798
 1725 Fit      -0.005555
 1726 Fit      -0.001476
 1727 Fit      -0.002829
 1728 Fit       0.002720
 1729 Fit       0.000900
 1730 Fit      -0.000127
 1731 Fit      -0.000752
 1732 Fit       0.003015
 1733 Fit       0.002138
 1734 Fit       0.001942
 1735 Fit       0.003378
 1736 Fit       0.003952
 1737 Fit       0.005096
 1738 Fit       0.004976
 1739 Fit       0.006808
 1740 Fit       0.006081
 1741 Fit       0.005386
 1742 Fit       0.006033
 1743 Fit       0.004750
 1744 Fit       0.007124
 1745 Fit       0.006535
 1746 Fit       0.005193
 1747 Fit       0.003799
 1748 Fit       0.008310
 1749 Fit       0.006491
 1750 Fit       0.004981
 1751 Fit       0.006826
 1752 Fit       0.009542
 1753 Fit      -0.002768
 1754 Fit      -0.004244
 1755 Fit      -0.004104
 1756 Fit      -0.001961
 1757 Fit       0.000009
 1758 Fit      -0.001676
 1759 Fit       0.001622
 1760 Fit       0.001132
 1761 Fit      -0.000261
 1762 Fit       0.002700
 1763 Fit       0.001913
 1764 Fit      -0.001423
 1765 Fit      -0.002031
 1766 Fit      -0.002699
 1767 Fit      -0.001889
 1768 Fit      -0.003149
 1769 Fit      -0.004680
 1770 Fit      -0.006275
 1771 Fit      -0.005166
 1772 Fit      -0.005036
 1773 Fit       0.002748
 1774 Fit      -0.010560
 1775 Fit      -0.002154
 1776 Fit      -0.003476
 1777 Fit      -0.005750
 1778 Fit       0.001829
 1779 Fit       0.001350
 1780 Fit       0.000647
 1781 Fit       0.000524
 1782 Fit       0.004444
 1783 Fit       0.003213
 1784 Fit       0.002263
 1785 Fit       0.003622
 1786 Fit       0.000911
 1787 Fit       0.000972
 1788 Fit       0.001320
 1789 Fit       0.001356
 1790 Fit       0.001539
 1791 Fit       0.000662
 1792 Fit       0.000303
 1793 Fit       0.004167
 1794 Fit       0.000781
 1795 Fit       0.000551
 1796 Fit       0.001438
 1797 Fit       0.001957
 1798 Fit       0.002563
 1799 Fit       0.005652
 1800 Fit       0.005721
 1801 Fit       0.003459
 1802 Fit       0.003981
 1803 Fit       0.007254
 1804 Fit       0.006223
 1805 Fit       0.002574
 1806 Fit       0.003274
 1807 Fit       0.001763
 1808 Fit       0.002646
 1809 Fit       0.003019
 1810 Fit       0.001275
 1811 Fit       0.002159
 1812 Fit       0.002690
 1813 Fit       0.003199
 1814 Fit       0.002097
 1815 Fit       0.000902
 1816 Fit       0.004671
 1817 Fit       0.004308
 1818 Fit       0.003319
 1819 Fit       0.001933
 1820 Fit       0.003159
 1821 Fit       0.001943
 1822 Fit       0.006300
 1823 Fit       0.009271
 1824 Fit       0.008566
 1825 Fit       0.012660
 1826 Fit       0.007326
 1827 Fit       0.006813
 1828 Fit       0.006783
 1829 Fit       0.008560
 1830 Fit       0.006294
 1831 Fit       0.006090
 1832 Fit       0.006623
 1833 Fit       0.006524
 1834 Fit       0.006778
 1835 Fit       0.007843
 1836 Fit       0.007375
 1837 Fit       0.008266
 1838 Fit       0.009166
 1839 Fit       0.008001
 1840 Fit       0.009099
 1841 Fit       0.010336
 1842 Fit       0.009465
 1843 Fit       0.001252
 1844 Fit       0.006807
 1845 Fit       0.001754
 1846 Fit       0.000720
 1847 Fit       0.000317
 1848 Fit      -0.001133
 1849 Fit      -0.000210
 1850 Fit      -0.005825
 1851 Fit      -0.003105
 1852 Fit      -0.001437
 1853 Fit       0.000080
 1854 Fit       0.000514
 1855 Fit       0.001563
 1856 Fit       0.002144
 1857 Fit       0.002099
 1858 Fit       0.001756
 1859 Fit       0.002617
 1860 Fit       0.003691
 1861 Fit       0.004548
 1862 Fit       0.002503
 1863 Fit       0.004519
 1864 Fit       0.007043
 1865 Fit       0.005538
 1866 Fit       0.006057
 1867 Fit       0.009683
 1868 Fit       0.005289
 1869 Fit       0.005205
 1870 Fit       0.005597
 1871 Fit       0.007971
 1872 Fit       0.006258
 1873 Fit       0.006485
 1874 Fit       0.009589
 1875 Fit       0.008575
 1876 Fit       0.007953
 1877 Fit       0.007258
 1878 Fit       0.009096
 1879 Fit       0.008409
 1880 Fit       0.007543
 1881 Fit       0.006365
 1882 Fit       0.007722
 1883 Fit       0.006494
 1884 Fit       0.009395
 1885 Fit       0.015247
 1886 Fit       0.010163
 1887 Fit       0.007781
 1888 Fit       0.008268
 1889 Fit       0.011853
 1890 Fit       0.016982
 1891 Fit       0.011364
 1892 Fit       0.007151
 1893 Fit       0.007032
 1894 Fit       0.005907
 1895 Fit       0.003185
 1896 Fit       0.005692
 1897 Fit       0.006064
 1898 Fit       0.005783
 1899 Fit       0.004870
 1900 Fit       0.005419
 1901 Fit       0.001299
 1902 Fit       0.003298
 1903 Fit       0.005800
 1904 Fit       0.001653
 1905 Fit       0.003092
 1906 Fit      -0.000703
 1907 Fit       0.002506
 1908 Fit      -0.001802
 1909 Fit      -0.009430
 1910 Fit       0.002942
 1911 Fit       0.003327
 1912 Fit       0.001259
 1913 Fit      -0.004032
 1914 Fit       0.002798
 1915 Fit       0.000256
 1916 Fit      -0.007567
 1917 Fit       0.003570
 1918 Fit       0.003357
 1919 Fit       0.007671
 1920 Fit       0.007099
 1921 Fit       0.007463
 1922 Fit       0.023496
 1923 Fit       0.012593
 1924 Fit       0.012348
 1925 Fit       0.018304
 1926 Fit       0.007355
 1927 Fit       0.005593
 1928 Fit       0.007522
 1929 Fit       0.004269
 1930 Fit       0.006006
 1931 Fit       0.007339
 1932 Fit       0.008687
 1933 Fit       0.010110
 1934 Fit       0.013198
 1935 Fit       0.011331
 1936 Fit       0.013045
 1937 Fit       0.017691
 1938 Fit       0.024940
 1939 Fit       0.016407
 1940 Fit       0.005543
 1941 Fit       0.002761
 1942 Fit       0.005145
 1943 Fit      -0.000922
 1944 Fit       0.000917
 1945 Fit       0.004084
 1946 Fit       0.005756
 1947 Fit      -0.005354
 1948 Fit      -0.000286
 1949 Fit       0.003448
 1950 Fit       0.005302
 1951 Fit       0.006869
 1952 Fit      -0.008698
 1953 Fit      -0.000139
 1954 Fit       0.003603
 1955 Fit       0.005476
 1956 Fit      -0.001154
 1957 Fit      -0.000519
 1958 Fit       0.002244
 1959 Fit       0.001817
 1960 Fit       0.000884
 1961 Fit      -0.000692
 1962 Fit       0.001393
 1963 Fit       0.000324
 1964 Fit      -0.000410
 1965 Fit      -0.000020
 1966 Fit      -0.001014
 1967 Fit      -0.000292
 1968 Fit       0.000181
 1969 Fit       0.009709
 1970 Fit       0.005596
 1971 Fit       0.006083
 1972 Fit       0.003877
 1973 Fit       0.001133
 1974 Fit       0.005720
 1975 Fit       0.000158
 1976 Fit      -0.002077
 1977 Fit      -0.001768
 1978 Fit      -0.005513
 1979 Fit      -0.010172
 1980 Fit      -0.012347
 1981 Fit      -0.010520
 1982 Fit      -0.000820
 1983 Fit      -0.000853
 1984 Fit       0.000030
 1985 Fit      -0.000680
 1986 Fit      -0.000860
 1987 Fit       0.000442
 1988 Fit      -0.000196
 1989 Fit       0.000441
 1990 Fit       0.000905
 1991 Fit       0.001811
 1992 Fit       0.001375
 1993 Fit       0.000685
 1994 Fit       0.001503
 1995 Fit       0.001662
 1996 Fit       0.001083
 1997 Fit      -0.000026
 1998 Fit       0.000567
 1999 Fit       0.000356
 2000 Fit      -0.000347
 2001 Fit       0.001024
 2002 Fit       0.001909
 2003 Fit       0.002341
 2004 Fit       0.000577
 2005 Fit       0.001474
 2006 Fit       0.001819
 2007 Fit       0.001697
 2008 Fit       0.000479
 2009 Fit       0.000781
 2010 Fit       0.001946
 2011 Fit       0.000692
 2012 Fit       0.004049
 2013 Fit       0.002569
 2014 Fit       0.001706
 2015 Fit       0.001538
 2016 Fit       0.004723
 2017 Fit       0.004114
 2018 Fit      -0.001315
 2019 Fit      -0.001361
 2020 Fit      -0.002317
 2021 Fit      -0.001639
 2022 Fit      -0.001070
 2023 Fit      -0.000689
 2024 Fit      -0.002073
 2025 Fit      -0.001102
 2026 Fit      -0.000223
 2027 Fit      -0.000764
 2028 Fit      -0.000797
 2029 Fit       0.000232
 2030 Fit       0.000697
 2031 Fit       0.001048
 2032 Fit      -0.003691
 2033 Fit      -0.002901
 2034 Fit       0.000711
 2035 Fit      -0.001985
 2036 Fit      -0.000566
 2037 Fit       0.000550
 2038 Fit      -0.002937
 2039 Fit      -0.001493
 2040 Fit      -0.000239
 2041 Fit      -0.000226
 2042 Fit       0.000079
 2043 Fit      -0.002827
 2044 Fit      -0.001526
 2045 Fit      -0.000658
 2046 Fit      -0.003379
 2047 Fit      -0.001130
 2048 Fit      -0.002417
 2049 Fit       0.000707
 2050 Fit      -0.000310
 2051 Fit      -0.001384
 2052 Fit      -0.002513
 2053 Fit       0.000257
 2054 Fit       0.000418
 2055 Fit      -0.000091
 2056 Fit      -0.000774
 2057 Fit       0.000551
 2058 Fit       0.000302
 2059 Fit      -0.000151
 2060 Fit      -0.000496
 2061 Fit      -0.000689
 2062 Fit       0.000984
 2063 Fit       0.001246
 2064 Fit       0.000875
 2065 Fit      -0.000154
 2066 Fit      -0.002352
 2067 Fit      -0.002285
 2068 Fit      -0.002500
 2069 Fit      -0.002454
 2070 Fit      -0.000929
 2071 Fit      -0.001582
 2072 Fit      -0.002072
 2073 Fit      -0.002187
 2074 Fit      -0.001400
 2075 Fit      -0.000084
 2076 Fit      -0.000045
 2077 Fit       0.000687
 2078 Fit      -0.000618
 2079 Fit      -0.002046
 2080 Fit       0.001300
 2081 Fit       0.000715
 2082 Fit      -0.000225
 2083 Fit      -0.001537
 2084 Fit       0.001178
 2085 Fit       0.000028
 2086 Fit      -0.000760
 2087 Fit      -0.001909
 2088 Fit       0.000348
 2089 Fit      -0.000991
 2090 Fit      -0.000809
 2091 Fit      -0.001134
 2092 Fit      -0.001468
 2093 Fit       0.000033
 2094 Fit       0.000919
 2095 Fit      -0.002145
 2096 Fit      -0.000440
 2097 Fit       0.000851
 2098 Fit       0.001564
 2099 Fit       0.002043
 2100 Fit      -0.000598
 2101 Fit       0.000635
 2102 Fit       0.001250
 2103 Fit       0.001277
 2104 Fit      -0.000346
 2105 Fit       0.000310
 2106 Fit       0.000317
 2107 Fit       0.000661
 2108 Fit      -0.000100
 2109 Fit      -0.000686
 2110 Fit      -0.001322
 2111 Fit       0.000887
 2112 Fit       0.000637
 2113 Fit       0.000116
 2114 Fit      -0.002992
 2115 Fit      -0.003324
 2116 Fit      -0.002559
 2117 Fit      -0.003025
 2118 Fit      -0.003310
 2119 Fit      -0.003199
 2120 Fit      -0.003161
 2121 Fit      -0.002523
 2122 Fit      -0.002580
 2123 Fit      -0.002704
 2124 Fit      -0.002236
 2125 Fit      -0.001975
 2126 Fit      -0.001477
 2127 Fit      -0.001144
 2128 Fit       0.000069
 2129 Fit      -0.000942
 2130 Fit      -0.002275
 2131 Fit      -0.002745
 2132 Fit      -0.001994
 2133 Fit      -0.000589
 2134 Fit       0.000867
 2135 Fit      -0.000004
 2136 Fit      -0.001700
 2137 Fit      -0.002479
 2138 Fit      -0.001051
 2139 Fit       0.000379
 2140 Fit      -0.003035
 2141 Fit      -0.001730
 2142 Fit      -0.001543
 2143 Fit      -0.000194
 2144 Fit      -0.000133
 2145 Fit      -0.001228
 2146 Fit       0.001170
 2147 Fit       0.000932
 2148 Fit      -0.000079
 2149 Fit      -0.001671
 2150 Fit       0.001853
 2151 Fit       0.001170
 2152 Fit       0.000036
 2153 Fit      -0.001568
 2154 Fit       0.000651
 2155 Fit      -0.000653
 2156 Fit      -0.002995
 2157 Fit      -0.001708
 2158 Fit      -0.001254
 2159 Fit      -0.001966
 2160 Fit      -0.001413
 2161 Fit      -0.000318
 2162 Fit       0.000007
 2163 Fit      -0.000576
 2164 Fit      -0.002148
 2165 Fit      -0.000943
 2166 Fit       0.000178
 2167 Fit       0.000639
 2168 Fit       0.000518
 2169 Fit      -0.000205
 2170 Fit       0.000574
 -----------------------------------------------------------------
 Leave Link  602 at Thu May 18 14:00:27 2017, MaxMem=   33554432 cpu:      15.0
 (Enter /scratch/michal/g09/l9999.exe)

 Test job not archived.
 1\1\GINC-RZEPICHA\SP\RHF\6-31G(d)\C27H46O2\MICHAL\18-May-2017\0\\#P HF
 /6-31G* SCF(Conver=6) NoSymm Test Pop=mk IOp(6/33=2) GFInput GFPrint\\
 MEP - Input generated by R.E.D.-III.x MOLECULE\\0,1\O,0,0.,0.,0.\H,0,0
 .96653237,0.,0.\O,0,4.36653846,-1.25277833,-4.9453513\H,0,4.09341702,-
 1.05554907,-5.85236641\C,0,-1.24582297,4.10482698,-0.72423412\C,0,-1.1
 4102503,2.57081178,-0.49850518\H,0,-0.44434735,2.44606069,0.34263895\C
 ,0,-0.53287434,1.7827619,-1.6649709\H,0,-1.19268585,1.86879283,-2.5405
 2676\C,0,0.86721376,2.34128415,-2.02517107\H,0,1.51972976,2.09128948,-
 1.17202707\C,0,-1.9235892,4.52408002,0.62656833\H,0,-1.1388895,4.43019
 937,1.39141829\C,0,0.19293456,4.60934624,-0.95648044\H,0,0.77610164,4.
 44300278,-0.03932644\H,0,0.22074937,5.68619506,-1.1521067\C,0,1.494916
 51,1.62264533,-3.27074946\C,0,-2.52322934,2.16100287,0.03030786\H,0,-2
 .4753556,1.2437113,0.6236873\H,0,-3.22118364,1.97435777,-0.79602756\C,
 0,0.87002969,3.88434796,-2.13784595\H,0,0.36904468,4.18972547,-3.06222
 414\H,0,1.90171207,4.24504612,-2.22212557\C,0,-2.97291139,3.38914716,0
 .87004414\H,0,-3.97176991,3.72359009,0.56546319\H,0,-3.04290704,3.1432
 3142,1.93429551\C,0,-0.44897715,0.27465796,-1.34823394\H,0,-1.46277471
 ,-0.14150894,-1.36846122\C,0,-2.53853051,5.93902631,0.76431995\H,0,-3.
 3242601,6.02906279,0.\C,0,-2.1541967,4.47443598,-1.91892452\H,0,-1.822
 31384,4.01438967,-2.85327745\H,0,-3.19017827,4.1616782,-1.756887\H,0,-
 2.16221198,5.55811843,-2.07878104\C,0,1.28464092,0.10570308,-3.1756755
 7\C,0,3.02928925,1.90458148,-3.28907245\H,0,3.4255909,1.71651207,-2.28
 148412\H,0,3.19984539,2.96672088,-3.49489949\C,0,0.41463153,-0.4663934
 6,-2.32703777\H,0,0.3350578,-1.55277106,-2.29938269\C,0,0.86026217,2.1
 1997345,-4.59819876\H,0,1.13739178,3.15749572,-4.80747764\H,0,1.189680
 94,1.52104121,-5.45084314\H,0,-0.23152845,2.05709324,-4.56348008\C,0,2
 .10944878,-0.75991416,-4.11050435\H,0,1.95236803,-1.81882464,-3.883027
 12\H,0,1.77655917,-0.60801207,-5.149716\C,0,3.83318677,1.0590985,-4.28
 862572\H,0,3.54387823,1.30508269,-5.32102359\H,0,4.90120642,1.28795778
 ,-4.19952055\C,0,-3.2619383,6.13964571,2.12419591\H,0,-3.758488,7.1181
 6352,2.08521247\H,0,-4.06786296,5.4008436,2.21985604\C,0,3.6096295,-0.
 43403906,-4.05033803\H,0,3.9915268,-0.70003347,-3.05693978\C,0,-1.5326
 545,7.0798109,0.52063837\H,0,-0.63157441,6.96847579,1.13419356\H,0,-1.
 98453348,8.04802091,0.76720741\H,0,-1.21450606,7.12832263,-0.52384262\
 C,0,-2.38172,6.06902637,3.38339743\H,0,-1.84946039,5.10965717,3.403516
 07\H,0,-1.60364183,6.84107684,3.34285669\C,0,-3.16653624,6.19116898,4.
 70368128\H,0,-2.47445532,6.01419616,5.54045895\H,0,-3.90533983,5.37770
 539,4.74563487\C,0,-3.89775555,7.52590492,4.96211509\H,0,-4.60197604,7
 .70025319,4.13616389\C,0,-2.933538,8.72137825,5.02024929\H,0,-2.192943
 71,8.58530699,5.81924663\H,0,-3.47552055,9.65161971,5.22549655\H,0,-2.
 38806632,8.85887381,4.08103222\C,0,-4.7220001,7.43576317,6.25656667\H,
 0,-4.07090424,7.26526589,7.12370531\H,0,-5.2809691,8.36091205,6.438131
 06\H,0,-5.44262732,6.61092334,6.21478978\\Version=EM64L-G09RevC.01\HF=
 -1198.9265527\RMSD=4.866e-07\Dipole=-0.017258,0.6640801,-0.8012906\Qua
 drupole=-5.1895906,-1.5708411,6.7604317,5.3481153,3.135628,-5.5501845\
 PG=C01 [X(C27H46O2)]\\@


 GARBAGE IN, GARBAGE OUT
 Job cpu time:  0 days  0 hours 42 minutes 44.1 seconds.
 File lengths (MBytes):  RWF=    151 Int=      0 D2E=      0 Chk=     11 Scr=      1
 Normal termination of Gaussian 09 at Thu May 18 14:00:28 2017.
