 Entering Gaussian System, Link 0=/scratch/michal/g09//g09
 Input=JOB2-gau_m1-12-1.com
 Output=JOB2-gau_m1-12-1.log
 Initial command:
 /scratch/michal/g09/l1.exe /scratch/michal/gauss_scratch/Gau-21265.inp -scrdir=/scratch/michal/gauss_scratch/
 Entering Link 1 = /scratch/michal/g09/l1.exe PID=     21267.
  
 Copyright (c) 1988,1990,1992,1993,1995,1998,2003,2009,2011,
            Gaussian, Inc.  All Rights Reserved.
  
 This is part of the Gaussian(R) 09 program.  It is based on
 the Gaussian(R) 03 system (copyright 2003, Gaussian, Inc.),
 the Gaussian(R) 98 system (copyright 1998, Gaussian, Inc.),
 the Gaussian(R) 94 system (copyright 1995, Gaussian, Inc.),
 the Gaussian 92(TM) system (copyright 1992, Gaussian, Inc.),
 the Gaussian 90(TM) system (copyright 1990, Gaussian, Inc.),
 the Gaussian 88(TM) system (copyright 1988, Gaussian, Inc.),
 the Gaussian 86(TM) system (copyright 1986, Carnegie Mellon
 University), and the Gaussian 82(TM) system (copyright 1983,
 Carnegie Mellon University). Gaussian is a federally registered
 trademark of Gaussian, Inc.
  
 This software contains proprietary and confidential information,
 including trade secrets, belonging to Gaussian, Inc.
  
 This software is provided under written license and may be
 used, copied, transmitted, or stored only in accord with that
 written license.
  
 The following legend is applicable only to US Government
 contracts under FAR:
  
                    RESTRICTED RIGHTS LEGEND
  
 Use, reproduction and disclosure by the US Government is
 subject to restrictions as set forth in subparagraphs (a)
 and (c) of the Commercial Computer Software - Restricted
 Rights clause in FAR 52.227-19.
  
 Gaussian, Inc.
 340 Quinnipiac St., Bldg. 40, Wallingford CT 06492
  
  
 ---------------------------------------------------------------
 Warning -- This program may not be used in any manner that
 competes with the business of Gaussian, Inc. or will provide
 assistance to any competitor of Gaussian, Inc.  The licensee
 of this program is prohibited from giving any competitor of
 Gaussian, Inc. access to this program.  By using this program,
 the user acknowledges that Gaussian, Inc. is engaged in the
 business of creating and licensing software in the field of
 computational chemistry and represents and warrants to the
 licensee that it is not a competitor of Gaussian, Inc. and that
 it will not use this program in any manner prohibited above.
 ---------------------------------------------------------------
  

 Cite this work as:
 Gaussian 09, Revision C.01,
 M. J. Frisch, G. W. Trucks, H. B. Schlegel, G. E. Scuseria, 
 M. A. Robb, J. R. Cheeseman, G. Scalmani, V. Barone, B. Mennucci, 
 G. A. Petersson, H. Nakatsuji, M. Caricato, X. Li, H. P. Hratchian, 
 A. F. Izmaylov, J. Bloino, G. Zheng, J. L. Sonnenberg, M. Hada, 
 M. Ehara, K. Toyota, R. Fukuda, J. Hasegawa, M. Ishida, T. Nakajima, 
 Y. Honda, O. Kitao, H. Nakai, T. Vreven, J. A. Montgomery, Jr., 
 J. E. Peralta, F. Ogliaro, M. Bearpark, J. J. Heyd, E. Brothers, 
 K. N. Kudin, V. N. Staroverov, T. Keith, R. Kobayashi, J. Normand, 
 K. Raghavachari, A. Rendell, J. C. Burant, S. S. Iyengar, J. Tomasi, 
 M. Cossi, N. Rega, J. M. Millam, M. Klene, J. E. Knox, J. B. Cross, 
 V. Bakken, C. Adamo, J. Jaramillo, R. Gomperts, R. E. Stratmann, 
 O. Yazyev, A. J. Austin, R. Cammi, C. Pomelli, J. W. Ochterski, 
 R. L. Martin, K. Morokuma, V. G. Zakrzewski, G. A. Voth, 
 P. Salvador, J. J. Dannenberg, S. Dapprich, A. D. Daniels, 
 O. Farkas, J. B. Foresman, J. V. Ortiz, J. Cioslowski, 
 and D. J. Fox, Gaussian, Inc., Wallingford CT, 2010.
 
 ******************************************
 Gaussian 09:  EM64L-G09RevC.01 23-Sep-2011
                18-May-2017 
 ******************************************
 %Mem=256MB
 %NProc=48
 Will use up to   48 processors via shared memory.
 ----------------------------------------------------------------------
 #P HF/6-31G* SCF(Conver=6) NoSymm Test Pop=mk IOp(6/33=2) GFInput GFPr
 int
 ----------------------------------------------------------------------
 1/38=1/1;
 2/12=2,15=1,17=6,18=5,40=1/2;
 3/5=1,6=6,7=1,11=9,16=1,24=110,25=1,30=1/1,2,3;
 4//1;
 5/5=2,6=6,38=5/2;
 6/7=2,8=2,9=2,10=2,15=8,20=1,28=1,33=2/1,2;
 99/5=1,9=1/99;
 Leave Link    1 at Thu May 18 13:20:41 2017, MaxMem=   33554432 cpu:       6.8
 (Enter /scratch/michal/g09/l101.exe)
 ----------------------------------------------
 MEP - Input generated by R.E.D.-III.x MOLECULE
 ----------------------------------------------
 Charge =  0 Multiplicity = 1
 Symbolic Z-Matrix:
 O                     0.        0.        0. 
 H                     0.96653   0.        0. 
 O                     4.3665   -1.38601  -4.91444 
 H                     4.08985  -1.21755  -5.82618 
 C                    -1.24162   4.07283  -0.86174 
 C                    -1.14575   2.55279  -0.57643 
 H                    -0.44581   2.45392   0.26496 
 C                    -0.53855   1.72971  -1.71786 
 H                    -1.19719   1.78707  -2.59647 
 C                     0.86364   2.28191  -2.09152 
 H                     1.51401   2.04922  -1.23194 
 C                    -1.90193   4.54156   0.47269 
 H                    -1.11602   4.38841   1.22634 
 C                     0.19115   4.58356  -1.09218 
 H                     0.76679   4.44894  -0.16511 
 H                     0.20271   5.65895  -1.31543 
 C                     1.48954   1.52934  -3.31816 
 C                    -2.53258   2.17848  -0.02137 
 H                    -2.4831    1.29851   0.6259 
 H                    -3.23182   1.94086  -0.83336 
 C                     0.88386   3.82491  -2.24337 
 H                     0.40639   4.1122   -3.18534 
 H                     1.92151   4.17014  -2.31589 
 C                    -2.99195   3.45795   0.74627 
 H                    -3.97461   3.78268   0.3928 
 H                    -3.09655   3.26849   1.81953 
 C                    -0.44921   0.23234  -1.356 
 H                    -1.4621   -0.18672  -1.36372 
 C                    -2.3219    6.0338    0.6152 
 H                    -1.62059   6.61861   0. 
 C                    -2.12758   4.39913  -2.08423 
 H                    -1.74429   3.94973  -3.00389 
 H                    -3.1533    4.04151  -1.95785 
 H                    -2.17079   5.48127  -2.24944 
 C                     1.28434   0.01489  -3.17798 
 C                     3.02289   1.81572  -3.35108 
 H                     3.4235    1.66057  -2.33955 
 H                     3.18907   2.87133  -3.5908 
 C                     0.41674  -0.53486  -2.31223 
 H                     0.34065  -1.6202   -2.25275 
 C                     0.84777   1.98476  -4.65734 
 H                     1.12292   3.01536  -4.90064 
 H                     1.17354   1.35983  -5.49256 
 H                    -0.24377   1.92206  -4.61534 
 C                     2.1102   -0.87573  -4.08819 
 H                     1.95738  -1.92775  -3.82819 
 H                     1.774    -0.75686  -5.13066 
 C                     3.82639   0.94274  -4.32702 
 H                     3.53243   1.15585  -5.36542 
 H                     4.89382   1.17826  -4.24888 
 C                    -3.75064   6.37761   0.12949 
 H                    -3.98688   5.82004  -0.78307 
 H                    -4.47176   6.0393    0.88516 
 C                     3.60934  -0.54303  -4.04243 
 H                     3.9952   -0.77734  -3.04261 
 C                    -2.12847   6.49197   2.07552 
 H                    -2.75737   5.90283   2.75471 
 H                    -2.39003   7.54606   2.21264 
 H                    -1.08773   6.36717   2.39442 
 C                    -3.96602   7.87283  -0.16203 
 H                    -3.79812   8.46581   0.74501 
 H                    -3.19917   8.20159  -0.87776 
 C                    -5.34521   8.21361  -0.7557 
 H                    -5.46798   7.65661  -1.69597 
 H                    -5.35491   9.27866  -1.03157 
 C                    -6.57475   7.93853   0.13637 
 H                    -6.57854   6.87094   0.3989 
 C                    -7.86873   8.22504  -0.64241 
 H                    -7.92617   9.28295  -0.92958 
 H                    -8.75525   7.99619  -0.03998 
 H                    -7.92348   7.62811  -1.56011 
 C                    -6.54342   8.74542   1.44408 
 H                    -6.51262   9.82296   1.23591 
 H                    -7.43803   8.54941   2.04604 
 H                    -5.67257   8.50014   2.06046 
 
 NAtoms=     75 NQM=        0 NQMF=       0 NMMI=     75 NMMIF=      0
                NMic=       0 NMicF=      0.
                    Isotopes and Nuclear Properties:
 (Nuclear quadrupole moments (NQMom) in fm**2, nuclear magnetic moments (NMagM)
  in nuclear magnetons)

  Atom         1           2           3           4           5           6           7           8           9          10
 IAtWgt=          16           1          16           1          12          12           1          12           1          12
 AtmWgt=  15.9949146   1.0078250  15.9949146   1.0078250  12.0000000  12.0000000   1.0078250  12.0000000   1.0078250  12.0000000
 NucSpn=           0           1           0           1           0           0           1           0           1           0
 AtZEff=   0.0000000   0.0000000   0.0000000   0.0000000   0.0000000   0.0000000   0.0000000   0.0000000   0.0000000   0.0000000
 NQMom=    0.0000000   0.0000000   0.0000000   0.0000000   0.0000000   0.0000000   0.0000000   0.0000000   0.0000000   0.0000000
 NMagM=    0.0000000   2.7928460   0.0000000   2.7928460   0.0000000   0.0000000   2.7928460   0.0000000   2.7928460   0.0000000

  Atom        11          12          13          14          15          16          17          18          19          20
 IAtWgt=           1          12           1          12           1           1          12          12           1           1
 AtmWgt=   1.0078250  12.0000000   1.0078250  12.0000000   1.0078250   1.0078250  12.0000000  12.0000000   1.0078250   1.0078250
 NucSpn=           1           0           1           0           1           1           0           0           1           1
 AtZEff=   0.0000000   0.0000000   0.0000000   0.0000000   0.0000000   0.0000000   0.0000000   0.0000000   0.0000000   0.0000000
 NQMom=    0.0000000   0.0000000   0.0000000   0.0000000   0.0000000   0.0000000   0.0000000   0.0000000   0.0000000   0.0000000
 NMagM=    2.7928460   0.0000000   2.7928460   0.0000000   2.7928460   2.7928460   0.0000000   0.0000000   2.7928460   2.7928460

  Atom        21          22          23          24          25          26          27          28          29          30
 IAtWgt=          12           1           1          12           1           1          12           1          12           1
 AtmWgt=  12.0000000   1.0078250   1.0078250  12.0000000   1.0078250   1.0078250  12.0000000   1.0078250  12.0000000   1.0078250
 NucSpn=           0           1           1           0           1           1           0           1           0           1
 AtZEff=   0.0000000   0.0000000   0.0000000   0.0000000   0.0000000   0.0000000   0.0000000   0.0000000   0.0000000   0.0000000
 NQMom=    0.0000000   0.0000000   0.0000000   0.0000000   0.0000000   0.0000000   0.0000000   0.0000000   0.0000000   0.0000000
 NMagM=    0.0000000   2.7928460   2.7928460   0.0000000   2.7928460   2.7928460   0.0000000   2.7928460   0.0000000   2.7928460

  Atom        31          32          33          34          35          36          37          38          39          40
 IAtWgt=          12           1           1           1          12          12           1           1          12           1
 AtmWgt=  12.0000000   1.0078250   1.0078250   1.0078250  12.0000000  12.0000000   1.0078250   1.0078250  12.0000000   1.0078250
 NucSpn=           0           1           1           1           0           0           1           1           0           1
 AtZEff=   0.0000000   0.0000000   0.0000000   0.0000000   0.0000000   0.0000000   0.0000000   0.0000000   0.0000000   0.0000000
 NQMom=    0.0000000   0.0000000   0.0000000   0.0000000   0.0000000   0.0000000   0.0000000   0.0000000   0.0000000   0.0000000
 NMagM=    0.0000000   2.7928460   2.7928460   2.7928460   0.0000000   0.0000000   2.7928460   2.7928460   0.0000000   2.7928460

  Atom        41          42          43          44          45          46          47          48          49          50
 IAtWgt=          12           1           1           1          12           1           1          12           1           1
 AtmWgt=  12.0000000   1.0078250   1.0078250   1.0078250  12.0000000   1.0078250   1.0078250  12.0000000   1.0078250   1.0078250
 NucSpn=           0           1           1           1           0           1           1           0           1           1
 AtZEff=   0.0000000   0.0000000   0.0000000   0.0000000   0.0000000   0.0000000   0.0000000   0.0000000   0.0000000   0.0000000
 NQMom=    0.0000000   0.0000000   0.0000000   0.0000000   0.0000000   0.0000000   0.0000000   0.0000000   0.0000000   0.0000000
 NMagM=    0.0000000   2.7928460   2.7928460   2.7928460   0.0000000   2.7928460   2.7928460   0.0000000   2.7928460   2.7928460

  Atom        51          52          53          54          55          56          57          58          59          60
 IAtWgt=          12           1           1          12           1          12           1           1           1          12
 AtmWgt=  12.0000000   1.0078250   1.0078250  12.0000000   1.0078250  12.0000000   1.0078250   1.0078250   1.0078250  12.0000000
 NucSpn=           0           1           1           0           1           0           1           1           1           0
 AtZEff=   0.0000000   0.0000000   0.0000000   0.0000000   0.0000000   0.0000000   0.0000000   0.0000000   0.0000000   0.0000000
 NQMom=    0.0000000   0.0000000   0.0000000   0.0000000   0.0000000   0.0000000   0.0000000   0.0000000   0.0000000   0.0000000
 NMagM=    0.0000000   2.7928460   2.7928460   0.0000000   2.7928460   0.0000000   2.7928460   2.7928460   2.7928460   0.0000000

  Atom        61          62          63          64          65          66          67          68          69          70
 IAtWgt=           1           1          12           1           1          12           1          12           1           1
 AtmWgt=   1.0078250   1.0078250  12.0000000   1.0078250   1.0078250  12.0000000   1.0078250  12.0000000   1.0078250   1.0078250
 NucSpn=           1           1           0           1           1           0           1           0           1           1
 AtZEff=   0.0000000   0.0000000   0.0000000   0.0000000   0.0000000   0.0000000   0.0000000   0.0000000   0.0000000   0.0000000
 NQMom=    0.0000000   0.0000000   0.0000000   0.0000000   0.0000000   0.0000000   0.0000000   0.0000000   0.0000000   0.0000000
 NMagM=    2.7928460   2.7928460   0.0000000   2.7928460   2.7928460   0.0000000   2.7928460   0.0000000   2.7928460   2.7928460

  Atom        71          72          73          74          75
 IAtWgt=           1          12           1           1           1
 AtmWgt=   1.0078250  12.0000000   1.0078250   1.0078250   1.0078250
 NucSpn=           1           0           1           1           1
 AtZEff=   0.0000000   0.0000000   0.0000000   0.0000000   0.0000000
 NQMom=    0.0000000   0.0000000   0.0000000   0.0000000   0.0000000
 NMagM=    2.7928460   0.0000000   2.7928460   2.7928460   2.7928460
 Leave Link  101 at Thu May 18 13:20:41 2017, MaxMem=   33554432 cpu:       8.8
 (Enter /scratch/michal/g09/l202.exe)
 Symmetry turned off by external request.
 Stoichiometry    C27H46O2
 Framework group  C1[X(C27H46O2)]
 Deg. of freedom   219
 Full point group                 C1      NOp   1
                          Input orientation:                          
 ---------------------------------------------------------------------
 Center     Atomic      Atomic             Coordinates (Angstroms)
 Number     Number       Type             X           Y           Z
 ---------------------------------------------------------------------
      1          8           0        0.000000    0.000000    0.000000
      2          1           0        0.966531    0.000000    0.000000
      3          8           0        4.366497   -1.386009   -4.914441
      4          1           0        4.089848   -1.217555   -5.826177
      5          6           0       -1.241616    4.072830   -0.861743
      6          6           0       -1.145754    2.552791   -0.576429
      7          1           0       -0.445813    2.453918    0.264957
      8          6           0       -0.538546    1.729710   -1.717857
      9          1           0       -1.197188    1.787066   -2.596474
     10          6           0        0.863640    2.281912   -2.091524
     11          1           0        1.514009    2.049222   -1.231937
     12          6           0       -1.901931    4.541565    0.472688
     13          1           0       -1.116019    4.388409    1.226342
     14          6           0        0.191154    4.583556   -1.092177
     15          1           0        0.766786    4.448942   -0.165114
     16          1           0        0.202711    5.658949   -1.315430
     17          6           0        1.489539    1.529341   -3.318165
     18          6           0       -2.532582    2.178481   -0.021371
     19          1           0       -2.483097    1.298512    0.625899
     20          1           0       -3.231824    1.940864   -0.833361
     21          6           0        0.883862    3.824912   -2.243370
     22          1           0        0.406393    4.112204   -3.185341
     23          1           0        1.921515    4.170136   -2.315889
     24          6           0       -2.991947    3.457952    0.746273
     25          1           0       -3.974607    3.782682    0.392796
     26          1           0       -3.096555    3.268493    1.819535
     27          6           0       -0.449206    0.232342   -1.356001
     28          1           0       -1.462098   -0.186718   -1.363721
     29          6           0       -2.321902    6.033797    0.615202
     30          1           0       -1.620588    6.618614    0.000000
     31          6           0       -2.127575    4.399127   -2.084227
     32          1           0       -1.744289    3.949733   -3.003887
     33          1           0       -3.153296    4.041507   -1.957850
     34          1           0       -2.170787    5.481274   -2.249440
     35          6           0        1.284342    0.014891   -3.177976
     36          6           0        3.022887    1.815720   -3.351081
     37          1           0        3.423504    1.660567   -2.339553
     38          1           0        3.189068    2.871327   -3.590804
     39          6           0        0.416739   -0.534859   -2.312232
     40          1           0        0.340655   -1.620202   -2.252747
     41          6           0        0.847767    1.984757   -4.657336
     42          1           0        1.122922    3.015359   -4.900638
     43          1           0        1.173540    1.359834   -5.492562
     44          1           0       -0.243771    1.922058   -4.615342
     45          6           0        2.110202   -0.875728   -4.088189
     46          1           0        1.957379   -1.927747   -3.828185
     47          1           0        1.773997   -0.756862   -5.130655
     48          6           0        3.826392    0.942737   -4.327023
     49          1           0        3.532425    1.155850   -5.365419
     50          1           0        4.893817    1.178262   -4.248878
     51          6           0       -3.750641    6.377611    0.129485
     52          1           0       -3.986879    5.820044   -0.783073
     53          1           0       -4.471760    6.039303    0.885164
     54          6           0        3.609336   -0.543035   -4.042429
     55          1           0        3.995200   -0.777337   -3.042614
     56          6           0       -2.128466    6.491970    2.075516
     57          1           0       -2.757368    5.902827    2.754707
     58          1           0       -2.390029    7.546065    2.212644
     59          1           0       -1.087726    6.367166    2.394420
     60          6           0       -3.966018    7.872829   -0.162030
     61          1           0       -3.798116    8.465815    0.745007
     62          1           0       -3.199170    8.201590   -0.877762
     63          6           0       -5.345213    8.213614   -0.755701
     64          1           0       -5.467984    7.656610   -1.695971
     65          1           0       -5.354914    9.278661   -1.031572
     66          6           0       -6.574752    7.938530    0.136366
     67          1           0       -6.578538    6.870938    0.398898
     68          6           0       -7.868731    8.225045   -0.642410
     69          1           0       -7.926172    9.282954   -0.929583
     70          1           0       -8.755252    7.996189   -0.039983
     71          1           0       -7.923478    7.628114   -1.560110
     72          6           0       -6.543423    8.745422    1.444078
     73          1           0       -6.512618    9.822960    1.235907
     74          1           0       -7.438035    8.549409    2.046037
     75          1           0       -5.672570    8.500144    2.060457
 ---------------------------------------------------------------------
 Rotational constants (GHZ):      0.4309643      0.0572267      0.0556935
 Leave Link  202 at Thu May 18 13:20:41 2017, MaxMem=   33554432 cpu:       0.3
 (Enter /scratch/michal/g09/l301.exe)
 Standard basis: 6-31G(d) (6D, 7F)
 Ernie: Thresh=  0.10000D-02 Tol=  0.10000D-05 Strict=F.
 AO basis set in the form of general basis input (Overlap normalization):
      1 0
 S   6 1.00       0.000000000000
      0.5484671660D+04  0.1831074430D-02
      0.8252349460D+03  0.1395017220D-01
      0.1880469580D+03  0.6844507810D-01
      0.5296450000D+02  0.2327143360D+00
      0.1689757040D+02  0.4701928980D+00
      0.5799635340D+01  0.3585208530D+00
 SP   3 1.00       0.000000000000
      0.1553961625D+02 -0.1107775495D+00  0.7087426823D-01
      0.3599933586D+01 -0.1480262627D+00  0.3397528391D+00
      0.1013761750D+01  0.1130767015D+01  0.7271585773D+00
 SP   1 1.00       0.000000000000
      0.2700058226D+00  0.1000000000D+01  0.1000000000D+01
 D   1 1.00       0.000000000000
      0.8000000000D+00  0.1000000000D+01
 ****
      2 0
 S   3 1.00       0.000000000000
      0.1873113696D+02  0.3349460434D-01
      0.2825394365D+01  0.2347269535D+00
      0.6401216923D+00  0.8137573261D+00
 S   1 1.00       0.000000000000
      0.1612777588D+00  0.1000000000D+01
 ****
      3 0
 S   6 1.00       0.000000000000
      0.5484671660D+04  0.1831074430D-02
      0.8252349460D+03  0.1395017220D-01
      0.1880469580D+03  0.6844507810D-01
      0.5296450000D+02  0.2327143360D+00
      0.1689757040D+02  0.4701928980D+00
      0.5799635340D+01  0.3585208530D+00
 SP   3 1.00       0.000000000000
      0.1553961625D+02 -0.1107775495D+00  0.7087426823D-01
      0.3599933586D+01 -0.1480262627D+00  0.3397528391D+00
      0.1013761750D+01  0.1130767015D+01  0.7271585773D+00
 SP   1 1.00       0.000000000000
      0.2700058226D+00  0.1000000000D+01  0.1000000000D+01
 D   1 1.00       0.000000000000
      0.8000000000D+00  0.1000000000D+01
 ****
      4 0
 S   3 1.00       0.000000000000
      0.1873113696D+02  0.3349460434D-01
      0.2825394365D+01  0.2347269535D+00
      0.6401216923D+00  0.8137573261D+00
 S   1 1.00       0.000000000000
      0.1612777588D+00  0.1000000000D+01
 ****
      5 0
 S   6 1.00       0.000000000000
      0.3047524880D+04  0.1834737132D-02
      0.4573695180D+03  0.1403732281D-01
      0.1039486850D+03  0.6884262226D-01
      0.2921015530D+02  0.2321844432D+00
      0.9286662960D+01  0.4679413484D+00
      0.3163926960D+01  0.3623119853D+00
 SP   3 1.00       0.000000000000
      0.7868272350D+01 -0.1193324198D+00  0.6899906659D-01
      0.1881288540D+01 -0.1608541517D+00  0.3164239610D+00
      0.5442492580D+00  0.1143456438D+01  0.7443082909D+00
 SP   1 1.00       0.000000000000
      0.1687144782D+00  0.1000000000D+01  0.1000000000D+01
 D   1 1.00       0.000000000000
      0.8000000000D+00  0.1000000000D+01
 ****
      6 0
 S   6 1.00       0.000000000000
      0.3047524880D+04  0.1834737132D-02
      0.4573695180D+03  0.1403732281D-01
      0.1039486850D+03  0.6884262226D-01
      0.2921015530D+02  0.2321844432D+00
      0.9286662960D+01  0.4679413484D+00
      0.3163926960D+01  0.3623119853D+00
 SP   3 1.00       0.000000000000
      0.7868272350D+01 -0.1193324198D+00  0.6899906659D-01
      0.1881288540D+01 -0.1608541517D+00  0.3164239610D+00
      0.5442492580D+00  0.1143456438D+01  0.7443082909D+00
 SP   1 1.00       0.000000000000
      0.1687144782D+00  0.1000000000D+01  0.1000000000D+01
 D   1 1.00       0.000000000000
      0.8000000000D+00  0.1000000000D+01
 ****
      7 0
 S   3 1.00       0.000000000000
      0.1873113696D+02  0.3349460434D-01
      0.2825394365D+01  0.2347269535D+00
      0.6401216923D+00  0.8137573261D+00
 S   1 1.00       0.000000000000
      0.1612777588D+00  0.1000000000D+01
 ****
      8 0
 S   6 1.00       0.000000000000
      0.3047524880D+04  0.1834737132D-02
      0.4573695180D+03  0.1403732281D-01
      0.1039486850D+03  0.6884262226D-01
      0.2921015530D+02  0.2321844432D+00
      0.9286662960D+01  0.4679413484D+00
      0.3163926960D+01  0.3623119853D+00
 SP   3 1.00       0.000000000000
      0.7868272350D+01 -0.1193324198D+00  0.6899906659D-01
      0.1881288540D+01 -0.1608541517D+00  0.3164239610D+00
      0.5442492580D+00  0.1143456438D+01  0.7443082909D+00
 SP   1 1.00       0.000000000000
      0.1687144782D+00  0.1000000000D+01  0.1000000000D+01
 D   1 1.00       0.000000000000
      0.8000000000D+00  0.1000000000D+01
 ****
      9 0
 S   3 1.00       0.000000000000
      0.1873113696D+02  0.3349460434D-01
      0.2825394365D+01  0.2347269535D+00
      0.6401216923D+00  0.8137573261D+00
 S   1 1.00       0.000000000000
      0.1612777588D+00  0.1000000000D+01
 ****
     10 0
 S   6 1.00       0.000000000000
      0.3047524880D+04  0.1834737132D-02
      0.4573695180D+03  0.1403732281D-01
      0.1039486850D+03  0.6884262226D-01
      0.2921015530D+02  0.2321844432D+00
      0.9286662960D+01  0.4679413484D+00
      0.3163926960D+01  0.3623119853D+00
 SP   3 1.00       0.000000000000
      0.7868272350D+01 -0.1193324198D+00  0.6899906659D-01
      0.1881288540D+01 -0.1608541517D+00  0.3164239610D+00
      0.5442492580D+00  0.1143456438D+01  0.7443082909D+00
 SP   1 1.00       0.000000000000
      0.1687144782D+00  0.1000000000D+01  0.1000000000D+01
 D   1 1.00       0.000000000000
      0.8000000000D+00  0.1000000000D+01
 ****
     11 0
 S   3 1.00       0.000000000000
      0.1873113696D+02  0.3349460434D-01
      0.2825394365D+01  0.2347269535D+00
      0.6401216923D+00  0.8137573261D+00
 S   1 1.00       0.000000000000
      0.1612777588D+00  0.1000000000D+01
 ****
     12 0
 S   6 1.00       0.000000000000
      0.3047524880D+04  0.1834737132D-02
      0.4573695180D+03  0.1403732281D-01
      0.1039486850D+03  0.6884262226D-01
      0.2921015530D+02  0.2321844432D+00
      0.9286662960D+01  0.4679413484D+00
      0.3163926960D+01  0.3623119853D+00
 SP   3 1.00       0.000000000000
      0.7868272350D+01 -0.1193324198D+00  0.6899906659D-01
      0.1881288540D+01 -0.1608541517D+00  0.3164239610D+00
      0.5442492580D+00  0.1143456438D+01  0.7443082909D+00
 SP   1 1.00       0.000000000000
      0.1687144782D+00  0.1000000000D+01  0.1000000000D+01
 D   1 1.00       0.000000000000
      0.8000000000D+00  0.1000000000D+01
 ****
     13 0
 S   3 1.00       0.000000000000
      0.1873113696D+02  0.3349460434D-01
      0.2825394365D+01  0.2347269535D+00
      0.6401216923D+00  0.8137573261D+00
 S   1 1.00       0.000000000000
      0.1612777588D+00  0.1000000000D+01
 ****
     14 0
 S   6 1.00       0.000000000000
      0.3047524880D+04  0.1834737132D-02
      0.4573695180D+03  0.1403732281D-01
      0.1039486850D+03  0.6884262226D-01
      0.2921015530D+02  0.2321844432D+00
      0.9286662960D+01  0.4679413484D+00
      0.3163926960D+01  0.3623119853D+00
 SP   3 1.00       0.000000000000
      0.7868272350D+01 -0.1193324198D+00  0.6899906659D-01
      0.1881288540D+01 -0.1608541517D+00  0.3164239610D+00
      0.5442492580D+00  0.1143456438D+01  0.7443082909D+00
 SP   1 1.00       0.000000000000
      0.1687144782D+00  0.1000000000D+01  0.1000000000D+01
 D   1 1.00       0.000000000000
      0.8000000000D+00  0.1000000000D+01
 ****
     15 0
 S   3 1.00       0.000000000000
      0.1873113696D+02  0.3349460434D-01
      0.2825394365D+01  0.2347269535D+00
      0.6401216923D+00  0.8137573261D+00
 S   1 1.00       0.000000000000
      0.1612777588D+00  0.1000000000D+01
 ****
     16 0
 S   3 1.00       0.000000000000
      0.1873113696D+02  0.3349460434D-01
      0.2825394365D+01  0.2347269535D+00
      0.6401216923D+00  0.8137573261D+00
 S   1 1.00       0.000000000000
      0.1612777588D+00  0.1000000000D+01
 ****
     17 0
 S   6 1.00       0.000000000000
      0.3047524880D+04  0.1834737132D-02
      0.4573695180D+03  0.1403732281D-01
      0.1039486850D+03  0.6884262226D-01
      0.2921015530D+02  0.2321844432D+00
      0.9286662960D+01  0.4679413484D+00
      0.3163926960D+01  0.3623119853D+00
 SP   3 1.00       0.000000000000
      0.7868272350D+01 -0.1193324198D+00  0.6899906659D-01
      0.1881288540D+01 -0.1608541517D+00  0.3164239610D+00
      0.5442492580D+00  0.1143456438D+01  0.7443082909D+00
 SP   1 1.00       0.000000000000
      0.1687144782D+00  0.1000000000D+01  0.1000000000D+01
 D   1 1.00       0.000000000000
      0.8000000000D+00  0.1000000000D+01
 ****
     18 0
 S   6 1.00       0.000000000000
      0.3047524880D+04  0.1834737132D-02
      0.4573695180D+03  0.1403732281D-01
      0.1039486850D+03  0.6884262226D-01
      0.2921015530D+02  0.2321844432D+00
      0.9286662960D+01  0.4679413484D+00
      0.3163926960D+01  0.3623119853D+00
 SP   3 1.00       0.000000000000
      0.7868272350D+01 -0.1193324198D+00  0.6899906659D-01
      0.1881288540D+01 -0.1608541517D+00  0.3164239610D+00
      0.5442492580D+00  0.1143456438D+01  0.7443082909D+00
 SP   1 1.00       0.000000000000
      0.1687144782D+00  0.1000000000D+01  0.1000000000D+01
 D   1 1.00       0.000000000000
      0.8000000000D+00  0.1000000000D+01
 ****
     19 0
 S   3 1.00       0.000000000000
      0.1873113696D+02  0.3349460434D-01
      0.2825394365D+01  0.2347269535D+00
      0.6401216923D+00  0.8137573261D+00
 S   1 1.00       0.000000000000
      0.1612777588D+00  0.1000000000D+01
 ****
     20 0
 S   3 1.00       0.000000000000
      0.1873113696D+02  0.3349460434D-01
      0.2825394365D+01  0.2347269535D+00
      0.6401216923D+00  0.8137573261D+00
 S   1 1.00       0.000000000000
      0.1612777588D+00  0.1000000000D+01
 ****
     21 0
 S   6 1.00       0.000000000000
      0.3047524880D+04  0.1834737132D-02
      0.4573695180D+03  0.1403732281D-01
      0.1039486850D+03  0.6884262226D-01
      0.2921015530D+02  0.2321844432D+00
      0.9286662960D+01  0.4679413484D+00
      0.3163926960D+01  0.3623119853D+00
 SP   3 1.00       0.000000000000
      0.7868272350D+01 -0.1193324198D+00  0.6899906659D-01
      0.1881288540D+01 -0.1608541517D+00  0.3164239610D+00
      0.5442492580D+00  0.1143456438D+01  0.7443082909D+00
 SP   1 1.00       0.000000000000
      0.1687144782D+00  0.1000000000D+01  0.1000000000D+01
 D   1 1.00       0.000000000000
      0.8000000000D+00  0.1000000000D+01
 ****
     22 0
 S   3 1.00       0.000000000000
      0.1873113696D+02  0.3349460434D-01
      0.2825394365D+01  0.2347269535D+00
      0.6401216923D+00  0.8137573261D+00
 S   1 1.00       0.000000000000
      0.1612777588D+00  0.1000000000D+01
 ****
     23 0
 S   3 1.00       0.000000000000
      0.1873113696D+02  0.3349460434D-01
      0.2825394365D+01  0.2347269535D+00
      0.6401216923D+00  0.8137573261D+00
 S   1 1.00       0.000000000000
      0.1612777588D+00  0.1000000000D+01
 ****
     24 0
 S   6 1.00       0.000000000000
      0.3047524880D+04  0.1834737132D-02
      0.4573695180D+03  0.1403732281D-01
      0.1039486850D+03  0.6884262226D-01
      0.2921015530D+02  0.2321844432D+00
      0.9286662960D+01  0.4679413484D+00
      0.3163926960D+01  0.3623119853D+00
 SP   3 1.00       0.000000000000
      0.7868272350D+01 -0.1193324198D+00  0.6899906659D-01
      0.1881288540D+01 -0.1608541517D+00  0.3164239610D+00
      0.5442492580D+00  0.1143456438D+01  0.7443082909D+00
 SP   1 1.00       0.000000000000
      0.1687144782D+00  0.1000000000D+01  0.1000000000D+01
 D   1 1.00       0.000000000000
      0.8000000000D+00  0.1000000000D+01
 ****
     25 0
 S   3 1.00       0.000000000000
      0.1873113696D+02  0.3349460434D-01
      0.2825394365D+01  0.2347269535D+00
      0.6401216923D+00  0.8137573261D+00
 S   1 1.00       0.000000000000
      0.1612777588D+00  0.1000000000D+01
 ****
     26 0
 S   3 1.00       0.000000000000
      0.1873113696D+02  0.3349460434D-01
      0.2825394365D+01  0.2347269535D+00
      0.6401216923D+00  0.8137573261D+00
 S   1 1.00       0.000000000000
      0.1612777588D+00  0.1000000000D+01
 ****
     27 0
 S   6 1.00       0.000000000000
      0.3047524880D+04  0.1834737132D-02
      0.4573695180D+03  0.1403732281D-01
      0.1039486850D+03  0.6884262226D-01
      0.2921015530D+02  0.2321844432D+00
      0.9286662960D+01  0.4679413484D+00
      0.3163926960D+01  0.3623119853D+00
 SP   3 1.00       0.000000000000
      0.7868272350D+01 -0.1193324198D+00  0.6899906659D-01
      0.1881288540D+01 -0.1608541517D+00  0.3164239610D+00
      0.5442492580D+00  0.1143456438D+01  0.7443082909D+00
 SP   1 1.00       0.000000000000
      0.1687144782D+00  0.1000000000D+01  0.1000000000D+01
 D   1 1.00       0.000000000000
      0.8000000000D+00  0.1000000000D+01
 ****
     28 0
 S   3 1.00       0.000000000000
      0.1873113696D+02  0.3349460434D-01
      0.2825394365D+01  0.2347269535D+00
      0.6401216923D+00  0.8137573261D+00
 S   1 1.00       0.000000000000
      0.1612777588D+00  0.1000000000D+01
 ****
     29 0
 S   6 1.00       0.000000000000
      0.3047524880D+04  0.1834737132D-02
      0.4573695180D+03  0.1403732281D-01
      0.1039486850D+03  0.6884262226D-01
      0.2921015530D+02  0.2321844432D+00
      0.9286662960D+01  0.4679413484D+00
      0.3163926960D+01  0.3623119853D+00
 SP   3 1.00       0.000000000000
      0.7868272350D+01 -0.1193324198D+00  0.6899906659D-01
      0.1881288540D+01 -0.1608541517D+00  0.3164239610D+00
      0.5442492580D+00  0.1143456438D+01  0.7443082909D+00
 SP   1 1.00       0.000000000000
      0.1687144782D+00  0.1000000000D+01  0.1000000000D+01
 D   1 1.00       0.000000000000
      0.8000000000D+00  0.1000000000D+01
 ****
     30 0
 S   3 1.00       0.000000000000
      0.1873113696D+02  0.3349460434D-01
      0.2825394365D+01  0.2347269535D+00
      0.6401216923D+00  0.8137573261D+00
 S   1 1.00       0.000000000000
      0.1612777588D+00  0.1000000000D+01
 ****
     31 0
 S   6 1.00       0.000000000000
      0.3047524880D+04  0.1834737132D-02
      0.4573695180D+03  0.1403732281D-01
      0.1039486850D+03  0.6884262226D-01
      0.2921015530D+02  0.2321844432D+00
      0.9286662960D+01  0.4679413484D+00
      0.3163926960D+01  0.3623119853D+00
 SP   3 1.00       0.000000000000
      0.7868272350D+01 -0.1193324198D+00  0.6899906659D-01
      0.1881288540D+01 -0.1608541517D+00  0.3164239610D+00
      0.5442492580D+00  0.1143456438D+01  0.7443082909D+00
 SP   1 1.00       0.000000000000
      0.1687144782D+00  0.1000000000D+01  0.1000000000D+01
 D   1 1.00       0.000000000000
      0.8000000000D+00  0.1000000000D+01
 ****
     32 0
 S   3 1.00       0.000000000000
      0.1873113696D+02  0.3349460434D-01
      0.2825394365D+01  0.2347269535D+00
      0.6401216923D+00  0.8137573261D+00
 S   1 1.00       0.000000000000
      0.1612777588D+00  0.1000000000D+01
 ****
     33 0
 S   3 1.00       0.000000000000
      0.1873113696D+02  0.3349460434D-01
      0.2825394365D+01  0.2347269535D+00
      0.6401216923D+00  0.8137573261D+00
 S   1 1.00       0.000000000000
      0.1612777588D+00  0.1000000000D+01
 ****
     34 0
 S   3 1.00       0.000000000000
      0.1873113696D+02  0.3349460434D-01
      0.2825394365D+01  0.2347269535D+00
      0.6401216923D+00  0.8137573261D+00
 S   1 1.00       0.000000000000
      0.1612777588D+00  0.1000000000D+01
 ****
     35 0
 S   6 1.00       0.000000000000
      0.3047524880D+04  0.1834737132D-02
      0.4573695180D+03  0.1403732281D-01
      0.1039486850D+03  0.6884262226D-01
      0.2921015530D+02  0.2321844432D+00
      0.9286662960D+01  0.4679413484D+00
      0.3163926960D+01  0.3623119853D+00
 SP   3 1.00       0.000000000000
      0.7868272350D+01 -0.1193324198D+00  0.6899906659D-01
      0.1881288540D+01 -0.1608541517D+00  0.3164239610D+00
      0.5442492580D+00  0.1143456438D+01  0.7443082909D+00
 SP   1 1.00       0.000000000000
      0.1687144782D+00  0.1000000000D+01  0.1000000000D+01
 D   1 1.00       0.000000000000
      0.8000000000D+00  0.1000000000D+01
 ****
     36 0
 S   6 1.00       0.000000000000
      0.3047524880D+04  0.1834737132D-02
      0.4573695180D+03  0.1403732281D-01
      0.1039486850D+03  0.6884262226D-01
      0.2921015530D+02  0.2321844432D+00
      0.9286662960D+01  0.4679413484D+00
      0.3163926960D+01  0.3623119853D+00
 SP   3 1.00       0.000000000000
      0.7868272350D+01 -0.1193324198D+00  0.6899906659D-01
      0.1881288540D+01 -0.1608541517D+00  0.3164239610D+00
      0.5442492580D+00  0.1143456438D+01  0.7443082909D+00
 SP   1 1.00       0.000000000000
      0.1687144782D+00  0.1000000000D+01  0.1000000000D+01
 D   1 1.00       0.000000000000
      0.8000000000D+00  0.1000000000D+01
 ****
     37 0
 S   3 1.00       0.000000000000
      0.1873113696D+02  0.3349460434D-01
      0.2825394365D+01  0.2347269535D+00
      0.6401216923D+00  0.8137573261D+00
 S   1 1.00       0.000000000000
      0.1612777588D+00  0.1000000000D+01
 ****
     38 0
 S   3 1.00       0.000000000000
      0.1873113696D+02  0.3349460434D-01
      0.2825394365D+01  0.2347269535D+00
      0.6401216923D+00  0.8137573261D+00
 S   1 1.00       0.000000000000
      0.1612777588D+00  0.1000000000D+01
 ****
     39 0
 S   6 1.00       0.000000000000
      0.3047524880D+04  0.1834737132D-02
      0.4573695180D+03  0.1403732281D-01
      0.1039486850D+03  0.6884262226D-01
      0.2921015530D+02  0.2321844432D+00
      0.9286662960D+01  0.4679413484D+00
      0.3163926960D+01  0.3623119853D+00
 SP   3 1.00       0.000000000000
      0.7868272350D+01 -0.1193324198D+00  0.6899906659D-01
      0.1881288540D+01 -0.1608541517D+00  0.3164239610D+00
      0.5442492580D+00  0.1143456438D+01  0.7443082909D+00
 SP   1 1.00       0.000000000000
      0.1687144782D+00  0.1000000000D+01  0.1000000000D+01
 D   1 1.00       0.000000000000
      0.8000000000D+00  0.1000000000D+01
 ****
     40 0
 S   3 1.00       0.000000000000
      0.1873113696D+02  0.3349460434D-01
      0.2825394365D+01  0.2347269535D+00
      0.6401216923D+00  0.8137573261D+00
 S   1 1.00       0.000000000000
      0.1612777588D+00  0.1000000000D+01
 ****
     41 0
 S   6 1.00       0.000000000000
      0.3047524880D+04  0.1834737132D-02
      0.4573695180D+03  0.1403732281D-01
      0.1039486850D+03  0.6884262226D-01
      0.2921015530D+02  0.2321844432D+00
      0.9286662960D+01  0.4679413484D+00
      0.3163926960D+01  0.3623119853D+00
 SP   3 1.00       0.000000000000
      0.7868272350D+01 -0.1193324198D+00  0.6899906659D-01
      0.1881288540D+01 -0.1608541517D+00  0.3164239610D+00
      0.5442492580D+00  0.1143456438D+01  0.7443082909D+00
 SP   1 1.00       0.000000000000
      0.1687144782D+00  0.1000000000D+01  0.1000000000D+01
 D   1 1.00       0.000000000000
      0.8000000000D+00  0.1000000000D+01
 ****
     42 0
 S   3 1.00       0.000000000000
      0.1873113696D+02  0.3349460434D-01
      0.2825394365D+01  0.2347269535D+00
      0.6401216923D+00  0.8137573261D+00
 S   1 1.00       0.000000000000
      0.1612777588D+00  0.1000000000D+01
 ****
     43 0
 S   3 1.00       0.000000000000
      0.1873113696D+02  0.3349460434D-01
      0.2825394365D+01  0.2347269535D+00
      0.6401216923D+00  0.8137573261D+00
 S   1 1.00       0.000000000000
      0.1612777588D+00  0.1000000000D+01
 ****
     44 0
 S   3 1.00       0.000000000000
      0.1873113696D+02  0.3349460434D-01
      0.2825394365D+01  0.2347269535D+00
      0.6401216923D+00  0.8137573261D+00
 S   1 1.00       0.000000000000
      0.1612777588D+00  0.1000000000D+01
 ****
     45 0
 S   6 1.00       0.000000000000
      0.3047524880D+04  0.1834737132D-02
      0.4573695180D+03  0.1403732281D-01
      0.1039486850D+03  0.6884262226D-01
      0.2921015530D+02  0.2321844432D+00
      0.9286662960D+01  0.4679413484D+00
      0.3163926960D+01  0.3623119853D+00
 SP   3 1.00       0.000000000000
      0.7868272350D+01 -0.1193324198D+00  0.6899906659D-01
      0.1881288540D+01 -0.1608541517D+00  0.3164239610D+00
      0.5442492580D+00  0.1143456438D+01  0.7443082909D+00
 SP   1 1.00       0.000000000000
      0.1687144782D+00  0.1000000000D+01  0.1000000000D+01
 D   1 1.00       0.000000000000
      0.8000000000D+00  0.1000000000D+01
 ****
     46 0
 S   3 1.00       0.000000000000
      0.1873113696D+02  0.3349460434D-01
      0.2825394365D+01  0.2347269535D+00
      0.6401216923D+00  0.8137573261D+00
 S   1 1.00       0.000000000000
      0.1612777588D+00  0.1000000000D+01
 ****
     47 0
 S   3 1.00       0.000000000000
      0.1873113696D+02  0.3349460434D-01
      0.2825394365D+01  0.2347269535D+00
      0.6401216923D+00  0.8137573261D+00
 S   1 1.00       0.000000000000
      0.1612777588D+00  0.1000000000D+01
 ****
     48 0
 S   6 1.00       0.000000000000
      0.3047524880D+04  0.1834737132D-02
      0.4573695180D+03  0.1403732281D-01
      0.1039486850D+03  0.6884262226D-01
      0.2921015530D+02  0.2321844432D+00
      0.9286662960D+01  0.4679413484D+00
      0.3163926960D+01  0.3623119853D+00
 SP   3 1.00       0.000000000000
      0.7868272350D+01 -0.1193324198D+00  0.6899906659D-01
      0.1881288540D+01 -0.1608541517D+00  0.3164239610D+00
      0.5442492580D+00  0.1143456438D+01  0.7443082909D+00
 SP   1 1.00       0.000000000000
      0.1687144782D+00  0.1000000000D+01  0.1000000000D+01
 D   1 1.00       0.000000000000
      0.8000000000D+00  0.1000000000D+01
 ****
     49 0
 S   3 1.00       0.000000000000
      0.1873113696D+02  0.3349460434D-01
      0.2825394365D+01  0.2347269535D+00
      0.6401216923D+00  0.8137573261D+00
 S   1 1.00       0.000000000000
      0.1612777588D+00  0.1000000000D+01
 ****
     50 0
 S   3 1.00       0.000000000000
      0.1873113696D+02  0.3349460434D-01
      0.2825394365D+01  0.2347269535D+00
      0.6401216923D+00  0.8137573261D+00
 S   1 1.00       0.000000000000
      0.1612777588D+00  0.1000000000D+01
 ****
     51 0
 S   6 1.00       0.000000000000
      0.3047524880D+04  0.1834737132D-02
      0.4573695180D+03  0.1403732281D-01
      0.1039486850D+03  0.6884262226D-01
      0.2921015530D+02  0.2321844432D+00
      0.9286662960D+01  0.4679413484D+00
      0.3163926960D+01  0.3623119853D+00
 SP   3 1.00       0.000000000000
      0.7868272350D+01 -0.1193324198D+00  0.6899906659D-01
      0.1881288540D+01 -0.1608541517D+00  0.3164239610D+00
      0.5442492580D+00  0.1143456438D+01  0.7443082909D+00
 SP   1 1.00       0.000000000000
      0.1687144782D+00  0.1000000000D+01  0.1000000000D+01
 D   1 1.00       0.000000000000
      0.8000000000D+00  0.1000000000D+01
 ****
     52 0
 S   3 1.00       0.000000000000
      0.1873113696D+02  0.3349460434D-01
      0.2825394365D+01  0.2347269535D+00
      0.6401216923D+00  0.8137573261D+00
 S   1 1.00       0.000000000000
      0.1612777588D+00  0.1000000000D+01
 ****
     53 0
 S   3 1.00       0.000000000000
      0.1873113696D+02  0.3349460434D-01
      0.2825394365D+01  0.2347269535D+00
      0.6401216923D+00  0.8137573261D+00
 S   1 1.00       0.000000000000
      0.1612777588D+00  0.1000000000D+01
 ****
     54 0
 S   6 1.00       0.000000000000
      0.3047524880D+04  0.1834737132D-02
      0.4573695180D+03  0.1403732281D-01
      0.1039486850D+03  0.6884262226D-01
      0.2921015530D+02  0.2321844432D+00
      0.9286662960D+01  0.4679413484D+00
      0.3163926960D+01  0.3623119853D+00
 SP   3 1.00       0.000000000000
      0.7868272350D+01 -0.1193324198D+00  0.6899906659D-01
      0.1881288540D+01 -0.1608541517D+00  0.3164239610D+00
      0.5442492580D+00  0.1143456438D+01  0.7443082909D+00
 SP   1 1.00       0.000000000000
      0.1687144782D+00  0.1000000000D+01  0.1000000000D+01
 D   1 1.00       0.000000000000
      0.8000000000D+00  0.1000000000D+01
 ****
     55 0
 S   3 1.00       0.000000000000
      0.1873113696D+02  0.3349460434D-01
      0.2825394365D+01  0.2347269535D+00
      0.6401216923D+00  0.8137573261D+00
 S   1 1.00       0.000000000000
      0.1612777588D+00  0.1000000000D+01
 ****
     56 0
 S   6 1.00       0.000000000000
      0.3047524880D+04  0.1834737132D-02
      0.4573695180D+03  0.1403732281D-01
      0.1039486850D+03  0.6884262226D-01
      0.2921015530D+02  0.2321844432D+00
      0.9286662960D+01  0.4679413484D+00
      0.3163926960D+01  0.3623119853D+00
 SP   3 1.00       0.000000000000
      0.7868272350D+01 -0.1193324198D+00  0.6899906659D-01
      0.1881288540D+01 -0.1608541517D+00  0.3164239610D+00
      0.5442492580D+00  0.1143456438D+01  0.7443082909D+00
 SP   1 1.00       0.000000000000
      0.1687144782D+00  0.1000000000D+01  0.1000000000D+01
 D   1 1.00       0.000000000000
      0.8000000000D+00  0.1000000000D+01
 ****
     57 0
 S   3 1.00       0.000000000000
      0.1873113696D+02  0.3349460434D-01
      0.2825394365D+01  0.2347269535D+00
      0.6401216923D+00  0.8137573261D+00
 S   1 1.00       0.000000000000
      0.1612777588D+00  0.1000000000D+01
 ****
     58 0
 S   3 1.00       0.000000000000
      0.1873113696D+02  0.3349460434D-01
      0.2825394365D+01  0.2347269535D+00
      0.6401216923D+00  0.8137573261D+00
 S   1 1.00       0.000000000000
      0.1612777588D+00  0.1000000000D+01
 ****
     59 0
 S   3 1.00       0.000000000000
      0.1873113696D+02  0.3349460434D-01
      0.2825394365D+01  0.2347269535D+00
      0.6401216923D+00  0.8137573261D+00
 S   1 1.00       0.000000000000
      0.1612777588D+00  0.1000000000D+01
 ****
     60 0
 S   6 1.00       0.000000000000
      0.3047524880D+04  0.1834737132D-02
      0.4573695180D+03  0.1403732281D-01
      0.1039486850D+03  0.6884262226D-01
      0.2921015530D+02  0.2321844432D+00
      0.9286662960D+01  0.4679413484D+00
      0.3163926960D+01  0.3623119853D+00
 SP   3 1.00       0.000000000000
      0.7868272350D+01 -0.1193324198D+00  0.6899906659D-01
      0.1881288540D+01 -0.1608541517D+00  0.3164239610D+00
      0.5442492580D+00  0.1143456438D+01  0.7443082909D+00
 SP   1 1.00       0.000000000000
      0.1687144782D+00  0.1000000000D+01  0.1000000000D+01
 D   1 1.00       0.000000000000
      0.8000000000D+00  0.1000000000D+01
 ****
     61 0
 S   3 1.00       0.000000000000
      0.1873113696D+02  0.3349460434D-01
      0.2825394365D+01  0.2347269535D+00
      0.6401216923D+00  0.8137573261D+00
 S   1 1.00       0.000000000000
      0.1612777588D+00  0.1000000000D+01
 ****
     62 0
 S   3 1.00       0.000000000000
      0.1873113696D+02  0.3349460434D-01
      0.2825394365D+01  0.2347269535D+00
      0.6401216923D+00  0.8137573261D+00
 S   1 1.00       0.000000000000
      0.1612777588D+00  0.1000000000D+01
 ****
     63 0
 S   6 1.00       0.000000000000
      0.3047524880D+04  0.1834737132D-02
      0.4573695180D+03  0.1403732281D-01
      0.1039486850D+03  0.6884262226D-01
      0.2921015530D+02  0.2321844432D+00
      0.9286662960D+01  0.4679413484D+00
      0.3163926960D+01  0.3623119853D+00
 SP   3 1.00       0.000000000000
      0.7868272350D+01 -0.1193324198D+00  0.6899906659D-01
      0.1881288540D+01 -0.1608541517D+00  0.3164239610D+00
      0.5442492580D+00  0.1143456438D+01  0.7443082909D+00
 SP   1 1.00       0.000000000000
      0.1687144782D+00  0.1000000000D+01  0.1000000000D+01
 D   1 1.00       0.000000000000
      0.8000000000D+00  0.1000000000D+01
 ****
     64 0
 S   3 1.00       0.000000000000
      0.1873113696D+02  0.3349460434D-01
      0.2825394365D+01  0.2347269535D+00
      0.6401216923D+00  0.8137573261D+00
 S   1 1.00       0.000000000000
      0.1612777588D+00  0.1000000000D+01
 ****
     65 0
 S   3 1.00       0.000000000000
      0.1873113696D+02  0.3349460434D-01
      0.2825394365D+01  0.2347269535D+00
      0.6401216923D+00  0.8137573261D+00
 S   1 1.00       0.000000000000
      0.1612777588D+00  0.1000000000D+01
 ****
     66 0
 S   6 1.00       0.000000000000
      0.3047524880D+04  0.1834737132D-02
      0.4573695180D+03  0.1403732281D-01
      0.1039486850D+03  0.6884262226D-01
      0.2921015530D+02  0.2321844432D+00
      0.9286662960D+01  0.4679413484D+00
      0.3163926960D+01  0.3623119853D+00
 SP   3 1.00       0.000000000000
      0.7868272350D+01 -0.1193324198D+00  0.6899906659D-01
      0.1881288540D+01 -0.1608541517D+00  0.3164239610D+00
      0.5442492580D+00  0.1143456438D+01  0.7443082909D+00
 SP   1 1.00       0.000000000000
      0.1687144782D+00  0.1000000000D+01  0.1000000000D+01
 D   1 1.00       0.000000000000
      0.8000000000D+00  0.1000000000D+01
 ****
     67 0
 S   3 1.00       0.000000000000
      0.1873113696D+02  0.3349460434D-01
      0.2825394365D+01  0.2347269535D+00
      0.6401216923D+00  0.8137573261D+00
 S   1 1.00       0.000000000000
      0.1612777588D+00  0.1000000000D+01
 ****
     68 0
 S   6 1.00       0.000000000000
      0.3047524880D+04  0.1834737132D-02
      0.4573695180D+03  0.1403732281D-01
      0.1039486850D+03  0.6884262226D-01
      0.2921015530D+02  0.2321844432D+00
      0.9286662960D+01  0.4679413484D+00
      0.3163926960D+01  0.3623119853D+00
 SP   3 1.00       0.000000000000
      0.7868272350D+01 -0.1193324198D+00  0.6899906659D-01
      0.1881288540D+01 -0.1608541517D+00  0.3164239610D+00
      0.5442492580D+00  0.1143456438D+01  0.7443082909D+00
 SP   1 1.00       0.000000000000
      0.1687144782D+00  0.1000000000D+01  0.1000000000D+01
 D   1 1.00       0.000000000000
      0.8000000000D+00  0.1000000000D+01
 ****
     69 0
 S   3 1.00       0.000000000000
      0.1873113696D+02  0.3349460434D-01
      0.2825394365D+01  0.2347269535D+00
      0.6401216923D+00  0.8137573261D+00
 S   1 1.00       0.000000000000
      0.1612777588D+00  0.1000000000D+01
 ****
     70 0
 S   3 1.00       0.000000000000
      0.1873113696D+02  0.3349460434D-01
      0.2825394365D+01  0.2347269535D+00
      0.6401216923D+00  0.8137573261D+00
 S   1 1.00       0.000000000000
      0.1612777588D+00  0.1000000000D+01
 ****
     71 0
 S   3 1.00       0.000000000000
      0.1873113696D+02  0.3349460434D-01
      0.2825394365D+01  0.2347269535D+00
      0.6401216923D+00  0.8137573261D+00
 S   1 1.00       0.000000000000
      0.1612777588D+00  0.1000000000D+01
 ****
     72 0
 S   6 1.00       0.000000000000
      0.3047524880D+04  0.1834737132D-02
      0.4573695180D+03  0.1403732281D-01
      0.1039486850D+03  0.6884262226D-01
      0.2921015530D+02  0.2321844432D+00
      0.9286662960D+01  0.4679413484D+00
      0.3163926960D+01  0.3623119853D+00
 SP   3 1.00       0.000000000000
      0.7868272350D+01 -0.1193324198D+00  0.6899906659D-01
      0.1881288540D+01 -0.1608541517D+00  0.3164239610D+00
      0.5442492580D+00  0.1143456438D+01  0.7443082909D+00
 SP   1 1.00       0.000000000000
      0.1687144782D+00  0.1000000000D+01  0.1000000000D+01
 D   1 1.00       0.000000000000
      0.8000000000D+00  0.1000000000D+01
 ****
     73 0
 S   3 1.00       0.000000000000
      0.1873113696D+02  0.3349460434D-01
      0.2825394365D+01  0.2347269535D+00
      0.6401216923D+00  0.8137573261D+00
 S   1 1.00       0.000000000000
      0.1612777588D+00  0.1000000000D+01
 ****
     74 0
 S   3 1.00       0.000000000000
      0.1873113696D+02  0.3349460434D-01
      0.2825394365D+01  0.2347269535D+00
      0.6401216923D+00  0.8137573261D+00
 S   1 1.00       0.000000000000
      0.1612777588D+00  0.1000000000D+01
 ****
     75 0
 S   3 1.00       0.000000000000
      0.1873113696D+02  0.3349460434D-01
      0.2825394365D+01  0.2347269535D+00
      0.6401216923D+00  0.8137573261D+00
 S   1 1.00       0.000000000000
      0.1612777588D+00  0.1000000000D+01
 ****

 AO basis set (Overlap normalization):
 Atom O1       Shell     1 S   6     bf    1 -     1          0.000000000000          0.000000000000          0.000000000000
      0.5484671660D+04  0.1831074430D-02
      0.8252349460D+03  0.1395017220D-01
      0.1880469580D+03  0.6844507810D-01
      0.5296450000D+02  0.2327143360D+00
      0.1689757040D+02  0.4701928980D+00
      0.5799635340D+01  0.3585208530D+00
 Atom O1       Shell     2 SP   3    bf    2 -     5          0.000000000000          0.000000000000          0.000000000000
      0.1553961625D+02 -0.1107775495D+00  0.7087426823D-01
      0.3599933586D+01 -0.1480262627D+00  0.3397528391D+00
      0.1013761750D+01  0.1130767015D+01  0.7271585773D+00
 Atom O1       Shell     3 SP   1    bf    6 -     9          0.000000000000          0.000000000000          0.000000000000
      0.2700058226D+00  0.1000000000D+01  0.1000000000D+01
 Atom O1       Shell     4 D   1     bf   10 -    15          0.000000000000          0.000000000000          0.000000000000
      0.8000000000D+00  0.1000000000D+01
 Atom H2       Shell     5 S   3     bf   16 -    16          1.826477944081          0.000000000000          0.000000000000
      0.1873113696D+02  0.3349460434D-01
      0.2825394365D+01  0.2347269535D+00
      0.6401216923D+00  0.8137573261D+00
 Atom H2       Shell     6 S   1     bf   17 -    17          1.826477944081          0.000000000000          0.000000000000
      0.1612777588D+00  0.1000000000D+01
 Atom O3       Shell     7 S   6     bf   18 -    18          8.251483886909         -2.619176936386         -9.286947302766
      0.5484671660D+04  0.1831074430D-02
      0.8252349460D+03  0.1395017220D-01
      0.1880469580D+03  0.6844507810D-01
      0.5296450000D+02  0.2327143360D+00
      0.1689757040D+02  0.4701928980D+00
      0.5799635340D+01  0.3585208530D+00
 Atom O3       Shell     8 SP   3    bf   19 -    22          8.251483886909         -2.619176936386         -9.286947302766
      0.1553961625D+02 -0.1107775495D+00  0.7087426823D-01
      0.3599933586D+01 -0.1480262627D+00  0.3397528391D+00
      0.1013761750D+01  0.1130767015D+01  0.7271585773D+00
 Atom O3       Shell     9 SP   1    bf   23 -    26          8.251483886909         -2.619176936386         -9.286947302766
      0.2700058226D+00  0.1000000000D+01  0.1000000000D+01
 Atom O3       Shell    10 D   1     bf   27 -    32          8.251483886909         -2.619176936386         -9.286947302766
      0.8000000000D+00  0.1000000000D+01
 Atom H4       Shell    11 S   3     bf   33 -    33          7.728693117562         -2.300845388342        -11.009879838786
      0.1873113696D+02  0.3349460434D-01
      0.2825394365D+01  0.2347269535D+00
      0.6401216923D+00  0.8137573261D+00
 Atom H4       Shell    12 S   1     bf   34 -    34          7.728693117562         -2.300845388342        -11.009879838786
      0.1612777588D+00  0.1000000000D+01
 Atom C5       Shell    13 S   6     bf   35 -    35         -2.346314844716          7.696534079486         -1.628458304726
      0.3047524880D+04  0.1834737132D-02
      0.4573695180D+03  0.1403732281D-01
      0.1039486850D+03  0.6884262226D-01
      0.2921015530D+02  0.2321844432D+00
      0.9286662960D+01  0.4679413484D+00
      0.3163926960D+01  0.3623119853D+00
 Atom C5       Shell    14 SP   3    bf   36 -    39         -2.346314844716          7.696534079486         -1.628458304726
      0.7868272350D+01 -0.1193324198D+00  0.6899906659D-01
      0.1881288540D+01 -0.1608541517D+00  0.3164239610D+00
      0.5442492580D+00  0.1143456438D+01  0.7443082909D+00
 Atom C5       Shell    15 SP   1    bf   40 -    43         -2.346314844716          7.696534079486         -1.628458304726
      0.1687144782D+00  0.1000000000D+01  0.1000000000D+01
 Atom C5       Shell    16 D   1     bf   44 -    49         -2.346314844716          7.696534079486         -1.628458304726
      0.8000000000D+00  0.1000000000D+01
 Atom C6       Shell    17 S   6     bf   50 -    50         -2.165160935508          4.824076166851         -1.089292907259
      0.3047524880D+04  0.1834737132D-02
      0.4573695180D+03  0.1403732281D-01
      0.1039486850D+03  0.6884262226D-01
      0.2921015530D+02  0.2321844432D+00
      0.9286662960D+01  0.4679413484D+00
      0.3163926960D+01  0.3623119853D+00
 Atom C6       Shell    18 SP   3    bf   51 -    54         -2.165160935508          4.824076166851         -1.089292907259
      0.7868272350D+01 -0.1193324198D+00  0.6899906659D-01
      0.1881288540D+01 -0.1608541517D+00  0.3164239610D+00
      0.5442492580D+00  0.1143456438D+01  0.7443082909D+00
 Atom C6       Shell    19 SP   1    bf   55 -    58         -2.165160935508          4.824076166851         -1.089292907259
      0.1687144782D+00  0.1000000000D+01  0.1000000000D+01
 Atom C6       Shell    20 D   1     bf   59 -    64         -2.165160935508          4.824076166851         -1.089292907259
      0.8000000000D+00  0.1000000000D+01
 Atom H7       Shell    21 S   3     bf   65 -    65         -0.842464457583          4.637232424538          0.500696544936
      0.1873113696D+02  0.3349460434D-01
      0.2825394365D+01  0.2347269535D+00
      0.6401216923D+00  0.8137573261D+00
 Atom H7       Shell    22 S   1     bf   66 -    66         -0.842464457583          4.637232424538          0.500696544936
      0.1612777588D+00  0.1000000000D+01
 Atom C8       Shell    23 S   6     bf   67 -    67         -1.017703505098          3.268678359389         -3.246278566262
      0.3047524880D+04  0.1834737132D-02
      0.4573695180D+03  0.1403732281D-01
      0.1039486850D+03  0.6884262226D-01
      0.2921015530D+02  0.2321844432D+00
      0.9286662960D+01  0.4679413484D+00
      0.3163926960D+01  0.3623119853D+00
 Atom C8       Shell    24 SP   3    bf   68 -    71         -1.017703505098          3.268678359389         -3.246278566262
      0.7868272350D+01 -0.1193324198D+00  0.6899906659D-01
      0.1881288540D+01 -0.1608541517D+00  0.3164239610D+00
      0.5442492580D+00  0.1143456438D+01  0.7443082909D+00
 Atom C8       Shell    25 SP   1    bf   72 -    75         -1.017703505098          3.268678359389         -3.246278566262
      0.1687144782D+00  0.1000000000D+01  0.1000000000D+01
 Atom C8       Shell    26 D   1     bf   76 -    81         -1.017703505098          3.268678359389         -3.246278566262
      0.8000000000D+00  0.1000000000D+01
 Atom H9       Shell    27 S   3     bf   82 -    82         -2.262358016495          3.377065737131         -4.906624279829
      0.1873113696D+02  0.3349460434D-01
      0.2825394365D+01  0.2347269535D+00
      0.6401216923D+00  0.8137573261D+00
 Atom H9       Shell    28 S   1     bf   83 -    83         -2.262358016495          3.377065737131         -4.906624279829
      0.1612777588D+00  0.1000000000D+01
 Atom C10      Shell    29 S   6     bf   84 -    84          1.632043568734          4.312189060599         -3.952406974542
      0.3047524880D+04  0.1834737132D-02
      0.4573695180D+03  0.1403732281D-01
      0.1039486850D+03  0.6884262226D-01
      0.2921015530D+02  0.2321844432D+00
      0.9286662960D+01  0.4679413484D+00
      0.3163926960D+01  0.3623119853D+00
 Atom C10      Shell    30 SP   3    bf   85 -    88          1.632043568734          4.312189060599         -3.952406974542
      0.7868272350D+01 -0.1193324198D+00  0.6899906659D-01
      0.1881288540D+01 -0.1608541517D+00  0.3164239610D+00
      0.5442492580D+00  0.1143456438D+01  0.7443082909D+00
 Atom C10      Shell    31 SP   1    bf   89 -    92          1.632043568734          4.312189060599         -3.952406974542
      0.1687144782D+00  0.1000000000D+01  0.1000000000D+01
 Atom C10      Shell    32 D   1     bf   93 -    98          1.632043568734          4.312189060599         -3.952406974542
      0.8000000000D+00  0.1000000000D+01
 Atom H11      Shell    33 S   3     bf   99 -    99          2.861062051471          3.872468724532         -2.328023958708
      0.1873113696D+02  0.3349460434D-01
      0.2825394365D+01  0.2347269535D+00
      0.6401216923D+00  0.8137573261D+00
 Atom H11      Shell    34 S   1     bf  100 -   100          2.861062051471          3.872468724532         -2.328023958708
      0.1612777588D+00  0.1000000000D+01
 Atom C12      Shell    35 S   6     bf  101 -   101         -3.594127882166          8.582313819034          0.893249978130
      0.3047524880D+04  0.1834737132D-02
      0.4573695180D+03  0.1403732281D-01
      0.1039486850D+03  0.6884262226D-01
      0.2921015530D+02  0.2321844432D+00
      0.9286662960D+01  0.4679413484D+00
      0.3163926960D+01  0.3623119853D+00
 Atom C12      Shell    36 SP   3    bf  102 -   105         -3.594127882166          8.582313819034          0.893249978130
      0.7868272350D+01 -0.1193324198D+00  0.6899906659D-01
      0.1881288540D+01 -0.1608541517D+00  0.3164239610D+00
      0.5442492580D+00  0.1143456438D+01  0.7443082909D+00
 Atom C12      Shell    37 SP   1    bf  106 -   109         -3.594127882166          8.582313819034          0.893249978130
      0.1687144782D+00  0.1000000000D+01  0.1000000000D+01
 Atom C12      Shell    38 D   1     bf  110 -   115         -3.594127882166          8.582313819034          0.893249978130
      0.8000000000D+00  0.1000000000D+01
 Atom H13      Shell    39 S   3     bf  116 -   116         -2.108969362028          8.292890885632          2.317450978790
      0.1873113696D+02  0.3349460434D-01
      0.2825394365D+01  0.2347269535D+00
      0.6401216923D+00  0.8137573261D+00
 Atom H13      Shell    40 S   1     bf  117 -   117         -2.108969362028          8.292890885632          2.317450978790
      0.1612777588D+00  0.1000000000D+01
 Atom C14      Shell    41 S   6     bf  118 -   118          0.361229408404          8.661666159457         -2.063914681643
      0.3047524880D+04  0.1834737132D-02
      0.4573695180D+03  0.1403732281D-01
      0.1039486850D+03  0.6884262226D-01
      0.2921015530D+02  0.2321844432D+00
      0.9286662960D+01  0.4679413484D+00
      0.3163926960D+01  0.3623119853D+00
 Atom C14      Shell    42 SP   3    bf  119 -   122          0.361229408404          8.661666159457         -2.063914681643
      0.7868272350D+01 -0.1193324198D+00  0.6899906659D-01
      0.1881288540D+01 -0.1608541517D+00  0.3164239610D+00
      0.5442492580D+00  0.1143456438D+01  0.7443082909D+00
 Atom C14      Shell    43 SP   1    bf  123 -   126          0.361229408404          8.661666159457         -2.063914681643
      0.1687144782D+00  0.1000000000D+01  0.1000000000D+01
 Atom C14      Shell    44 D   1     bf  127 -   132          0.361229408404          8.661666159457         -2.063914681643
      0.8000000000D+00  0.1000000000D+01
 Atom H15      Shell    45 S   3     bf  133 -   133          1.449015901579          8.407282716983         -0.312020259603
      0.1873113696D+02  0.3349460434D-01
      0.2825394365D+01  0.2347269535D+00
      0.6401216923D+00  0.8137573261D+00
 Atom H15      Shell    46 S   1     bf  134 -   134          1.449015901579          8.407282716983         -0.312020259603
      0.1612777588D+00  0.1000000000D+01
 Atom H16      Shell    47 S   3     bf  135 -   135          0.383068066254         10.693864603652         -2.485803032797
      0.1873113696D+02  0.3349460434D-01
      0.2825394365D+01  0.2347269535D+00
      0.6401216923D+00  0.8137573261D+00
 Atom H16      Shell    48 S   1     bf  136 -   136          0.383068066254         10.693864603652         -2.485803032797
      0.1612777588D+00  0.1000000000D+01
 Atom C17      Shell    49 S   6     bf  137 -   137          2.814820112848          2.890034860108         -6.270422187761
      0.3047524880D+04  0.1834737132D-02
      0.4573695180D+03  0.1403732281D-01
      0.1039486850D+03  0.6884262226D-01
      0.2921015530D+02  0.2321844432D+00
      0.9286662960D+01  0.4679413484D+00
      0.3163926960D+01  0.3623119853D+00
 Atom C17      Shell    50 SP   3    bf  138 -   141          2.814820112848          2.890034860108         -6.270422187761
      0.7868272350D+01 -0.1193324198D+00  0.6899906659D-01
      0.1881288540D+01 -0.1608541517D+00  0.3164239610D+00
      0.5442492580D+00  0.1143456438D+01  0.7443082909D+00
 Atom C17      Shell    51 SP   1    bf  142 -   145          2.814820112848          2.890034860108         -6.270422187761
      0.1687144782D+00  0.1000000000D+01  0.1000000000D+01
 Atom C17      Shell    52 D   1     bf  146 -   151          2.814820112848          2.890034860108         -6.270422187761
      0.8000000000D+00  0.1000000000D+01
 Atom C18      Shell    53 S   6     bf  152 -   152         -4.785885973336          4.116732759154         -0.040386168665
      0.3047524880D+04  0.1834737132D-02
      0.4573695180D+03  0.1403732281D-01
      0.1039486850D+03  0.6884262226D-01
      0.2921015530D+02  0.2321844432D+00
      0.9286662960D+01  0.4679413484D+00
      0.3163926960D+01  0.3623119853D+00
 Atom C18      Shell    54 SP   3    bf  153 -   156         -4.785885973336          4.116732759154         -0.040386168665
      0.7868272350D+01 -0.1193324198D+00  0.6899906659D-01
      0.1881288540D+01 -0.1608541517D+00  0.3164239610D+00
      0.5442492580D+00  0.1143456438D+01  0.7443082909D+00
 Atom C18      Shell    55 SP   1    bf  157 -   160         -4.785885973336          4.116732759154         -0.040386168665
      0.1687144782D+00  0.1000000000D+01  0.1000000000D+01
 Atom C18      Shell    56 D   1     bf  161 -   166         -4.785885973336          4.116732759154         -0.040386168665
      0.8000000000D+00  0.1000000000D+01
 Atom H19      Shell    57 S   3     bf  167 -   167         -4.692374179561          2.453832079163          1.182777281107
      0.1873113696D+02  0.3349460434D-01
      0.2825394365D+01  0.2347269535D+00
      0.6401216923D+00  0.8137573261D+00
 Atom H19      Shell    58 S   1     bf  168 -   168         -4.692374179561          2.453832079163          1.182777281107
      0.1612777588D+00  0.1000000000D+01
 Atom H20      Shell    59 S   3     bf  169 -   169         -6.107261494899          3.667701194410         -1.574824192109
      0.1873113696D+02  0.3349460434D-01
      0.2825394365D+01  0.2347269535D+00
      0.6401216923D+00  0.8137573261D+00
 Atom H20      Shell    60 S   1     bf  170 -   170         -6.107261494899          3.667701194410         -1.574824192109
      0.1612777588D+00  0.1000000000D+01
 Atom C21      Shell    61 S   6     bf  171 -   171          1.670256382271          7.228036256874         -4.239354517889
      0.3047524880D+04  0.1834737132D-02
      0.4573695180D+03  0.1403732281D-01
      0.1039486850D+03  0.6884262226D-01
      0.2921015530D+02  0.2321844432D+00
      0.9286662960D+01  0.4679413484D+00
      0.3163926960D+01  0.3623119853D+00
 Atom C21      Shell    62 SP   3    bf  172 -   175          1.670256382271          7.228036256874         -4.239354517889
      0.7868272350D+01 -0.1193324198D+00  0.6899906659D-01
      0.1881288540D+01 -0.1608541517D+00  0.3164239610D+00
      0.5442492580D+00  0.1143456438D+01  0.7443082909D+00
 Atom C21      Shell    63 SP   1    bf  176 -   179          1.670256382271          7.228036256874         -4.239354517889
      0.1687144782D+00  0.1000000000D+01  0.1000000000D+01
 Atom C21      Shell    64 D   1     bf  180 -   185          1.670256382271          7.228036256874         -4.239354517889
      0.8000000000D+00  0.1000000000D+01
 Atom H22      Shell    65 S   3     bf  186 -   186          0.767971018788          7.770939570427         -6.019421940879
      0.1873113696D+02  0.3349460434D-01
      0.2825394365D+01  0.2347269535D+00
      0.6401216923D+00  0.8137573261D+00
 Atom H22      Shell    66 S   1     bf  187 -   187          0.767971018788          7.770939570427         -6.019421940879
      0.1612777588D+00  0.1000000000D+01
 Atom H23      Shell    67 S   3     bf  188 -   188          3.631136203163          7.880415770572         -4.376396209827
      0.1873113696D+02  0.3349460434D-01
      0.2825394365D+01  0.2347269535D+00
      0.6401216923D+00  0.8137573261D+00
 Atom H23      Shell    68 S   1     bf  189 -   189          3.631136203163          7.880415770572         -4.376396209827
      0.1612777588D+00  0.1000000000D+01
 Atom C24      Shell    69 S   6     bf  190 -   190         -5.653959999472          6.534581504774          1.410250739990
      0.3047524880D+04  0.1834737132D-02
      0.4573695180D+03  0.1403732281D-01
      0.1039486850D+03  0.6884262226D-01
      0.2921015530D+02  0.2321844432D+00
      0.9286662960D+01  0.4679413484D+00
      0.3163926960D+01  0.3623119853D+00
 Atom C24      Shell    70 SP   3    bf  191 -   194         -5.653959999472          6.534581504774          1.410250739990
      0.7868272350D+01 -0.1193324198D+00  0.6899906659D-01
      0.1881288540D+01 -0.1608541517D+00  0.3164239610D+00
      0.5442492580D+00  0.1143456438D+01  0.7443082909D+00
 Atom C24      Shell    71 SP   1    bf  195 -   198         -5.653959999472          6.534581504774          1.410250739990
      0.1687144782D+00  0.1000000000D+01  0.1000000000D+01
 Atom C24      Shell    72 D   1     bf  199 -   204         -5.653959999472          6.534581504774          1.410250739990
      0.8000000000D+00  0.1000000000D+01
 Atom H25      Shell    73 S   3     bf  205 -   205         -7.510919339460          7.148233575817          0.742277187346
      0.1873113696D+02  0.3349460434D-01
      0.2825394365D+01  0.2347269535D+00
      0.6401216923D+00  0.8137573261D+00
 Atom H25      Shell    74 S   1     bf  206 -   206         -7.510919339460          7.148233575817          0.742277187346
      0.1612777588D+00  0.1000000000D+01
 Atom H26      Shell    75 S   3     bf  207 -   207         -5.851640168425          6.176556675048          3.438422045515
      0.1873113696D+02  0.3349460434D-01
      0.2825394365D+01  0.2347269535D+00
      0.6401216923D+00  0.8137573261D+00
 Atom H26      Shell    76 S   1     bf  208 -   208         -5.851640168425          6.176556675048          3.438422045515
      0.1612777588D+00  0.1000000000D+01
 Atom C27      Shell    77 S   6     bf  209 -   209         -0.848876279455          0.439062465708         -2.562470242460
      0.3047524880D+04  0.1834737132D-02
      0.4573695180D+03  0.1403732281D-01
      0.1039486850D+03  0.6884262226D-01
      0.2921015530D+02  0.2321844432D+00
      0.9286662960D+01  0.4679413484D+00
      0.3163926960D+01  0.3623119853D+00
 Atom C27      Shell    78 SP   3    bf  210 -   213         -0.848876279455          0.439062465708         -2.562470242460
      0.7868272350D+01 -0.1193324198D+00  0.6899906659D-01
      0.1881288540D+01 -0.1608541517D+00  0.3164239610D+00
      0.5442492580D+00  0.1143456438D+01  0.7443082909D+00
 Atom C27      Shell    79 SP   1    bf  214 -   217         -0.848876279455          0.439062465708         -2.562470242460
      0.1687144782D+00  0.1000000000D+01  0.1000000000D+01
 Atom C27      Shell    80 D   1     bf  218 -   223         -0.848876279455          0.439062465708         -2.562470242460
      0.8000000000D+00  0.1000000000D+01
 Atom H28      Shell    81 S   3     bf  224 -   224         -2.762965196282         -0.352845770697         -2.577058795925
      0.1873113696D+02  0.3349460434D-01
      0.2825394365D+01  0.2347269535D+00
      0.6401216923D+00  0.8137573261D+00
 Atom H28      Shell    82 S   1     bf  225 -   225         -2.762965196282         -0.352845770697         -2.577058795925
      0.1612777588D+00  0.1000000000D+01
 Atom C29      Shell    83 S   6     bf  226 -   226         -4.387758358276         11.402222983256          1.162562634999
      0.3047524880D+04  0.1834737132D-02
      0.4573695180D+03  0.1403732281D-01
      0.1039486850D+03  0.6884262226D-01
      0.2921015530D+02  0.2321844432D+00
      0.9286662960D+01  0.4679413484D+00
      0.3163926960D+01  0.3623119853D+00
 Atom C29      Shell    84 SP   3    bf  227 -   230         -4.387758358276         11.402222983256          1.162562634999
      0.7868272350D+01 -0.1193324198D+00  0.6899906659D-01
      0.1881288540D+01 -0.1608541517D+00  0.3164239610D+00
      0.5442492580D+00  0.1143456438D+01  0.7443082909D+00
 Atom C29      Shell    85 SP   1    bf  231 -   234         -4.387758358276         11.402222983256          1.162562634999
      0.1687144782D+00  0.1000000000D+01  0.1000000000D+01
 Atom C29      Shell    86 D   1     bf  235 -   240         -4.387758358276         11.402222983256          1.162562634999
      0.8000000000D+00  0.1000000000D+01
 Atom H30      Shell    87 S   3     bf  241 -   241         -3.062468098953         12.507368670762          0.000000000000
      0.1873113696D+02  0.3349460434D-01
      0.2825394365D+01  0.2347269535D+00
      0.6401216923D+00  0.8137573261D+00
 Atom H30      Shell    88 S   1     bf  242 -   242         -3.062468098953         12.507368670762          0.000000000000
      0.1612777588D+00  0.1000000000D+01
 Atom C31      Shell    89 S   6     bf  243 -   243         -4.020534152763          8.313145990776         -3.938618398841
      0.3047524880D+04  0.1834737132D-02
      0.4573695180D+03  0.1403732281D-01
      0.1039486850D+03  0.6884262226D-01
      0.2921015530D+02  0.2321844432D+00
      0.9286662960D+01  0.4679413484D+00
      0.3163926960D+01  0.3623119853D+00
 Atom C31      Shell    90 SP   3    bf  244 -   247         -4.020534152763          8.313145990776         -3.938618398841
      0.7868272350D+01 -0.1193324198D+00  0.6899906659D-01
      0.1881288540D+01 -0.1608541517D+00  0.3164239610D+00
      0.5442492580D+00  0.1143456438D+01  0.7443082909D+00
 Atom C31      Shell    91 SP   1    bf  248 -   251         -4.020534152763          8.313145990776         -3.938618398841
      0.1687144782D+00  0.1000000000D+01  0.1000000000D+01
 Atom C31      Shell    92 D   1     bf  252 -   257         -4.020534152763          8.313145990776         -3.938618398841
      0.8000000000D+00  0.1000000000D+01
 Atom H32      Shell    93 S   3     bf  258 -   258         -3.296228922345          7.463913838096         -5.676523386190
      0.1873113696D+02  0.3349460434D-01
      0.2825394365D+01  0.2347269535D+00
      0.6401216923D+00  0.8137573261D+00
 Atom H32      Shell    94 S   1     bf  259 -   259         -3.296228922345          7.463913838096         -5.676523386190
      0.1612777588D+00  0.1000000000D+01
 Atom H33      Shell    95 S   3     bf  260 -   260         -5.958866706301          7.637341186270         -3.699800592729
      0.1873113696D+02  0.3349460434D-01
      0.2825394365D+01  0.2347269535D+00
      0.6401216923D+00  0.8137573261D+00
 Atom H33      Shell    96 S   1     bf  261 -   261         -5.958866706301          7.637341186270         -3.699800592729
      0.1612777588D+00  0.1000000000D+01
 Atom H34      Shell    97 S   3     bf  262 -   262         -4.102192582678         10.358106020108         -4.250825854714
      0.1873113696D+02  0.3349460434D-01
      0.2825394365D+01  0.2347269535D+00
      0.6401216923D+00  0.8137573261D+00
 Atom H34      Shell    98 S   1     bf  263 -   263         -4.102192582678         10.358106020108         -4.250825854714
      0.1612777588D+00  0.1000000000D+01
 Atom C35      Shell    99 S   6     bf  264 -   264          2.427054584271          0.028139212646         -6.005504996082
      0.3047524880D+04  0.1834737132D-02
      0.4573695180D+03  0.1403732281D-01
      0.1039486850D+03  0.6884262226D-01
      0.2921015530D+02  0.2321844432D+00
      0.9286662960D+01  0.4679413484D+00
      0.3163926960D+01  0.3623119853D+00
 Atom C35      Shell   100 SP   3    bf  265 -   268          2.427054584271          0.028139212646         -6.005504996082
      0.7868272350D+01 -0.1193324198D+00  0.6899906659D-01
      0.1881288540D+01 -0.1608541517D+00  0.3164239610D+00
      0.5442492580D+00  0.1143456438D+01  0.7443082909D+00
 Atom C35      Shell   101 SP   1    bf  269 -   272          2.427054584271          0.028139212646         -6.005504996082
      0.1687144782D+00  0.1000000000D+01  0.1000000000D+01
 Atom C35      Shell   102 D   1     bf  273 -   278          2.427054584271          0.028139212646         -6.005504996082
      0.8000000000D+00  0.1000000000D+01
 Atom C36      Shell   103 S   6     bf  279 -   279          5.712427672489          3.431213552900         -6.332625206836
      0.3047524880D+04  0.1834737132D-02
      0.4573695180D+03  0.1403732281D-01
      0.1039486850D+03  0.6884262226D-01
      0.2921015530D+02  0.2321844432D+00
      0.9286662960D+01  0.4679413484D+00
      0.3163926960D+01  0.3623119853D+00
 Atom C36      Shell   104 SP   3    bf  280 -   283          5.712427672489          3.431213552900         -6.332625206836
      0.7868272350D+01 -0.1193324198D+00  0.6899906659D-01
      0.1881288540D+01 -0.1608541517D+00  0.3164239610D+00
      0.5442492580D+00  0.1143456438D+01  0.7443082909D+00
 Atom C36      Shell   105 SP   1    bf  284 -   287          5.712427672489          3.431213552900         -6.332625206836
      0.1687144782D+00  0.1000000000D+01  0.1000000000D+01
 Atom C36      Shell   106 D   1     bf  288 -   293          5.712427672489          3.431213552900         -6.332625206836
      0.8000000000D+00  0.1000000000D+01
 Atom H37      Shell   107 S   3     bf  294 -   294          6.469484426818          3.138017233253         -4.421114103220
      0.1873113696D+02  0.3349460434D-01
      0.2825394365D+01  0.2347269535D+00
      0.6401216923D+00  0.8137573261D+00
 Atom H37      Shell   108 S   1     bf  295 -   295          6.469484426818          3.138017233253         -4.421114103220
      0.1612777588D+00  0.1000000000D+01
 Atom H38      Shell   109 S   3     bf  296 -   296          6.026465195841          5.426021970316         -6.785636119076
      0.1873113696D+02  0.3349460434D-01
      0.2825394365D+01  0.2347269535D+00
      0.6401216923D+00  0.8137573261D+00
 Atom H38      Shell   110 S   1     bf  297 -   297          6.026465195841          5.426021970316         -6.785636119076
      0.1612777588D+00  0.1000000000D+01
 Atom C39      Shell   111 S   6     bf  298 -   298          0.787522578893         -1.010737048606         -4.369485878201
      0.3047524880D+04  0.1834737132D-02
      0.4573695180D+03  0.1403732281D-01
      0.1039486850D+03  0.6884262226D-01
      0.2921015530D+02  0.2321844432D+00
      0.9286662960D+01  0.4679413484D+00
      0.3163926960D+01  0.3623119853D+00
 Atom C39      Shell   112 SP   3    bf  299 -   302          0.787522578893         -1.010737048606         -4.369485878201
      0.7868272350D+01 -0.1193324198D+00  0.6899906659D-01
      0.1881288540D+01 -0.1608541517D+00  0.3164239610D+00
      0.5442492580D+00  0.1143456438D+01  0.7443082909D+00
 Atom C39      Shell   113 SP   1    bf  303 -   306          0.787522578893         -1.010737048606         -4.369485878201
      0.1687144782D+00  0.1000000000D+01  0.1000000000D+01
 Atom C39      Shell   114 D   1     bf  307 -   312          0.787522578893         -1.010737048606         -4.369485878201
      0.8000000000D+00  0.1000000000D+01
 Atom H40      Shell   115 S   3     bf  313 -   313          0.643744636901         -3.061737776495         -4.257074971166
[...]
 1566 Fit      -0.001707
 1567 Fit      -0.000341
 1568 Fit       0.000851
 1569 Fit      -0.002549
 1570 Fit      -0.000869
 1571 Fit       0.000766
 1572 Fit       0.002064
 1573 Fit       0.002917
 1574 Fit       0.001382
 1575 Fit      -0.001290
 1576 Fit      -0.001387
 1577 Fit       0.000188
 1578 Fit       0.002059
 1579 Fit       0.002840
 1580 Fit       0.001176
 1581 Fit      -0.002924
 1582 Fit      -0.002934
 1583 Fit      -0.003103
 1584 Fit      -0.002905
 1585 Fit      -0.003279
 1586 Fit      -0.002017
 1587 Fit      -0.002958
 1588 Fit      -0.000725
 1589 Fit       0.000160
 1590 Fit      -0.001374
 1591 Fit      -0.000365
 1592 Fit      -0.000322
 1593 Fit      -0.001692
 1594 Fit      -0.000279
 1595 Fit       0.001037
 1596 Fit       0.001677
 1597 Fit       0.001084
 1598 Fit      -0.000750
 1599 Fit       0.002369
 1600 Fit       0.002491
 1601 Fit       0.001445
 1602 Fit      -0.001488
 1603 Fit      -0.001259
 1604 Fit       0.000633
 1605 Fit       0.000035
 1606 Fit      -0.002265
 1607 Fit      -0.001106
 1608 Fit       0.000993
 1609 Fit       0.001998
 1610 Fit       0.001369
 1611 Fit      -0.000411
 1612 Fit      -0.001702
 1613 Fit       0.000696
 1614 Fit       0.002632
 1615 Fit       0.002251
 1616 Fit       0.000565
 1617 Fit      -0.001361
 1618 Fit       0.000660
 1619 Fit      -0.000871
 1620 Fit      -0.002109
 1621 Fit      -0.000195
 1622 Fit       0.001719
 1623 Fit      -0.001397
 1624 Fit      -0.001042
 1625 Fit       0.000055
 1626 Fit      -0.019525
 1627 Fit      -0.009997
 1628 Fit      -0.013893
 1629 Fit      -0.020374
 1630 Fit      -0.023609
 1631 Fit      -0.023206
 1632 Fit      -0.016310
 1633 Fit      -0.024285
 1634 Fit      -0.024421
 1635 Fit      -0.020410
 1636 Fit      -0.012116
 1637 Fit      -0.021039
 1638 Fit      -0.022190
 1639 Fit      -0.019726
 1640 Fit      -0.012937
 1641 Fit      -0.015170
 1642 Fit      -0.015103
 1643 Fit      -0.011793
 1644 Fit      -0.005421
 1645 Fit       0.002002
 1646 Fit       0.010661
 1647 Fit       0.009782
 1648 Fit       0.003477
 1649 Fit      -0.002320
 1650 Fit       0.006694
 1651 Fit       0.015471
 1652 Fit       0.016168
 1653 Fit       0.005392
 1654 Fit       0.011777
 1655 Fit       0.017063
 1656 Fit       0.011937
 1657 Fit      -0.013947
 1658 Fit      -0.015061
 1659 Fit      -0.018431
 1660 Fit      -0.018012
 1661 Fit      -0.019686
 1662 Fit      -0.012675
 1663 Fit      -0.018547
 1664 Fit      -0.022652
 1665 Fit      -0.023950
 1666 Fit      -0.023062
 1667 Fit      -0.020306
 1668 Fit      -0.015051
 1669 Fit      -0.015593
 1670 Fit      -0.020355
 1671 Fit      -0.022798
 1672 Fit      -0.023573
 1673 Fit      -0.022869
 1674 Fit      -0.015241
 1675 Fit      -0.010263
 1676 Fit      -0.005505
 1677 Fit      -0.011931
 1678 Fit      -0.015774
 1679 Fit      -0.017498
 1680 Fit      -0.017426
 1681 Fit      -0.004650
 1682 Fit       0.000958
 1683 Fit      -0.001651
 1684 Fit      -0.005647
 1685 Fit      -0.006681
 1686 Fit       0.003682
 1687 Fit       0.003049
 1688 Fit       0.008247
 1689 Fit       0.015180
 1690 Fit       0.019374
 1691 Fit       0.012655
 1692 Fit       0.006636
 1693 Fit       0.002490
 1694 Fit       0.001112
 1695 Fit       0.012813
 1696 Fit       0.017897
 1697 Fit       0.022644
 1698 Fit       0.021598
 1699 Fit       0.016290
 1700 Fit       0.012200
 1701 Fit       0.018654
 1702 Fit      -0.006823
 1703 Fit      -0.004187
 1704 Fit      -0.014125
 1705 Fit       0.000630
 1706 Fit       0.004899
 1707 Fit       0.006104
 1708 Fit       0.004894
 1709 Fit       0.009187
 1710 Fit       0.010852
 1711 Fit       0.007550
 1712 Fit      -0.000682
 1713 Fit      -0.002686
 1714 Fit       0.001340
 1715 Fit      -0.005219
 1716 Fit      -0.000926
 1717 Fit       0.000904
 1718 Fit       0.003372
 1719 Fit       0.001980
 1720 Fit       0.002946
 1721 Fit       0.002530
 1722 Fit       0.002103
 1723 Fit       0.003848
 1724 Fit       0.002611
 1725 Fit       0.001447
 1726 Fit       0.004614
 1727 Fit       0.004615
 1728 Fit       0.002950
 1729 Fit       0.001326
 1730 Fit       0.006501
 1731 Fit       0.001186
 1732 Fit       0.002570
 1733 Fit       0.003133
 1734 Fit       0.003818
 1735 Fit       0.003832
 1736 Fit       0.004270
 1737 Fit       0.004887
 1738 Fit       0.004484
 1739 Fit       0.004614
 1740 Fit       0.004903
 1741 Fit       0.004752
 1742 Fit       0.004559
 1743 Fit      -0.006085
 1744 Fit      -0.003923
 1745 Fit      -0.004954
 1746 Fit      -0.013019
 1747 Fit      -0.008589
 1748 Fit      -0.013987
 1749 Fit      -0.006152
 1750 Fit      -0.007556
 1751 Fit      -0.012731
 1752 Fit      -0.006051
 1753 Fit      -0.007170
 1754 Fit      -0.011982
 1755 Fit      -0.005722
 1756 Fit      -0.001571
 1757 Fit      -0.002781
 1758 Fit      -0.003966
 1759 Fit       0.001091
 1760 Fit       0.000068
 1761 Fit      -0.000519
 1762 Fit       0.003656
 1763 Fit       0.002472
 1764 Fit       0.002208
 1765 Fit       0.003860
 1766 Fit       0.004213
 1767 Fit       0.005092
 1768 Fit       0.004734
 1769 Fit       0.006861
 1770 Fit       0.006134
 1771 Fit       0.005470
 1772 Fit       0.006364
 1773 Fit       0.005056
 1774 Fit       0.007317
 1775 Fit       0.006708
 1776 Fit       0.005367
 1777 Fit       0.003926
 1778 Fit       0.008351
 1779 Fit       0.006565
 1780 Fit       0.005033
 1781 Fit       0.006826
 1782 Fit      -0.001820
 1783 Fit      -0.003449
 1784 Fit      -0.004675
 1785 Fit      -0.005992
 1786 Fit      -0.004333
 1787 Fit      -0.002706
 1788 Fit      -0.000085
 1789 Fit      -0.001879
 1790 Fit       0.001112
 1791 Fit      -0.000133
 1792 Fit       0.002305
 1793 Fit      -0.001339
 1794 Fit      -0.002463
 1795 Fit      -0.001177
 1796 Fit      -0.002388
 1797 Fit      -0.003283
 1798 Fit      -0.001420
 1799 Fit      -0.002492
 1800 Fit      -0.003563
 1801 Fit      -0.005096
 1802 Fit      -0.006851
 1803 Fit      -0.006177
 1804 Fit      -0.005388
 1805 Fit       0.003030
 1806 Fit      -0.010353
 1807 Fit      -0.002069
 1808 Fit      -0.003235
 1809 Fit      -0.005206
 1810 Fit       0.001970
 1811 Fit       0.001478
 1812 Fit       0.000823
 1813 Fit       0.000785
 1814 Fit       0.004649
 1815 Fit       0.003370
 1816 Fit       0.002374
 1817 Fit       0.003909
 1818 Fit       0.000722
 1819 Fit       0.000337
 1820 Fit      -0.000500
 1821 Fit       0.002470
 1822 Fit       0.004120
 1823 Fit       0.001516
 1824 Fit       0.004521
 1825 Fit       0.001252
 1826 Fit       0.001145
 1827 Fit       0.001899
 1828 Fit       0.002133
 1829 Fit       0.002399
 1830 Fit       0.005892
 1831 Fit       0.005924
 1832 Fit       0.003596
 1833 Fit       0.004087
 1834 Fit       0.006256
 1835 Fit       0.003616
 1836 Fit       0.003702
 1837 Fit       0.002388
 1838 Fit       0.002948
 1839 Fit       0.003314
 1840 Fit       0.004916
 1841 Fit       0.004302
 1842 Fit       0.004080
 1843 Fit       0.003427
 1844 Fit       0.002323
 1845 Fit       0.003120
 1846 Fit       0.002152
 1847 Fit       0.006491
 1848 Fit       0.009495
 1849 Fit       0.008882
 1850 Fit       0.012843
 1851 Fit       0.007488
 1852 Fit       0.007043
 1853 Fit       0.007090
 1854 Fit       0.008685
 1855 Fit       0.006421
 1856 Fit       0.006258
 1857 Fit       0.006722
 1858 Fit       0.006917
 1859 Fit       0.007990
 1860 Fit       0.007511
 1861 Fit       0.008394
 1862 Fit       0.009267
 1863 Fit       0.008150
 1864 Fit       0.009227
 1865 Fit       0.010422
 1866 Fit       0.009590
 1867 Fit       0.001251
 1868 Fit       0.006404
 1869 Fit       0.001783
 1870 Fit       0.000845
 1871 Fit       0.000297
 1872 Fit      -0.001008
 1873 Fit      -0.000226
 1874 Fit      -0.005248
 1875 Fit      -0.002590
 1876 Fit      -0.001075
 1877 Fit       0.000420
 1878 Fit       0.000220
 1879 Fit       0.000747
 1880 Fit       0.001825
 1881 Fit       0.002403
 1882 Fit       0.002328
 1883 Fit       0.001806
 1884 Fit       0.002702
 1885 Fit       0.003825
 1886 Fit       0.004762
 1887 Fit       0.002478
 1888 Fit       0.004574
 1889 Fit       0.000964
 1890 Fit       0.005723
 1891 Fit       0.009713
 1892 Fit       0.005463
 1893 Fit       0.005316
 1894 Fit       0.005695
 1895 Fit       0.007982
 1896 Fit       0.006331
 1897 Fit       0.006512
 1898 Fit       0.009821
 1899 Fit       0.008807
 1900 Fit       0.008253
 1901 Fit       0.007582
 1902 Fit       0.009279
 1903 Fit       0.008628
 1904 Fit       0.007786
 1905 Fit       0.006612
 1906 Fit       0.007903
 1907 Fit       0.006703
 1908 Fit       0.009478
 1909 Fit       0.015086
 1910 Fit       0.010120
 1911 Fit       0.007784
 1912 Fit       0.008278
 1913 Fit       0.011808
 1914 Fit       0.016775
 1915 Fit       0.011288
 1916 Fit       0.007188
 1917 Fit       0.007113
 1918 Fit       0.006042
 1919 Fit       0.003461
 1920 Fit       0.005862
 1921 Fit       0.006181
 1922 Fit       0.005912
 1923 Fit       0.005057
 1924 Fit       0.005527
 1925 Fit       0.001374
 1926 Fit       0.003536
 1927 Fit       0.003316
 1928 Fit       0.001707
 1929 Fit       0.003122
 1930 Fit      -0.000723
 1931 Fit       0.002513
 1932 Fit      -0.001822
 1933 Fit      -0.009579
 1934 Fit       0.002959
 1935 Fit       0.003353
 1936 Fit       0.001300
 1937 Fit      -0.004029
 1938 Fit       0.002937
 1939 Fit       0.000430
 1940 Fit      -0.007371
 1941 Fit       0.003735
 1942 Fit       0.003595
 1943 Fit       0.007924
 1944 Fit       0.007428
 1945 Fit       0.007965
 1946 Fit       0.023681
 1947 Fit       0.012878
 1948 Fit       0.012728
 1949 Fit       0.018601
 1950 Fit       0.007567
 1951 Fit       0.005740
 1952 Fit       0.007672
 1953 Fit       0.004372
 1954 Fit       0.006009
 1955 Fit       0.007333
 1956 Fit       0.008702
 1957 Fit       0.010153
 1958 Fit       0.012944
 1959 Fit       0.011215
 1960 Fit       0.012907
 1961 Fit       0.017401
 1962 Fit       0.024173
 1963 Fit       0.016065
 1964 Fit       0.005592
 1965 Fit       0.002722
 1966 Fit       0.005224
 1967 Fit      -0.001220
 1968 Fit       0.000918
 1969 Fit       0.004166
 1970 Fit       0.005878
 1971 Fit      -0.005579
 1972 Fit      -0.000148
 1973 Fit       0.003586
 1974 Fit       0.005454
 1975 Fit       0.007054
 1976 Fit      -0.008547
 1977 Fit       0.000144
 1978 Fit       0.003778
 1979 Fit       0.005631
 1980 Fit       0.001946
 1981 Fit       0.002923
 1982 Fit       0.000183
 1983 Fit       0.000758
 1984 Fit      -0.000179
 1985 Fit       0.009476
 1986 Fit       0.005469
 1987 Fit       0.005797
 1988 Fit       0.003662
 1989 Fit       0.001057
 1990 Fit       0.005718
 1991 Fit      -0.000053
 1992 Fit      -0.002387
 1993 Fit      -0.001990
 1994 Fit      -0.005516
 1995 Fit      -0.010837
 1996 Fit      -0.012965
 1997 Fit      -0.010820
 1998 Fit      -0.002970
 1999 Fit      -0.002875
 2000 Fit      -0.002940
 2001 Fit      -0.002726
 2002 Fit      -0.002996
 2003 Fit      -0.002306
 2004 Fit      -0.001637
 2005 Fit      -0.002964
 2006 Fit      -0.001832
 2007 Fit      -0.001320
 2008 Fit      -0.000903
 2009 Fit      -0.001942
 2010 Fit      -0.002120
 2011 Fit      -0.000899
 2012 Fit      -0.000849
 2013 Fit      -0.002068
 2014 Fit      -0.000700
 2015 Fit      -0.000056
 2016 Fit      -0.000087
 2017 Fit      -0.000728
 2018 Fit      -0.002283
 2019 Fit       0.000210
 2020 Fit       0.000053
 2021 Fit      -0.001840
 2022 Fit      -0.001117
 2023 Fit      -0.000346
 2024 Fit       0.000763
 2025 Fit       0.001059
 2026 Fit      -0.000408
 2027 Fit       0.001083
 2028 Fit       0.002248
 2029 Fit      -0.000271
 2030 Fit       0.000987
 2031 Fit      -0.001097
 2032 Fit      -0.002169
 2033 Fit      -0.002096
 2034 Fit       0.000622
 2035 Fit      -0.000251
 2036 Fit      -0.001820
 2037 Fit      -0.001516
 2038 Fit       0.000210
 2039 Fit       0.001703
 2040 Fit       0.000757
 2041 Fit      -0.000750
 2042 Fit       0.001847
 2043 Fit       0.001758
 2044 Fit       0.000786
 2045 Fit      -0.000657
 2046 Fit       0.000200
 2047 Fit      -0.000674
 2048 Fit       0.001861
 2049 Fit       0.000530
 2050 Fit       0.000557
 2051 Fit       0.000465
 2052 Fit       0.000771
 2053 Fit      -0.000137
 2054 Fit       0.002532
 2055 Fit       0.001348
 2056 Fit       0.000433
 2057 Fit       0.004562
 2058 Fit       0.003068
 2059 Fit       0.001756
 2060 Fit       0.000517
 2061 Fit       0.003766
 2062 Fit       0.002240
 2063 Fit       0.002069
 2064 Fit       0.000239
 2065 Fit      -0.001907
 2066 Fit      -0.000865
 2067 Fit      -0.001442
 2068 Fit       0.002687
 2069 Fit       0.001893
 2070 Fit       0.002919
 2071 Fit       0.002876
 2072 Fit       0.002436
 2073 Fit       0.001427
 2074 Fit      -0.000040
 2075 Fit      -0.000399
 2076 Fit       0.001132
 2077 Fit       0.002336
 2078 Fit       0.002241
 2079 Fit       0.001309
 2080 Fit       0.000374
 2081 Fit       0.001441
 2082 Fit       0.002306
 2083 Fit       0.000853
 2084 Fit       0.001533
 2085 Fit       0.001891
 2086 Fit       0.000414
 2087 Fit       0.000861
 2088 Fit       0.001015
 2089 Fit       0.000482
 2090 Fit      -0.000269
 2091 Fit      -0.000664
 2092 Fit      -0.000282
 2093 Fit       0.000332
 2094 Fit       0.000735
 2095 Fit       0.000361
 2096 Fit       0.000860
 2097 Fit       0.000030
 2098 Fit       0.000946
 2099 Fit       0.001134
 2100 Fit      -0.002261
 2101 Fit      -0.001997
 2102 Fit      -0.000790
 2103 Fit      -0.002320
 2104 Fit      -0.002146
 2105 Fit      -0.001429
 2106 Fit      -0.000660
 2107 Fit       0.000435
 2108 Fit      -0.002198
 2109 Fit      -0.002529
 2110 Fit      -0.002157
 2111 Fit      -0.002200
 2112 Fit      -0.001719
 2113 Fit      -0.001743
 2114 Fit      -0.001793
 2115 Fit       0.002005
 2116 Fit       0.000799
 2117 Fit      -0.000544
 2118 Fit      -0.001992
 2119 Fit       0.001848
 2120 Fit       0.001147
 2121 Fit      -0.000050
 2122 Fit      -0.001612
 2123 Fit       0.000909
 2124 Fit       0.000719
 2125 Fit      -0.000357
 2126 Fit      -0.001983
 2127 Fit      -0.000776
 2128 Fit      -0.000900
 2129 Fit       0.002028
 2130 Fit      -0.000434
 2131 Fit       0.000947
 2132 Fit       0.001529
 2133 Fit       0.001292
 2134 Fit       0.000644
 2135 Fit      -0.001629
 2136 Fit      -0.000305
 2137 Fit       0.000574
 2138 Fit       0.000772
 2139 Fit       0.000354
 2140 Fit      -0.000296
 2141 Fit      -0.001552
 2142 Fit      -0.000732
 2143 Fit      -0.000540
 2144 Fit      -0.000926
 2145 Fit      -0.001304
 2146 Fit      -0.000226
 2147 Fit       0.000790
 2148 Fit       0.001679
 2149 Fit      -0.001607
 2150 Fit      -0.000357
 2151 Fit       0.000893
 2152 Fit       0.001929
 2153 Fit       0.002678
 2154 Fit       0.001178
 2155 Fit      -0.000683
 2156 Fit      -0.000824
 2157 Fit       0.000230
 2158 Fit       0.001602
 2159 Fit       0.002243
 2160 Fit       0.000930
 2161 Fit      -0.002221
 2162 Fit      -0.002263
 2163 Fit      -0.002381
 2164 Fit      -0.002227
 2165 Fit      -0.002572
 2166 Fit      -0.001561
 2167 Fit      -0.001208
 2168 Fit      -0.002234
 2169 Fit      -0.000795
 2170 Fit      -0.000366
 2171 Fit      -0.000912
 2172 Fit      -0.000956
 2173 Fit      -0.001862
 2174 Fit      -0.000344
 2175 Fit       0.000188
 2176 Fit       0.000663
 2177 Fit       0.000422
 2178 Fit      -0.000613
 2179 Fit      -0.000040
 2180 Fit       0.001079
 2181 Fit       0.001644
 2182 Fit       0.001441
 2183 Fit       0.000419
 2184 Fit       0.002273
 2185 Fit       0.002267
 2186 Fit      -0.001380
 2187 Fit      -0.001210
 2188 Fit       0.000067
 2189 Fit      -0.000321
 2190 Fit      -0.000933
 2191 Fit       0.000520
 2192 Fit       0.001198
 2193 Fit       0.000747
 2194 Fit      -0.000511
 2195 Fit      -0.001613
 2196 Fit      -0.000061
 2197 Fit       0.001330
 2198 Fit       0.001826
 2199 Fit       0.001136
 2200 Fit       0.000026
 2201 Fit      -0.001326
 2202 Fit      -0.000039
 2203 Fit      -0.000954
 2204 Fit      -0.001727
 2205 Fit      -0.000587
 2206 Fit       0.000891
 2207 Fit      -0.001105
 2208 Fit      -0.001044
 2209 Fit      -0.000365
 2210 Fit       0.000122
 -----------------------------------------------------------------
 Leave Link  602 at Thu May 18 13:22:01 2017, MaxMem=   33554432 cpu:      16.9
 (Enter /scratch/michal/g09/l9999.exe)

 Test job not archived.
 1\1\GINC-RZEPICHA\SP\RHF\6-31G(d)\C27H46O2\MICHAL\18-May-2017\0\\#P HF
 /6-31G* SCF(Conver=6) NoSymm Test Pop=mk IOp(6/33=2) GFInput GFPrint\\
 MEP - Input generated by R.E.D.-III.x MOLECULE\\0,1\O,0,0.,0.,0.\H,0,0
 .9665305,0.,0.\O,0,4.36649721,-1.38600874,-4.91444085\H,0,4.08984825,-
 1.21755494,-5.82617748\C,0,-1.24161634,4.07283042,-0.86174302\C,0,-1.1
 4575382,2.55279116,-0.57642898\H,0,-0.44581299,2.45391771,0.2649572\C,
 0,-0.5385455,1.72971009,-1.71785663\H,0,-1.1971883,1.78706622,-2.59647
 374\C,0,0.86364026,2.28191217,-2.09152369\H,0,1.51400883,2.04922219,-1
 .23193722\C,0,-1.90193056,4.54156487,0.47268753\H,0,-1.11601852,4.3884
 0885,1.22634224\C,0,0.19115437,4.58355632,-1.09217661\H,0,0.76678619,4
 .4489424,-0.16511401\H,0,0.20271089,5.65894942,-1.31543031\C,0,1.48953
 865,1.52934058,-3.31816451\C,0,-2.53258178,2.17848115,-0.02137144\H,0,
 -2.48309747,1.29851201,0.62589878\H,0,-3.23182359,1.94086388,-0.833361
 07\C,0,0.88386161,3.82491205,-2.24336979\H,0,0.40639276,4.11220411,-3.
 1853409\H,0,1.92151452,4.17013642,-2.31588913\C,0,-2.99194677,3.457951
 6,0.74627255\H,0,-3.97460733,3.78268229,0.39279617\H,0,-3.09655461,3.2
 6849302,1.81953458\C,0,-0.44920598,0.23234185,-1.35600085\H,0,-1.46209
 821,-0.18671794,-1.36372078\C,0,-2.32190172,6.03379653,0.61520165\H,0,
 -1.62058832,6.61861444,0.\C,0,-2.12757504,4.39912739,-2.08422709\H,0,-
 1.74428922,3.94973309,-3.0038868\H,0,-3.15329645,4.04150689,-1.9578501
 5\H,0,-2.17078682,5.48127363,-2.24944016\C,0,1.28434197,0.01489063,-3.
 17797637\C,0,3.02288653,1.81572001,-3.35108093\H,0,3.42350371,1.660567
 2,-2.33955282\H,0,3.18906803,2.87132716,-3.59080398\C,0,0.416739,-0.53
 485901,-2.31223234\H,0,0.34065499,-1.62020185,-2.25274705\C,0,0.847766
 68,1.98475689,-4.65733592\H,0,1.12292204,3.01535872,-4.90063768\H,0,1.
 17354036,1.35983419,-5.49256233\H,0,-0.24377143,1.92205754,-4.61534184
 \C,0,2.1102024,-0.87572813,-4.08818919\H,0,1.95737926,-1.92774715,-3.8
 281853\H,0,1.77399672,-0.7568615,-5.13065518\C,0,3.82639192,0.94273741
 ,-4.32702313\H,0,3.5324253,1.15584958,-5.36541878\H,0,4.89381729,1.178
 26172,-4.24887836\C,0,-3.75064054,6.37761138,0.12948505\H,0,-3.9868789
 3,5.82004438,-0.78307349\H,0,-4.47175988,6.03930324,0.88516437\C,0,3.6
 0933606,-0.54303459,-4.04242866\H,0,3.99520037,-0.77733745,-3.04261421
 \C,0,-2.1284655,6.49197028,2.07551599\H,0,-2.75736812,5.90282727,2.754
 70724\H,0,-2.39002861,7.54606474,2.21264366\H,0,-1.08772648,6.36716627
 ,2.39441972\C,0,-3.96601799,7.87282861,-0.16202963\H,0,-3.79811602,8.4
 6581452,0.74500733\H,0,-3.19916968,8.20158961,-0.87776153\C,0,-5.34521
 331,8.21361405,-0.75570074\H,0,-5.46798386,7.65661027,-1.69597103\H,0,
 -5.35491411,9.27866052,-1.03157226\C,0,-6.5747516,7.93853049,0.1363656
 7\H,0,-6.57853799,6.87093812,0.39889839\C,0,-7.8687308,8.22504483,-0.6
 4240954\H,0,-7.92617207,9.28295423,-0.92958296\H,0,-8.75525171,7.99618
 879,-0.03998296\H,0,-7.92347796,7.62811421,-1.56010976\C,0,-6.54342326
 ,8.74542177,1.4440782\H,0,-6.5126184,9.82295971,1.23590676\H,0,-7.4380
 3476,8.54940925,2.04603734\H,0,-5.67257046,8.50014422,2.0604569\\Versi
 on=EM64L-G09RevC.01\HF=-1198.9245873\RMSD=4.952e-07\Dipole=0.0373295,0
 .6235169,-0.7948045\Quadrupole=-6.0433202,-1.9648961,8.0082163,6.79507
 13,2.199588,-4.6385711\PG=C01 [X(C27H46O2)]\\@


 BE CAREFUL NOT TO BECOME TOO GOOD OF A SONGBIRD OR 
 THEY'LL THROW YOU INTO A CAGE.

                                    -- SNOOPY TO WOODSTOCK
 Job cpu time:  0 days  0 hours 40 minutes 26.7 seconds.
 File lengths (MBytes):  RWF=    151 Int=      0 D2E=      0 Chk=     11 Scr=      1
 Normal termination of Gaussian 09 at Thu May 18 13:22:02 2017.
