 Entering Gaussian System, Link 0=/scratch/michal/g09//g09
 Input=JOB2-gau_m1-3-1.com
 Output=JOB2-gau_m1-3-1.log
 Initial command:
 /scratch/michal/g09/l1.exe /scratch/michal/gauss_scratch/Gau-2521.inp -scrdir=/scratch/michal/gauss_scratch/
 Entering Link 1 = /scratch/michal/g09/l1.exe PID=      2523.
  
 Copyright (c) 1988,1990,1992,1993,1995,1998,2003,2009,2011,
            Gaussian, Inc.  All Rights Reserved.
  
 This is part of the Gaussian(R) 09 program.  It is based on
 the Gaussian(R) 03 system (copyright 2003, Gaussian, Inc.),
 the Gaussian(R) 98 system (copyright 1998, Gaussian, Inc.),
 the Gaussian(R) 94 system (copyright 1995, Gaussian, Inc.),
 the Gaussian 92(TM) system (copyright 1992, Gaussian, Inc.),
 the Gaussian 90(TM) system (copyright 1990, Gaussian, Inc.),
 the Gaussian 88(TM) system (copyright 1988, Gaussian, Inc.),
 the Gaussian 86(TM) system (copyright 1986, Carnegie Mellon
 University), and the Gaussian 82(TM) system (copyright 1983,
 Carnegie Mellon University). Gaussian is a federally registered
 trademark of Gaussian, Inc.
  
 This software contains proprietary and confidential information,
 including trade secrets, belonging to Gaussian, Inc.
  
 This software is provided under written license and may be
 used, copied, transmitted, or stored only in accord with that
 written license.
  
 The following legend is applicable only to US Government
 contracts under FAR:
  
                    RESTRICTED RIGHTS LEGEND
  
 Use, reproduction and disclosure by the US Government is
 subject to restrictions as set forth in subparagraphs (a)
 and (c) of the Commercial Computer Software - Restricted
 Rights clause in FAR 52.227-19.
  
 Gaussian, Inc.
 340 Quinnipiac St., Bldg. 40, Wallingford CT 06492
  
  
 ---------------------------------------------------------------
 Warning -- This program may not be used in any manner that
 competes with the business of Gaussian, Inc. or will provide
 assistance to any competitor of Gaussian, Inc.  The licensee
 of this program is prohibited from giving any competitor of
 Gaussian, Inc. access to this program.  By using this program,
 the user acknowledges that Gaussian, Inc. is engaged in the
 business of creating and licensing software in the field of
 computational chemistry and represents and warrants to the
 licensee that it is not a competitor of Gaussian, Inc. and that
 it will not use this program in any manner prohibited above.
 ---------------------------------------------------------------
  

 Cite this work as:
 Gaussian 09, Revision C.01,
 M. J. Frisch, G. W. Trucks, H. B. Schlegel, G. E. Scuseria, 
 M. A. Robb, J. R. Cheeseman, G. Scalmani, V. Barone, B. Mennucci, 
 G. A. Petersson, H. Nakatsuji, M. Caricato, X. Li, H. P. Hratchian, 
 A. F. Izmaylov, J. Bloino, G. Zheng, J. L. Sonnenberg, M. Hada, 
 M. Ehara, K. Toyota, R. Fukuda, J. Hasegawa, M. Ishida, T. Nakajima, 
 Y. Honda, O. Kitao, H. Nakai, T. Vreven, J. A. Montgomery, Jr., 
 J. E. Peralta, F. Ogliaro, M. Bearpark, J. J. Heyd, E. Brothers, 
 K. N. Kudin, V. N. Staroverov, T. Keith, R. Kobayashi, J. Normand, 
 K. Raghavachari, A. Rendell, J. C. Burant, S. S. Iyengar, J. Tomasi, 
 M. Cossi, N. Rega, J. M. Millam, M. Klene, J. E. Knox, J. B. Cross, 
 V. Bakken, C. Adamo, J. Jaramillo, R. Gomperts, R. E. Stratmann, 
 O. Yazyev, A. J. Austin, R. Cammi, C. Pomelli, J. W. Ochterski, 
 R. L. Martin, K. Morokuma, V. G. Zakrzewski, G. A. Voth, 
 P. Salvador, J. J. Dannenberg, S. Dapprich, A. D. Daniels, 
 O. Farkas, J. B. Foresman, J. V. Ortiz, J. Cioslowski, 
 and D. J. Fox, Gaussian, Inc., Wallingford CT, 2010.
 
 ******************************************
 Gaussian 09:  EM64L-G09RevC.01 23-Sep-2011
                18-May-2017 
 ******************************************
 %Mem=256MB
 %NProc=48
 Will use up to   48 processors via shared memory.
 ----------------------------------------------------------------------
 #P HF/6-31G* SCF(Conver=6) NoSymm Test Pop=mk IOp(6/33=2) GFInput GFPr
 int
 ----------------------------------------------------------------------
 1/38=1/1;
 2/12=2,15=1,17=6,18=5,40=1/2;
 3/5=1,6=6,7=1,11=9,16=1,24=110,25=1,30=1/1,2,3;
 4//1;
 5/5=2,6=6,38=5/2;
 6/7=2,8=2,9=2,10=2,15=8,20=1,28=1,33=2/1,2;
 99/5=1,9=1/99;
 Leave Link    1 at Thu May 18 12:33:04 2017, MaxMem=   33554432 cpu:      12.2
 (Enter /scratch/michal/g09/l101.exe)
 ----------------------------------------------
 MEP - Input generated by R.E.D.-III.x MOLECULE
 ----------------------------------------------
 Charge =  0 Multiplicity = 1
 Symbolic Z-Matrix:
 O                     0.        0.        0. 
 H                     0.96654   0.        0. 
 O                     4.36154  -1.29881  -4.9398 
 H                     4.08696  -1.10929  -5.84802 
 C                    -1.24149   4.10125  -0.75597 
 C                    -1.13759   2.56849  -0.51927 
 H                    -0.44225   2.44872   0.32379 
 C                    -0.53066   1.77001  -1.67948 
 H                    -1.19085   1.84939  -2.55543 
 C                     0.86952   2.32337  -2.04602 
 H                     1.52299   2.08059  -1.19151 
 C                    -1.91829   4.53541   0.59151 
 H                    -1.1327    4.46787   1.36084 
 C                     0.19871   4.60011  -0.99516 
 H                     0.78259   4.43852  -0.07759 
 H                     0.23116   5.67502  -1.19873 
 C                     1.49494   1.59347  -3.28603 
 C                    -2.52045   2.16539   0.00977 
 H                    -2.47961   1.24404   0.59735 
 H                    -3.22166   1.99072  -0.81638 
 C                     0.87221   3.86505  -2.17216 
 H                     0.36851   4.16236  -3.09776 
 H                     1.90357   4.22528  -2.26231 
 C                    -2.95517   3.39061   0.85983 
 H                    -3.96483   3.71955   0.58544 
 H                    -2.9917    3.13844   1.92365 
 C                    -0.44889   0.26439  -1.35026 
 H                    -1.46326  -0.15052  -1.36688 
 C                    -2.54617   5.94797   0.71856 
 H                    -3.3778    6.01257   0. 
 C                    -2.1535    4.45963  -1.95163 
 H                    -1.82626   3.98824  -2.88195 
 H                    -3.18923   4.15049  -1.78143 
 H                    -2.1614    5.5411   -2.12383 
 C                     1.28327   0.07758  -3.17753 
 C                     3.02953   1.87372  -3.30861 
 H                     3.42695   1.69355  -2.30001 
 H                     3.20092   2.93394  -3.52345 
 C                     0.41332  -0.48603  -2.32316 
 H                     0.33253  -1.57204  -2.28588 
 C                     0.85899   2.07966  -4.61697 
 H                     1.13794   3.11457  -4.83662 
 H                     1.18554   1.47194  -5.46449 
 H                    -0.23288   2.01948  -4.57969 
 C                     2.1062   -0.79702  -4.1056 
 H                     1.94866  -1.85372  -3.86836 
 H                     1.77192  -0.65433  -5.14568 
 C                     3.83118   1.01908  -4.30213 
 H                     3.54045   1.25644  -5.33615 
 H                     4.89954   1.24772  -4.21665 
 C                    -3.15178   6.13739   2.13195 
 H                    -3.78715   5.27626   2.36988 
 H                    -2.33237   6.12215   2.86529 
 C                     3.60672  -0.47178  -4.05064 
 H                     3.99003  -0.72958  -3.05563 
 C                    -1.55814   7.08463   0.40253 
 H                    -0.67065   7.02279   1.04518 
 H                    -2.01701   8.06451   0.5643 
 H                    -1.21962   7.06027  -0.63556 
 C                    -3.99944   7.40783   2.31657 
 H                    -3.37055   8.30346   2.25558 
 H                    -4.70794   7.4814    1.47914 
 C                    -4.80916   7.43804   3.62621 
 H                    -5.49337   6.57721   3.63362 
 H                    -5.44845   8.33347   3.62406 
 C                    -4.00049   7.42707   4.941 
 H                    -3.37401   6.52366   4.95158 
 C                    -4.94989   7.34276   6.14692 
 H                    -5.60229   8.22432   6.19349 
 H                    -4.39306   7.29185   7.08958 
 H                    -5.59229   6.45656   6.08849 
 C                    -3.07296   8.64578   5.06972 
 H                    -3.65021   9.57921   5.04034 
 H                    -2.52718   8.62329   6.01988 
 H                    -2.33116   8.68751   4.26554 
 
 NAtoms=     75 NQM=        0 NQMF=       0 NMMI=     75 NMMIF=      0
                NMic=       0 NMicF=      0.
                    Isotopes and Nuclear Properties:
 (Nuclear quadrupole moments (NQMom) in fm**2, nuclear magnetic moments (NMagM)
  in nuclear magnetons)

  Atom         1           2           3           4           5           6           7           8           9          10
 IAtWgt=          16           1          16           1          12          12           1          12           1          12
 AtmWgt=  15.9949146   1.0078250  15.9949146   1.0078250  12.0000000  12.0000000   1.0078250  12.0000000   1.0078250  12.0000000
 NucSpn=           0           1           0           1           0           0           1           0           1           0
 AtZEff=   0.0000000   0.0000000   0.0000000   0.0000000   0.0000000   0.0000000   0.0000000   0.0000000   0.0000000   0.0000000
 NQMom=    0.0000000   0.0000000   0.0000000   0.0000000   0.0000000   0.0000000   0.0000000   0.0000000   0.0000000   0.0000000
 NMagM=    0.0000000   2.7928460   0.0000000   2.7928460   0.0000000   0.0000000   2.7928460   0.0000000   2.7928460   0.0000000

  Atom        11          12          13          14          15          16          17          18          19          20
 IAtWgt=           1          12           1          12           1           1          12          12           1           1
 AtmWgt=   1.0078250  12.0000000   1.0078250  12.0000000   1.0078250   1.0078250  12.0000000  12.0000000   1.0078250   1.0078250
 NucSpn=           1           0           1           0           1           1           0           0           1           1
 AtZEff=   0.0000000   0.0000000   0.0000000   0.0000000   0.0000000   0.0000000   0.0000000   0.0000000   0.0000000   0.0000000
 NQMom=    0.0000000   0.0000000   0.0000000   0.0000000   0.0000000   0.0000000   0.0000000   0.0000000   0.0000000   0.0000000
 NMagM=    2.7928460   0.0000000   2.7928460   0.0000000   2.7928460   2.7928460   0.0000000   0.0000000   2.7928460   2.7928460

  Atom        21          22          23          24          25          26          27          28          29          30
 IAtWgt=          12           1           1          12           1           1          12           1          12           1
 AtmWgt=  12.0000000   1.0078250   1.0078250  12.0000000   1.0078250   1.0078250  12.0000000   1.0078250  12.0000000   1.0078250
 NucSpn=           0           1           1           0           1           1           0           1           0           1
 AtZEff=   0.0000000   0.0000000   0.0000000   0.0000000   0.0000000   0.0000000   0.0000000   0.0000000   0.0000000   0.0000000
 NQMom=    0.0000000   0.0000000   0.0000000   0.0000000   0.0000000   0.0000000   0.0000000   0.0000000   0.0000000   0.0000000
 NMagM=    0.0000000   2.7928460   2.7928460   0.0000000   2.7928460   2.7928460   0.0000000   2.7928460   0.0000000   2.7928460

  Atom        31          32          33          34          35          36          37          38          39          40
 IAtWgt=          12           1           1           1          12          12           1           1          12           1
 AtmWgt=  12.0000000   1.0078250   1.0078250   1.0078250  12.0000000  12.0000000   1.0078250   1.0078250  12.0000000   1.0078250
 NucSpn=           0           1           1           1           0           0           1           1           0           1
 AtZEff=   0.0000000   0.0000000   0.0000000   0.0000000   0.0000000   0.0000000   0.0000000   0.0000000   0.0000000   0.0000000
 NQMom=    0.0000000   0.0000000   0.0000000   0.0000000   0.0000000   0.0000000   0.0000000   0.0000000   0.0000000   0.0000000
 NMagM=    0.0000000   2.7928460   2.7928460   2.7928460   0.0000000   0.0000000   2.7928460   2.7928460   0.0000000   2.7928460

  Atom        41          42          43          44          45          46          47          48          49          50
 IAtWgt=          12           1           1           1          12           1           1          12           1           1
 AtmWgt=  12.0000000   1.0078250   1.0078250   1.0078250  12.0000000   1.0078250   1.0078250  12.0000000   1.0078250   1.0078250
 NucSpn=           0           1           1           1           0           1           1           0           1           1
 AtZEff=   0.0000000   0.0000000   0.0000000   0.0000000   0.0000000   0.0000000   0.0000000   0.0000000   0.0000000   0.0000000
 NQMom=    0.0000000   0.0000000   0.0000000   0.0000000   0.0000000   0.0000000   0.0000000   0.0000000   0.0000000   0.0000000
 NMagM=    0.0000000   2.7928460   2.7928460   2.7928460   0.0000000   2.7928460   2.7928460   0.0000000   2.7928460   2.7928460

  Atom        51          52          53          54          55          56          57          58          59          60
 IAtWgt=          12           1           1          12           1          12           1           1           1          12
 AtmWgt=  12.0000000   1.0078250   1.0078250  12.0000000   1.0078250  12.0000000   1.0078250   1.0078250   1.0078250  12.0000000
 NucSpn=           0           1           1           0           1           0           1           1           1           0
 AtZEff=   0.0000000   0.0000000   0.0000000   0.0000000   0.0000000   0.0000000   0.0000000   0.0000000   0.0000000   0.0000000
 NQMom=    0.0000000   0.0000000   0.0000000   0.0000000   0.0000000   0.0000000   0.0000000   0.0000000   0.0000000   0.0000000
 NMagM=    0.0000000   2.7928460   2.7928460   0.0000000   2.7928460   0.0000000   2.7928460   2.7928460   2.7928460   0.0000000

  Atom        61          62          63          64          65          66          67          68          69          70
 IAtWgt=           1           1          12           1           1          12           1          12           1           1
 AtmWgt=   1.0078250   1.0078250  12.0000000   1.0078250   1.0078250  12.0000000   1.0078250  12.0000000   1.0078250   1.0078250
 NucSpn=           1           1           0           1           1           0           1           0           1           1
 AtZEff=   0.0000000   0.0000000   0.0000000   0.0000000   0.0000000   0.0000000   0.0000000   0.0000000   0.0000000   0.0000000
 NQMom=    0.0000000   0.0000000   0.0000000   0.0000000   0.0000000   0.0000000   0.0000000   0.0000000   0.0000000   0.0000000
 NMagM=    2.7928460   2.7928460   0.0000000   2.7928460   2.7928460   0.0000000   2.7928460   0.0000000   2.7928460   2.7928460

  Atom        71          72          73          74          75
 IAtWgt=           1          12           1           1           1
 AtmWgt=   1.0078250  12.0000000   1.0078250   1.0078250   1.0078250
 NucSpn=           1           0           1           1           1
 AtZEff=   0.0000000   0.0000000   0.0000000   0.0000000   0.0000000
 NQMom=    0.0000000   0.0000000   0.0000000   0.0000000   0.0000000
 NMagM=    2.7928460   0.0000000   2.7928460   2.7928460   2.7928460
 Leave Link  101 at Thu May 18 12:33:04 2017, MaxMem=   33554432 cpu:       6.5
 (Enter /scratch/michal/g09/l202.exe)
 Symmetry turned off by external request.
 Stoichiometry    C27H46O2
 Framework group  C1[X(C27H46O2)]
 Deg. of freedom   219
 Full point group                 C1      NOp   1
                          Input orientation:                          
 ---------------------------------------------------------------------
 Center     Atomic      Atomic             Coordinates (Angstroms)
 Number     Number       Type             X           Y           Z
 ---------------------------------------------------------------------
      1          8           0        0.000000    0.000000    0.000000
      2          1           0        0.966539    0.000000    0.000000
      3          8           0        4.361536   -1.298811   -4.939799
      4          1           0        4.086959   -1.109295   -5.848018
      5          6           0       -1.241486    4.101252   -0.755969
      6          6           0       -1.137591    2.568489   -0.519267
      7          1           0       -0.442253    2.448716    0.323794
      8          6           0       -0.530658    1.770008   -1.679481
      9          1           0       -1.190849    1.849393   -2.555433
     10          6           0        0.869519    2.323367   -2.046015
     11          1           0        1.522988    2.080591   -1.191507
     12          6           0       -1.918288    4.535408    0.591512
     13          1           0       -1.132698    4.467866    1.360843
     14          6           0        0.198714    4.600111   -0.995162
     15          1           0        0.782586    4.438520   -0.077588
     16          1           0        0.231161    5.675015   -1.198727
     17          6           0        1.494941    1.593467   -3.286032
     18          6           0       -2.520454    2.165386    0.009769
     19          1           0       -2.479608    1.244043    0.597347
     20          1           0       -3.221660    1.990716   -0.816376
     21          6           0        0.872206    3.865054   -2.172160
     22          1           0        0.368508    4.162361   -3.097764
     23          1           0        1.903574    4.225276   -2.262306
     24          6           0       -2.955174    3.390609    0.859825
     25          1           0       -3.964831    3.719550    0.585437
     26          1           0       -2.991701    3.138444    1.923653
     27          6           0       -0.448886    0.264393   -1.350256
     28          1           0       -1.463255   -0.150518   -1.366883
     29          6           0       -2.546168    5.947969    0.718562
     30          1           0       -3.377797    6.012566    0.000000
     31          6           0       -2.153503    4.459632   -1.951629
     32          1           0       -1.826256    3.988242   -2.881951
     33          1           0       -3.189229    4.150485   -1.781427
     34          1           0       -2.161401    5.541104   -2.123827
     35          6           0        1.283269    0.077580   -3.177525
     36          6           0        3.029529    1.873719   -3.308613
     37          1           0        3.426946    1.693551   -2.300011
     38          1           0        3.200921    2.933939   -3.523447
     39          6           0        0.413324   -0.486031   -2.323162
     40          1           0        0.332531   -1.572038   -2.285880
     41          6           0        0.858993    2.079656   -4.616973
     42          1           0        1.137940    3.114574   -4.836618
     43          1           0        1.185538    1.471938   -5.464487
     44          1           0       -0.232883    2.019477   -4.579694
     45          6           0        2.106198   -0.797022   -4.105604
     46          1           0        1.948656   -1.853722   -3.868362
     47          1           0        1.771916   -0.654326   -5.145677
     48          6           0        3.831176    1.019079   -4.302127
     49          1           0        3.540450    1.256437   -5.336153
     50          1           0        4.899536    1.247722   -4.216654
     51          6           0       -3.151778    6.137390    2.131951
     52          1           0       -3.787154    5.276262    2.369878
     53          1           0       -2.332373    6.122146    2.865287
     54          6           0        3.606723   -0.471777   -4.050643
     55          1           0        3.990025   -0.729576   -3.055627
     56          6           0       -1.558139    7.084632    0.402534
     57          1           0       -0.670650    7.022788    1.045184
     58          1           0       -2.017007    8.064509    0.564300
     59          1           0       -1.219616    7.060271   -0.635557
     60          6           0       -3.999437    7.407833    2.316574
     61          1           0       -3.370547    8.303456    2.255576
     62          1           0       -4.707935    7.481402    1.479137
     63          6           0       -4.809163    7.438039    3.626209
     64          1           0       -5.493372    6.577206    3.633618
     65          1           0       -5.448447    8.333475    3.624057
     66          6           0       -4.000485    7.427066    4.941000
     67          1           0       -3.374011    6.523658    4.951583
     68          6           0       -4.949894    7.342760    6.146920
     69          1           0       -5.602289    8.224323    6.193494
     70          1           0       -4.393058    7.291851    7.089579
     71          1           0       -5.592289    6.456563    6.088490
     72          6           0       -3.072956    8.645784    5.069724
     73          1           0       -3.650208    9.579206    5.040344
     74          1           0       -2.527182    8.623292    6.019883
     75          1           0       -2.331161    8.687512    4.265540
 ---------------------------------------------------------------------
 Rotational constants (GHZ):      0.4743302      0.0544145      0.0523622
 Leave Link  202 at Thu May 18 12:33:04 2017, MaxMem=   33554432 cpu:       0.2
 (Enter /scratch/michal/g09/l301.exe)
 Standard basis: 6-31G(d) (6D, 7F)
 Ernie: Thresh=  0.10000D-02 Tol=  0.10000D-05 Strict=F.
 AO basis set in the form of general basis input (Overlap normalization):
      1 0
 S   6 1.00       0.000000000000
      0.5484671660D+04  0.1831074430D-02
      0.8252349460D+03  0.1395017220D-01
      0.1880469580D+03  0.6844507810D-01
      0.5296450000D+02  0.2327143360D+00
      0.1689757040D+02  0.4701928980D+00
      0.5799635340D+01  0.3585208530D+00
 SP   3 1.00       0.000000000000
      0.1553961625D+02 -0.1107775495D+00  0.7087426823D-01
      0.3599933586D+01 -0.1480262627D+00  0.3397528391D+00
      0.1013761750D+01  0.1130767015D+01  0.7271585773D+00
 SP   1 1.00       0.000000000000
      0.2700058226D+00  0.1000000000D+01  0.1000000000D+01
 D   1 1.00       0.000000000000
      0.8000000000D+00  0.1000000000D+01
 ****
      2 0
 S   3 1.00       0.000000000000
      0.1873113696D+02  0.3349460434D-01
      0.2825394365D+01  0.2347269535D+00
      0.6401216923D+00  0.8137573261D+00
 S   1 1.00       0.000000000000
      0.1612777588D+00  0.1000000000D+01
 ****
      3 0
 S   6 1.00       0.000000000000
      0.5484671660D+04  0.1831074430D-02
      0.8252349460D+03  0.1395017220D-01
      0.1880469580D+03  0.6844507810D-01
      0.5296450000D+02  0.2327143360D+00
      0.1689757040D+02  0.4701928980D+00
      0.5799635340D+01  0.3585208530D+00
 SP   3 1.00       0.000000000000
      0.1553961625D+02 -0.1107775495D+00  0.7087426823D-01
      0.3599933586D+01 -0.1480262627D+00  0.3397528391D+00
      0.1013761750D+01  0.1130767015D+01  0.7271585773D+00
 SP   1 1.00       0.000000000000
      0.2700058226D+00  0.1000000000D+01  0.1000000000D+01
 D   1 1.00       0.000000000000
      0.8000000000D+00  0.1000000000D+01
 ****
      4 0
 S   3 1.00       0.000000000000
      0.1873113696D+02  0.3349460434D-01
      0.2825394365D+01  0.2347269535D+00
      0.6401216923D+00  0.8137573261D+00
 S   1 1.00       0.000000000000
      0.1612777588D+00  0.1000000000D+01
 ****
      5 0
 S   6 1.00       0.000000000000
      0.3047524880D+04  0.1834737132D-02
      0.4573695180D+03  0.1403732281D-01
      0.1039486850D+03  0.6884262226D-01
      0.2921015530D+02  0.2321844432D+00
      0.9286662960D+01  0.4679413484D+00
      0.3163926960D+01  0.3623119853D+00
 SP   3 1.00       0.000000000000
      0.7868272350D+01 -0.1193324198D+00  0.6899906659D-01
      0.1881288540D+01 -0.1608541517D+00  0.3164239610D+00
      0.5442492580D+00  0.1143456438D+01  0.7443082909D+00
 SP   1 1.00       0.000000000000
      0.1687144782D+00  0.1000000000D+01  0.1000000000D+01
 D   1 1.00       0.000000000000
      0.8000000000D+00  0.1000000000D+01
 ****
      6 0
 S   6 1.00       0.000000000000
      0.3047524880D+04  0.1834737132D-02
      0.4573695180D+03  0.1403732281D-01
      0.1039486850D+03  0.6884262226D-01
      0.2921015530D+02  0.2321844432D+00
      0.9286662960D+01  0.4679413484D+00
      0.3163926960D+01  0.3623119853D+00
 SP   3 1.00       0.000000000000
      0.7868272350D+01 -0.1193324198D+00  0.6899906659D-01
      0.1881288540D+01 -0.1608541517D+00  0.3164239610D+00
      0.5442492580D+00  0.1143456438D+01  0.7443082909D+00
 SP   1 1.00       0.000000000000
      0.1687144782D+00  0.1000000000D+01  0.1000000000D+01
 D   1 1.00       0.000000000000
      0.8000000000D+00  0.1000000000D+01
 ****
      7 0
 S   3 1.00       0.000000000000
      0.1873113696D+02  0.3349460434D-01
      0.2825394365D+01  0.2347269535D+00
      0.6401216923D+00  0.8137573261D+00
 S   1 1.00       0.000000000000
      0.1612777588D+00  0.1000000000D+01
 ****
      8 0
 S   6 1.00       0.000000000000
      0.3047524880D+04  0.1834737132D-02
      0.4573695180D+03  0.1403732281D-01
      0.1039486850D+03  0.6884262226D-01
      0.2921015530D+02  0.2321844432D+00
      0.9286662960D+01  0.4679413484D+00
      0.3163926960D+01  0.3623119853D+00
 SP   3 1.00       0.000000000000
      0.7868272350D+01 -0.1193324198D+00  0.6899906659D-01
      0.1881288540D+01 -0.1608541517D+00  0.3164239610D+00
      0.5442492580D+00  0.1143456438D+01  0.7443082909D+00
 SP   1 1.00       0.000000000000
      0.1687144782D+00  0.1000000000D+01  0.1000000000D+01
 D   1 1.00       0.000000000000
      0.8000000000D+00  0.1000000000D+01
 ****
      9 0
 S   3 1.00       0.000000000000
      0.1873113696D+02  0.3349460434D-01
      0.2825394365D+01  0.2347269535D+00
      0.6401216923D+00  0.8137573261D+00
 S   1 1.00       0.000000000000
      0.1612777588D+00  0.1000000000D+01
 ****
     10 0
 S   6 1.00       0.000000000000
      0.3047524880D+04  0.1834737132D-02
      0.4573695180D+03  0.1403732281D-01
      0.1039486850D+03  0.6884262226D-01
      0.2921015530D+02  0.2321844432D+00
      0.9286662960D+01  0.4679413484D+00
      0.3163926960D+01  0.3623119853D+00
 SP   3 1.00       0.000000000000
      0.7868272350D+01 -0.1193324198D+00  0.6899906659D-01
      0.1881288540D+01 -0.1608541517D+00  0.3164239610D+00
      0.5442492580D+00  0.1143456438D+01  0.7443082909D+00
 SP   1 1.00       0.000000000000
      0.1687144782D+00  0.1000000000D+01  0.1000000000D+01
 D   1 1.00       0.000000000000
      0.8000000000D+00  0.1000000000D+01
 ****
     11 0
 S   3 1.00       0.000000000000
      0.1873113696D+02  0.3349460434D-01
      0.2825394365D+01  0.2347269535D+00
      0.6401216923D+00  0.8137573261D+00
 S   1 1.00       0.000000000000
      0.1612777588D+00  0.1000000000D+01
 ****
     12 0
 S   6 1.00       0.000000000000
      0.3047524880D+04  0.1834737132D-02
      0.4573695180D+03  0.1403732281D-01
      0.1039486850D+03  0.6884262226D-01
      0.2921015530D+02  0.2321844432D+00
      0.9286662960D+01  0.4679413484D+00
      0.3163926960D+01  0.3623119853D+00
 SP   3 1.00       0.000000000000
      0.7868272350D+01 -0.1193324198D+00  0.6899906659D-01
      0.1881288540D+01 -0.1608541517D+00  0.3164239610D+00
      0.5442492580D+00  0.1143456438D+01  0.7443082909D+00
 SP   1 1.00       0.000000000000
      0.1687144782D+00  0.1000000000D+01  0.1000000000D+01
 D   1 1.00       0.000000000000
      0.8000000000D+00  0.1000000000D+01
 ****
     13 0
 S   3 1.00       0.000000000000
      0.1873113696D+02  0.3349460434D-01
      0.2825394365D+01  0.2347269535D+00
      0.6401216923D+00  0.8137573261D+00
 S   1 1.00       0.000000000000
      0.1612777588D+00  0.1000000000D+01
 ****
     14 0
 S   6 1.00       0.000000000000
      0.3047524880D+04  0.1834737132D-02
      0.4573695180D+03  0.1403732281D-01
      0.1039486850D+03  0.6884262226D-01
      0.2921015530D+02  0.2321844432D+00
      0.9286662960D+01  0.4679413484D+00
      0.3163926960D+01  0.3623119853D+00
 SP   3 1.00       0.000000000000
      0.7868272350D+01 -0.1193324198D+00  0.6899906659D-01
      0.1881288540D+01 -0.1608541517D+00  0.3164239610D+00
      0.5442492580D+00  0.1143456438D+01  0.7443082909D+00
 SP   1 1.00       0.000000000000
      0.1687144782D+00  0.1000000000D+01  0.1000000000D+01
 D   1 1.00       0.000000000000
      0.8000000000D+00  0.1000000000D+01
 ****
     15 0
 S   3 1.00       0.000000000000
      0.1873113696D+02  0.3349460434D-01
      0.2825394365D+01  0.2347269535D+00
      0.6401216923D+00  0.8137573261D+00
 S   1 1.00       0.000000000000
      0.1612777588D+00  0.1000000000D+01
 ****
     16 0
 S   3 1.00       0.000000000000
      0.1873113696D+02  0.3349460434D-01
      0.2825394365D+01  0.2347269535D+00
      0.6401216923D+00  0.8137573261D+00
 S   1 1.00       0.000000000000
      0.1612777588D+00  0.1000000000D+01
 ****
     17 0
 S   6 1.00       0.000000000000
      0.3047524880D+04  0.1834737132D-02
      0.4573695180D+03  0.1403732281D-01
      0.1039486850D+03  0.6884262226D-01
      0.2921015530D+02  0.2321844432D+00
      0.9286662960D+01  0.4679413484D+00
      0.3163926960D+01  0.3623119853D+00
 SP   3 1.00       0.000000000000
      0.7868272350D+01 -0.1193324198D+00  0.6899906659D-01
      0.1881288540D+01 -0.1608541517D+00  0.3164239610D+00
      0.5442492580D+00  0.1143456438D+01  0.7443082909D+00
 SP   1 1.00       0.000000000000
      0.1687144782D+00  0.1000000000D+01  0.1000000000D+01
 D   1 1.00       0.000000000000
      0.8000000000D+00  0.1000000000D+01
 ****
     18 0
 S   6 1.00       0.000000000000
      0.3047524880D+04  0.1834737132D-02
      0.4573695180D+03  0.1403732281D-01
      0.1039486850D+03  0.6884262226D-01
      0.2921015530D+02  0.2321844432D+00
      0.9286662960D+01  0.4679413484D+00
      0.3163926960D+01  0.3623119853D+00
 SP   3 1.00       0.000000000000
      0.7868272350D+01 -0.1193324198D+00  0.6899906659D-01
      0.1881288540D+01 -0.1608541517D+00  0.3164239610D+00
      0.5442492580D+00  0.1143456438D+01  0.7443082909D+00
 SP   1 1.00       0.000000000000
      0.1687144782D+00  0.1000000000D+01  0.1000000000D+01
 D   1 1.00       0.000000000000
      0.8000000000D+00  0.1000000000D+01
 ****
     19 0
 S   3 1.00       0.000000000000
      0.1873113696D+02  0.3349460434D-01
      0.2825394365D+01  0.2347269535D+00
      0.6401216923D+00  0.8137573261D+00
 S   1 1.00       0.000000000000
      0.1612777588D+00  0.1000000000D+01
 ****
     20 0
 S   3 1.00       0.000000000000
      0.1873113696D+02  0.3349460434D-01
      0.2825394365D+01  0.2347269535D+00
      0.6401216923D+00  0.8137573261D+00
 S   1 1.00       0.000000000000
      0.1612777588D+00  0.1000000000D+01
 ****
     21 0
 S   6 1.00       0.000000000000
      0.3047524880D+04  0.1834737132D-02
      0.4573695180D+03  0.1403732281D-01
      0.1039486850D+03  0.6884262226D-01
      0.2921015530D+02  0.2321844432D+00
      0.9286662960D+01  0.4679413484D+00
      0.3163926960D+01  0.3623119853D+00
 SP   3 1.00       0.000000000000
      0.7868272350D+01 -0.1193324198D+00  0.6899906659D-01
      0.1881288540D+01 -0.1608541517D+00  0.3164239610D+00
      0.5442492580D+00  0.1143456438D+01  0.7443082909D+00
 SP   1 1.00       0.000000000000
      0.1687144782D+00  0.1000000000D+01  0.1000000000D+01
 D   1 1.00       0.000000000000
      0.8000000000D+00  0.1000000000D+01
 ****
     22 0
 S   3 1.00       0.000000000000
      0.1873113696D+02  0.3349460434D-01
      0.2825394365D+01  0.2347269535D+00
      0.6401216923D+00  0.8137573261D+00
 S   1 1.00       0.000000000000
      0.1612777588D+00  0.1000000000D+01
 ****
     23 0
 S   3 1.00       0.000000000000
      0.1873113696D+02  0.3349460434D-01
      0.2825394365D+01  0.2347269535D+00
      0.6401216923D+00  0.8137573261D+00
 S   1 1.00       0.000000000000
      0.1612777588D+00  0.1000000000D+01
 ****
     24 0
 S   6 1.00       0.000000000000
      0.3047524880D+04  0.1834737132D-02
      0.4573695180D+03  0.1403732281D-01
      0.1039486850D+03  0.6884262226D-01
      0.2921015530D+02  0.2321844432D+00
      0.9286662960D+01  0.4679413484D+00
      0.3163926960D+01  0.3623119853D+00
 SP   3 1.00       0.000000000000
      0.7868272350D+01 -0.1193324198D+00  0.6899906659D-01
      0.1881288540D+01 -0.1608541517D+00  0.3164239610D+00
      0.5442492580D+00  0.1143456438D+01  0.7443082909D+00
 SP   1 1.00       0.000000000000
      0.1687144782D+00  0.1000000000D+01  0.1000000000D+01
 D   1 1.00       0.000000000000
      0.8000000000D+00  0.1000000000D+01
 ****
     25 0
 S   3 1.00       0.000000000000
      0.1873113696D+02  0.3349460434D-01
      0.2825394365D+01  0.2347269535D+00
      0.6401216923D+00  0.8137573261D+00
 S   1 1.00       0.000000000000
      0.1612777588D+00  0.1000000000D+01
 ****
     26 0
 S   3 1.00       0.000000000000
      0.1873113696D+02  0.3349460434D-01
      0.2825394365D+01  0.2347269535D+00
      0.6401216923D+00  0.8137573261D+00
 S   1 1.00       0.000000000000
      0.1612777588D+00  0.1000000000D+01
 ****
     27 0
 S   6 1.00       0.000000000000
      0.3047524880D+04  0.1834737132D-02
      0.4573695180D+03  0.1403732281D-01
      0.1039486850D+03  0.6884262226D-01
      0.2921015530D+02  0.2321844432D+00
      0.9286662960D+01  0.4679413484D+00
      0.3163926960D+01  0.3623119853D+00
 SP   3 1.00       0.000000000000
      0.7868272350D+01 -0.1193324198D+00  0.6899906659D-01
      0.1881288540D+01 -0.1608541517D+00  0.3164239610D+00
      0.5442492580D+00  0.1143456438D+01  0.7443082909D+00
 SP   1 1.00       0.000000000000
      0.1687144782D+00  0.1000000000D+01  0.1000000000D+01
 D   1 1.00       0.000000000000
      0.8000000000D+00  0.1000000000D+01
 ****
     28 0
 S   3 1.00       0.000000000000
      0.1873113696D+02  0.3349460434D-01
      0.2825394365D+01  0.2347269535D+00
      0.6401216923D+00  0.8137573261D+00
 S   1 1.00       0.000000000000
      0.1612777588D+00  0.1000000000D+01
 ****
     29 0
 S   6 1.00       0.000000000000
      0.3047524880D+04  0.1834737132D-02
      0.4573695180D+03  0.1403732281D-01
      0.1039486850D+03  0.6884262226D-01
      0.2921015530D+02  0.2321844432D+00
      0.9286662960D+01  0.4679413484D+00
      0.3163926960D+01  0.3623119853D+00
 SP   3 1.00       0.000000000000
      0.7868272350D+01 -0.1193324198D+00  0.6899906659D-01
      0.1881288540D+01 -0.1608541517D+00  0.3164239610D+00
      0.5442492580D+00  0.1143456438D+01  0.7443082909D+00
 SP   1 1.00       0.000000000000
      0.1687144782D+00  0.1000000000D+01  0.1000000000D+01
 D   1 1.00       0.000000000000
      0.8000000000D+00  0.1000000000D+01
 ****
     30 0
 S   3 1.00       0.000000000000
      0.1873113696D+02  0.3349460434D-01
      0.2825394365D+01  0.2347269535D+00
      0.6401216923D+00  0.8137573261D+00
 S   1 1.00       0.000000000000
      0.1612777588D+00  0.1000000000D+01
 ****
     31 0
 S   6 1.00       0.000000000000
      0.3047524880D+04  0.1834737132D-02
      0.4573695180D+03  0.1403732281D-01
      0.1039486850D+03  0.6884262226D-01
      0.2921015530D+02  0.2321844432D+00
      0.9286662960D+01  0.4679413484D+00
      0.3163926960D+01  0.3623119853D+00
 SP   3 1.00       0.000000000000
      0.7868272350D+01 -0.1193324198D+00  0.6899906659D-01
      0.1881288540D+01 -0.1608541517D+00  0.3164239610D+00
      0.5442492580D+00  0.1143456438D+01  0.7443082909D+00
 SP   1 1.00       0.000000000000
      0.1687144782D+00  0.1000000000D+01  0.1000000000D+01
 D   1 1.00       0.000000000000
      0.8000000000D+00  0.1000000000D+01
 ****
     32 0
 S   3 1.00       0.000000000000
      0.1873113696D+02  0.3349460434D-01
      0.2825394365D+01  0.2347269535D+00
      0.6401216923D+00  0.8137573261D+00
 S   1 1.00       0.000000000000
      0.1612777588D+00  0.1000000000D+01
 ****
     33 0
 S   3 1.00       0.000000000000
      0.1873113696D+02  0.3349460434D-01
      0.2825394365D+01  0.2347269535D+00
      0.6401216923D+00  0.8137573261D+00
 S   1 1.00       0.000000000000
      0.1612777588D+00  0.1000000000D+01
 ****
     34 0
 S   3 1.00       0.000000000000
      0.1873113696D+02  0.3349460434D-01
      0.2825394365D+01  0.2347269535D+00
      0.6401216923D+00  0.8137573261D+00
 S   1 1.00       0.000000000000
      0.1612777588D+00  0.1000000000D+01
 ****
     35 0
 S   6 1.00       0.000000000000
      0.3047524880D+04  0.1834737132D-02
      0.4573695180D+03  0.1403732281D-01
      0.1039486850D+03  0.6884262226D-01
      0.2921015530D+02  0.2321844432D+00
      0.9286662960D+01  0.4679413484D+00
      0.3163926960D+01  0.3623119853D+00
 SP   3 1.00       0.000000000000
      0.7868272350D+01 -0.1193324198D+00  0.6899906659D-01
      0.1881288540D+01 -0.1608541517D+00  0.3164239610D+00
      0.5442492580D+00  0.1143456438D+01  0.7443082909D+00
 SP   1 1.00       0.000000000000
      0.1687144782D+00  0.1000000000D+01  0.1000000000D+01
 D   1 1.00       0.000000000000
      0.8000000000D+00  0.1000000000D+01
 ****
     36 0
 S   6 1.00       0.000000000000
      0.3047524880D+04  0.1834737132D-02
      0.4573695180D+03  0.1403732281D-01
      0.1039486850D+03  0.6884262226D-01
      0.2921015530D+02  0.2321844432D+00
      0.9286662960D+01  0.4679413484D+00
      0.3163926960D+01  0.3623119853D+00
 SP   3 1.00       0.000000000000
      0.7868272350D+01 -0.1193324198D+00  0.6899906659D-01
      0.1881288540D+01 -0.1608541517D+00  0.3164239610D+00
      0.5442492580D+00  0.1143456438D+01  0.7443082909D+00
 SP   1 1.00       0.000000000000
      0.1687144782D+00  0.1000000000D+01  0.1000000000D+01
 D   1 1.00       0.000000000000
      0.8000000000D+00  0.1000000000D+01
 ****
     37 0
 S   3 1.00       0.000000000000
      0.1873113696D+02  0.3349460434D-01
      0.2825394365D+01  0.2347269535D+00
      0.6401216923D+00  0.8137573261D+00
 S   1 1.00       0.000000000000
      0.1612777588D+00  0.1000000000D+01
 ****
     38 0
 S   3 1.00       0.000000000000
      0.1873113696D+02  0.3349460434D-01
      0.2825394365D+01  0.2347269535D+00
      0.6401216923D+00  0.8137573261D+00
 S   1 1.00       0.000000000000
      0.1612777588D+00  0.1000000000D+01
 ****
     39 0
 S   6 1.00       0.000000000000
      0.3047524880D+04  0.1834737132D-02
      0.4573695180D+03  0.1403732281D-01
      0.1039486850D+03  0.6884262226D-01
      0.2921015530D+02  0.2321844432D+00
      0.9286662960D+01  0.4679413484D+00
      0.3163926960D+01  0.3623119853D+00
 SP   3 1.00       0.000000000000
      0.7868272350D+01 -0.1193324198D+00  0.6899906659D-01
      0.1881288540D+01 -0.1608541517D+00  0.3164239610D+00
      0.5442492580D+00  0.1143456438D+01  0.7443082909D+00
 SP   1 1.00       0.000000000000
      0.1687144782D+00  0.1000000000D+01  0.1000000000D+01
 D   1 1.00       0.000000000000
      0.8000000000D+00  0.1000000000D+01
 ****
     40 0
 S   3 1.00       0.000000000000
      0.1873113696D+02  0.3349460434D-01
      0.2825394365D+01  0.2347269535D+00
      0.6401216923D+00  0.8137573261D+00
 S   1 1.00       0.000000000000
      0.1612777588D+00  0.1000000000D+01
 ****
     41 0
 S   6 1.00       0.000000000000
      0.3047524880D+04  0.1834737132D-02
      0.4573695180D+03  0.1403732281D-01
      0.1039486850D+03  0.6884262226D-01
      0.2921015530D+02  0.2321844432D+00
      0.9286662960D+01  0.4679413484D+00
      0.3163926960D+01  0.3623119853D+00
 SP   3 1.00       0.000000000000
      0.7868272350D+01 -0.1193324198D+00  0.6899906659D-01
      0.1881288540D+01 -0.1608541517D+00  0.3164239610D+00
      0.5442492580D+00  0.1143456438D+01  0.7443082909D+00
 SP   1 1.00       0.000000000000
      0.1687144782D+00  0.1000000000D+01  0.1000000000D+01
 D   1 1.00       0.000000000000
      0.8000000000D+00  0.1000000000D+01
 ****
     42 0
 S   3 1.00       0.000000000000
      0.1873113696D+02  0.3349460434D-01
      0.2825394365D+01  0.2347269535D+00
      0.6401216923D+00  0.8137573261D+00
 S   1 1.00       0.000000000000
      0.1612777588D+00  0.1000000000D+01
 ****
     43 0
 S   3 1.00       0.000000000000
      0.1873113696D+02  0.3349460434D-01
      0.2825394365D+01  0.2347269535D+00
      0.6401216923D+00  0.8137573261D+00
 S   1 1.00       0.000000000000
      0.1612777588D+00  0.1000000000D+01
 ****
     44 0
 S   3 1.00       0.000000000000
      0.1873113696D+02  0.3349460434D-01
      0.2825394365D+01  0.2347269535D+00
      0.6401216923D+00  0.8137573261D+00
 S   1 1.00       0.000000000000
      0.1612777588D+00  0.1000000000D+01
 ****
     45 0
 S   6 1.00       0.000000000000
      0.3047524880D+04  0.1834737132D-02
      0.4573695180D+03  0.1403732281D-01
      0.1039486850D+03  0.6884262226D-01
      0.2921015530D+02  0.2321844432D+00
      0.9286662960D+01  0.4679413484D+00
      0.3163926960D+01  0.3623119853D+00
 SP   3 1.00       0.000000000000
      0.7868272350D+01 -0.1193324198D+00  0.6899906659D-01
      0.1881288540D+01 -0.1608541517D+00  0.3164239610D+00
      0.5442492580D+00  0.1143456438D+01  0.7443082909D+00
 SP   1 1.00       0.000000000000
      0.1687144782D+00  0.1000000000D+01  0.1000000000D+01
 D   1 1.00       0.000000000000
      0.8000000000D+00  0.1000000000D+01
 ****
     46 0
 S   3 1.00       0.000000000000
      0.1873113696D+02  0.3349460434D-01
      0.2825394365D+01  0.2347269535D+00
      0.6401216923D+00  0.8137573261D+00
 S   1 1.00       0.000000000000
      0.1612777588D+00  0.1000000000D+01
 ****
     47 0
 S   3 1.00       0.000000000000
      0.1873113696D+02  0.3349460434D-01
      0.2825394365D+01  0.2347269535D+00
      0.6401216923D+00  0.8137573261D+00
 S   1 1.00       0.000000000000
      0.1612777588D+00  0.1000000000D+01
 ****
     48 0
 S   6 1.00       0.000000000000
      0.3047524880D+04  0.1834737132D-02
      0.4573695180D+03  0.1403732281D-01
      0.1039486850D+03  0.6884262226D-01
      0.2921015530D+02  0.2321844432D+00
      0.9286662960D+01  0.4679413484D+00
      0.3163926960D+01  0.3623119853D+00
 SP   3 1.00       0.000000000000
      0.7868272350D+01 -0.1193324198D+00  0.6899906659D-01
      0.1881288540D+01 -0.1608541517D+00  0.3164239610D+00
      0.5442492580D+00  0.1143456438D+01  0.7443082909D+00
 SP   1 1.00       0.000000000000
      0.1687144782D+00  0.1000000000D+01  0.1000000000D+01
 D   1 1.00       0.000000000000
      0.8000000000D+00  0.1000000000D+01
 ****
     49 0
 S   3 1.00       0.000000000000
      0.1873113696D+02  0.3349460434D-01
      0.2825394365D+01  0.2347269535D+00
      0.6401216923D+00  0.8137573261D+00
 S   1 1.00       0.000000000000
      0.1612777588D+00  0.1000000000D+01
 ****
     50 0
 S   3 1.00       0.000000000000
      0.1873113696D+02  0.3349460434D-01
      0.2825394365D+01  0.2347269535D+00
      0.6401216923D+00  0.8137573261D+00
 S   1 1.00       0.000000000000
      0.1612777588D+00  0.1000000000D+01
 ****
     51 0
 S   6 1.00       0.000000000000
      0.3047524880D+04  0.1834737132D-02
      0.4573695180D+03  0.1403732281D-01
      0.1039486850D+03  0.6884262226D-01
      0.2921015530D+02  0.2321844432D+00
      0.9286662960D+01  0.4679413484D+00
      0.3163926960D+01  0.3623119853D+00
 SP   3 1.00       0.000000000000
      0.7868272350D+01 -0.1193324198D+00  0.6899906659D-01
      0.1881288540D+01 -0.1608541517D+00  0.3164239610D+00
      0.5442492580D+00  0.1143456438D+01  0.7443082909D+00
 SP   1 1.00       0.000000000000
      0.1687144782D+00  0.1000000000D+01  0.1000000000D+01
 D   1 1.00       0.000000000000
      0.8000000000D+00  0.1000000000D+01
 ****
     52 0
 S   3 1.00       0.000000000000
      0.1873113696D+02  0.3349460434D-01
      0.2825394365D+01  0.2347269535D+00
      0.6401216923D+00  0.8137573261D+00
 S   1 1.00       0.000000000000
      0.1612777588D+00  0.1000000000D+01
 ****
     53 0
 S   3 1.00       0.000000000000
      0.1873113696D+02  0.3349460434D-01
      0.2825394365D+01  0.2347269535D+00
      0.6401216923D+00  0.8137573261D+00
 S   1 1.00       0.000000000000
      0.1612777588D+00  0.1000000000D+01
 ****
     54 0
 S   6 1.00       0.000000000000
      0.3047524880D+04  0.1834737132D-02
      0.4573695180D+03  0.1403732281D-01
      0.1039486850D+03  0.6884262226D-01
      0.2921015530D+02  0.2321844432D+00
      0.9286662960D+01  0.4679413484D+00
      0.3163926960D+01  0.3623119853D+00
 SP   3 1.00       0.000000000000
      0.7868272350D+01 -0.1193324198D+00  0.6899906659D-01
      0.1881288540D+01 -0.1608541517D+00  0.3164239610D+00
      0.5442492580D+00  0.1143456438D+01  0.7443082909D+00
 SP   1 1.00       0.000000000000
      0.1687144782D+00  0.1000000000D+01  0.1000000000D+01
 D   1 1.00       0.000000000000
      0.8000000000D+00  0.1000000000D+01
 ****
     55 0
 S   3 1.00       0.000000000000
      0.1873113696D+02  0.3349460434D-01
      0.2825394365D+01  0.2347269535D+00
      0.6401216923D+00  0.8137573261D+00
 S   1 1.00       0.000000000000
      0.1612777588D+00  0.1000000000D+01
 ****
     56 0
 S   6 1.00       0.000000000000
      0.3047524880D+04  0.1834737132D-02
      0.4573695180D+03  0.1403732281D-01
      0.1039486850D+03  0.6884262226D-01
      0.2921015530D+02  0.2321844432D+00
      0.9286662960D+01  0.4679413484D+00
      0.3163926960D+01  0.3623119853D+00
 SP   3 1.00       0.000000000000
      0.7868272350D+01 -0.1193324198D+00  0.6899906659D-01
      0.1881288540D+01 -0.1608541517D+00  0.3164239610D+00
      0.5442492580D+00  0.1143456438D+01  0.7443082909D+00
 SP   1 1.00       0.000000000000
      0.1687144782D+00  0.1000000000D+01  0.1000000000D+01
 D   1 1.00       0.000000000000
      0.8000000000D+00  0.1000000000D+01
 ****
     57 0
 S   3 1.00       0.000000000000
      0.1873113696D+02  0.3349460434D-01
      0.2825394365D+01  0.2347269535D+00
      0.6401216923D+00  0.8137573261D+00
 S   1 1.00       0.000000000000
      0.1612777588D+00  0.1000000000D+01
 ****
     58 0
 S   3 1.00       0.000000000000
      0.1873113696D+02  0.3349460434D-01
      0.2825394365D+01  0.2347269535D+00
      0.6401216923D+00  0.8137573261D+00
 S   1 1.00       0.000000000000
      0.1612777588D+00  0.1000000000D+01
 ****
     59 0
 S   3 1.00       0.000000000000
      0.1873113696D+02  0.3349460434D-01
      0.2825394365D+01  0.2347269535D+00
      0.6401216923D+00  0.8137573261D+00
 S   1 1.00       0.000000000000
      0.1612777588D+00  0.1000000000D+01
 ****
     60 0
 S   6 1.00       0.000000000000
      0.3047524880D+04  0.1834737132D-02
      0.4573695180D+03  0.1403732281D-01
      0.1039486850D+03  0.6884262226D-01
      0.2921015530D+02  0.2321844432D+00
      0.9286662960D+01  0.4679413484D+00
      0.3163926960D+01  0.3623119853D+00
 SP   3 1.00       0.000000000000
      0.7868272350D+01 -0.1193324198D+00  0.6899906659D-01
      0.1881288540D+01 -0.1608541517D+00  0.3164239610D+00
      0.5442492580D+00  0.1143456438D+01  0.7443082909D+00
 SP   1 1.00       0.000000000000
      0.1687144782D+00  0.1000000000D+01  0.1000000000D+01
 D   1 1.00       0.000000000000
      0.8000000000D+00  0.1000000000D+01
 ****
     61 0
 S   3 1.00       0.000000000000
      0.1873113696D+02  0.3349460434D-01
      0.2825394365D+01  0.2347269535D+00
      0.6401216923D+00  0.8137573261D+00
 S   1 1.00       0.000000000000
      0.1612777588D+00  0.1000000000D+01
 ****
     62 0
 S   3 1.00       0.000000000000
      0.1873113696D+02  0.3349460434D-01
      0.2825394365D+01  0.2347269535D+00
      0.6401216923D+00  0.8137573261D+00
 S   1 1.00       0.000000000000
      0.1612777588D+00  0.1000000000D+01
 ****
     63 0
 S   6 1.00       0.000000000000
      0.3047524880D+04  0.1834737132D-02
      0.4573695180D+03  0.1403732281D-01
      0.1039486850D+03  0.6884262226D-01
      0.2921015530D+02  0.2321844432D+00
      0.9286662960D+01  0.4679413484D+00
      0.3163926960D+01  0.3623119853D+00
 SP   3 1.00       0.000000000000
      0.7868272350D+01 -0.1193324198D+00  0.6899906659D-01
      0.1881288540D+01 -0.1608541517D+00  0.3164239610D+00
      0.5442492580D+00  0.1143456438D+01  0.7443082909D+00
 SP   1 1.00       0.000000000000
      0.1687144782D+00  0.1000000000D+01  0.1000000000D+01
 D   1 1.00       0.000000000000
      0.8000000000D+00  0.1000000000D+01
 ****
     64 0
 S   3 1.00       0.000000000000
      0.1873113696D+02  0.3349460434D-01
      0.2825394365D+01  0.2347269535D+00
      0.6401216923D+00  0.8137573261D+00
 S   1 1.00       0.000000000000
      0.1612777588D+00  0.1000000000D+01
 ****
     65 0
 S   3 1.00       0.000000000000
      0.1873113696D+02  0.3349460434D-01
      0.2825394365D+01  0.2347269535D+00
      0.6401216923D+00  0.8137573261D+00
 S   1 1.00       0.000000000000
      0.1612777588D+00  0.1000000000D+01
 ****
     66 0
 S   6 1.00       0.000000000000
      0.3047524880D+04  0.1834737132D-02
      0.4573695180D+03  0.1403732281D-01
      0.1039486850D+03  0.6884262226D-01
      0.2921015530D+02  0.2321844432D+00
      0.9286662960D+01  0.4679413484D+00
      0.3163926960D+01  0.3623119853D+00
 SP   3 1.00       0.000000000000
      0.7868272350D+01 -0.1193324198D+00  0.6899906659D-01
      0.1881288540D+01 -0.1608541517D+00  0.3164239610D+00
      0.5442492580D+00  0.1143456438D+01  0.7443082909D+00
 SP   1 1.00       0.000000000000
      0.1687144782D+00  0.1000000000D+01  0.1000000000D+01
 D   1 1.00       0.000000000000
      0.8000000000D+00  0.1000000000D+01
 ****
     67 0
 S   3 1.00       0.000000000000
      0.1873113696D+02  0.3349460434D-01
      0.2825394365D+01  0.2347269535D+00
      0.6401216923D+00  0.8137573261D+00
 S   1 1.00       0.000000000000
      0.1612777588D+00  0.1000000000D+01
 ****
     68 0
 S   6 1.00       0.000000000000
      0.3047524880D+04  0.1834737132D-02
      0.4573695180D+03  0.1403732281D-01
      0.1039486850D+03  0.6884262226D-01
      0.2921015530D+02  0.2321844432D+00
      0.9286662960D+01  0.4679413484D+00
      0.3163926960D+01  0.3623119853D+00
 SP   3 1.00       0.000000000000
      0.7868272350D+01 -0.1193324198D+00  0.6899906659D-01
      0.1881288540D+01 -0.1608541517D+00  0.3164239610D+00
      0.5442492580D+00  0.1143456438D+01  0.7443082909D+00
 SP   1 1.00       0.000000000000
      0.1687144782D+00  0.1000000000D+01  0.1000000000D+01
 D   1 1.00       0.000000000000
      0.8000000000D+00  0.1000000000D+01
 ****
     69 0
 S   3 1.00       0.000000000000
      0.1873113696D+02  0.3349460434D-01
      0.2825394365D+01  0.2347269535D+00
      0.6401216923D+00  0.8137573261D+00
 S   1 1.00       0.000000000000
      0.1612777588D+00  0.1000000000D+01
 ****
     70 0
 S   3 1.00       0.000000000000
      0.1873113696D+02  0.3349460434D-01
      0.2825394365D+01  0.2347269535D+00
      0.6401216923D+00  0.8137573261D+00
 S   1 1.00       0.000000000000
      0.1612777588D+00  0.1000000000D+01
 ****
     71 0
 S   3 1.00       0.000000000000
      0.1873113696D+02  0.3349460434D-01
      0.2825394365D+01  0.2347269535D+00
      0.6401216923D+00  0.8137573261D+00
 S   1 1.00       0.000000000000
      0.1612777588D+00  0.1000000000D+01
 ****
     72 0
 S   6 1.00       0.000000000000
      0.3047524880D+04  0.1834737132D-02
      0.4573695180D+03  0.1403732281D-01
      0.1039486850D+03  0.6884262226D-01
      0.2921015530D+02  0.2321844432D+00
      0.9286662960D+01  0.4679413484D+00
      0.3163926960D+01  0.3623119853D+00
 SP   3 1.00       0.000000000000
      0.7868272350D+01 -0.1193324198D+00  0.6899906659D-01
      0.1881288540D+01 -0.1608541517D+00  0.3164239610D+00
      0.5442492580D+00  0.1143456438D+01  0.7443082909D+00
 SP   1 1.00       0.000000000000
      0.1687144782D+00  0.1000000000D+01  0.1000000000D+01
 D   1 1.00       0.000000000000
      0.8000000000D+00  0.1000000000D+01
 ****
     73 0
 S   3 1.00       0.000000000000
      0.1873113696D+02  0.3349460434D-01
      0.2825394365D+01  0.2347269535D+00
      0.6401216923D+00  0.8137573261D+00
 S   1 1.00       0.000000000000
      0.1612777588D+00  0.1000000000D+01
 ****
     74 0
 S   3 1.00       0.000000000000
      0.1873113696D+02  0.3349460434D-01
      0.2825394365D+01  0.2347269535D+00
      0.6401216923D+00  0.8137573261D+00
 S   1 1.00       0.000000000000
      0.1612777588D+00  0.1000000000D+01
 ****
     75 0
 S   3 1.00       0.000000000000
      0.1873113696D+02  0.3349460434D-01
      0.2825394365D+01  0.2347269535D+00
      0.6401216923D+00  0.8137573261D+00
 S   1 1.00       0.000000000000
      0.1612777588D+00  0.1000000000D+01
 ****

 AO basis set (Overlap normalization):
 Atom O1       Shell     1 S   6     bf    1 -     1          0.000000000000          0.000000000000          0.000000000000
      0.5484671660D+04  0.1831074430D-02
      0.8252349460D+03  0.1395017220D-01
      0.1880469580D+03  0.6844507810D-01
      0.5296450000D+02  0.2327143360D+00
      0.1689757040D+02  0.4701928980D+00
      0.5799635340D+01  0.3585208530D+00
 Atom O1       Shell     2 SP   3    bf    2 -     5          0.000000000000          0.000000000000          0.000000000000
      0.1553961625D+02 -0.1107775495D+00  0.7087426823D-01
      0.3599933586D+01 -0.1480262627D+00  0.3397528391D+00
      0.1013761750D+01  0.1130767015D+01  0.7271585773D+00
 Atom O1       Shell     3 SP   1    bf    6 -     9          0.000000000000          0.000000000000          0.000000000000
      0.2700058226D+00  0.1000000000D+01  0.1000000000D+01
 Atom O1       Shell     4 D   1     bf   10 -    15          0.000000000000          0.000000000000          0.000000000000
      0.8000000000D+00  0.1000000000D+01
 Atom H2       Shell     5 S   3     bf   16 -    16          1.826494554774          0.000000000000          0.000000000000
      0.1873113696D+02  0.3349460434D-01
      0.2825394365D+01  0.2347269535D+00
      0.6401216923D+00  0.8137573261D+00
 Atom H2       Shell     6 S   1     bf   17 -    17          1.826494554774          0.000000000000          0.000000000000
      0.1612777588D+00  0.1000000000D+01
 Atom O3       Shell     7 S   6     bf   18 -    18          8.242107972906         -2.454397863167         -9.334867733934
      0.5484671660D+04  0.1831074430D-02
      0.8252349460D+03  0.1395017220D-01
      0.1880469580D+03  0.6844507810D-01
      0.5296450000D+02  0.2327143360D+00
      0.1689757040D+02  0.4701928980D+00
      0.5799635340D+01  0.3585208530D+00
 Atom O3       Shell     8 SP   3    bf   19 -    22          8.242107972906         -2.454397863167         -9.334867733934
      0.1553961625D+02 -0.1107775495D+00  0.7087426823D-01
      0.3599933586D+01 -0.1480262627D+00  0.3397528391D+00
      0.1013761750D+01  0.1130767015D+01  0.7271585773D+00
 Atom O3       Shell     9 SP   1    bf   23 -    26          8.242107972906         -2.454397863167         -9.334867733934
      0.2700058226D+00  0.1000000000D+01  0.1000000000D+01
 Atom O3       Shell    10 D   1     bf   27 -    32          8.242107972906         -2.454397863167         -9.334867733934
      0.8000000000D+00  0.1000000000D+01
 Atom H4       Shell    11 S   3     bf   33 -    33          7.723232867284         -2.096263542710        -11.051151948857
      0.1873113696D+02  0.3349460434D-01
      0.2825394365D+01  0.2347269535D+00
      0.6401216923D+00  0.8137573261D+00
 Atom H4       Shell    12 S   1     bf   34 -    34          7.723232867284         -2.096263542710        -11.051151948857
      0.1612777588D+00  0.1000000000D+01
 Atom C5       Shell    13 S   6     bf   35 -    35         -2.346068481120          7.750243157539         -1.428574545027
      0.3047524880D+04  0.1834737132D-02
      0.4573695180D+03  0.1403732281D-01
      0.1039486850D+03  0.6884262226D-01
      0.2921015530D+02  0.2321844432D+00
      0.9286662960D+01  0.4679413484D+00
      0.3163926960D+01  0.3623119853D+00
 Atom C5       Shell    14 SP   3    bf   36 -    39         -2.346068481120          7.750243157539         -1.428574545027
      0.7868272350D+01 -0.1193324198D+00  0.6899906659D-01
      0.1881288540D+01 -0.1608541517D+00  0.3164239610D+00
      0.5442492580D+00  0.1143456438D+01  0.7443082909D+00
 Atom C5       Shell    15 SP   1    bf   40 -    43         -2.346068481120          7.750243157539         -1.428574545027
      0.1687144782D+00  0.1000000000D+01  0.1000000000D+01
 Atom C5       Shell    16 D   1     bf   44 -    49         -2.346068481120          7.750243157539         -1.428574545027
      0.8000000000D+00  0.1000000000D+01
 Atom C6       Shell    17 S   6     bf   50 -    50         -2.149734515270          4.853740086131         -0.981272533229
      0.3047524880D+04  0.1834737132D-02
      0.4573695180D+03  0.1403732281D-01
      0.1039486850D+03  0.6884262226D-01
      0.2921015530D+02  0.2321844432D+00
      0.9286662960D+01  0.4679413484D+00
      0.3163926960D+01  0.3623119853D+00
 Atom C6       Shell    18 SP   3    bf   51 -    54         -2.149734515270          4.853740086131         -0.981272533229
      0.7868272350D+01 -0.1193324198D+00  0.6899906659D-01
      0.1881288540D+01 -0.1608541517D+00  0.3164239610D+00
      0.5442492580D+00  0.1143456438D+01  0.7443082909D+00
 Atom C6       Shell    19 SP   1    bf   55 -    58         -2.149734515270          4.853740086131         -0.981272533229
      0.1687144782D+00  0.1000000000D+01  0.1000000000D+01
 Atom C6       Shell    20 D   1     bf   59 -    64         -2.149734515270          4.853740086131         -0.981272533229
      0.8000000000D+00  0.1000000000D+01
 Atom H7       Shell    21 S   3     bf   65 -    65         -0.835737183728          4.627401691249          0.611881076403
      0.1873113696D+02  0.3349460434D-01
      0.2825394365D+01  0.2347269535D+00
      0.6401216923D+00  0.8137573261D+00
 Atom H7       Shell    22 S   1     bf   66 -    66         -0.835737183728          4.627401691249          0.611881076403
      0.1612777588D+00  0.1000000000D+01
 Atom C8       Shell    23 S   6     bf   67 -    67         -1.002798422506          3.344829938380         -3.173759040899
      0.3047524880D+04  0.1834737132D-02
      0.4573695180D+03  0.1403732281D-01
      0.1039486850D+03  0.6884262226D-01
      0.2921015530D+02  0.2321844432D+00
      0.9286662960D+01  0.4679413484D+00
      0.3163926960D+01  0.3623119853D+00
 Atom C8       Shell    24 SP   3    bf   68 -    71         -1.002798422506          3.344829938380         -3.173759040899
      0.7868272350D+01 -0.1193324198D+00  0.6899906659D-01
      0.1881288540D+01 -0.1608541517D+00  0.3164239610D+00
      0.5442492580D+00  0.1143456438D+01  0.7443082909D+00
 Atom C8       Shell    25 SP   1    bf   72 -    75         -1.002798422506          3.344829938380         -3.173759040899
      0.1687144782D+00  0.1000000000D+01  0.1000000000D+01
 Atom C8       Shell    26 D   1     bf   76 -    81         -1.002798422506          3.344829938380         -3.173759040899
      0.8000000000D+00  0.1000000000D+01
 Atom H9       Shell    27 S   3     bf   82 -    82         -2.250378248854          3.494847151350         -4.829068407555
      0.1873113696D+02  0.3349460434D-01
      0.2825394365D+01  0.2347269535D+00
      0.6401216923D+00  0.8137573261D+00
 Atom H9       Shell    28 S   1     bf   83 -    83         -2.250378248854          3.494847151350         -4.829068407555
      0.1612777588D+00  0.1000000000D+01
 Atom C10      Shell    29 S   6     bf   84 -    84          1.643152361601          4.390526391321         -3.866408637386
      0.3047524880D+04  0.1834737132D-02
      0.4573695180D+03  0.1403732281D-01
      0.1039486850D+03  0.6884262226D-01
      0.2921015530D+02  0.2321844432D+00
      0.9286662960D+01  0.4679413484D+00
      0.3163926960D+01  0.3623119853D+00
 Atom C10      Shell    30 SP   3    bf   85 -    88          1.643152361601          4.390526391321         -3.866408637386
      0.7868272350D+01 -0.1193324198D+00  0.6899906659D-01
      0.1881288540D+01 -0.1608541517D+00  0.3164239610D+00
      0.5442492580D+00  0.1143456438D+01  0.7443082909D+00
 Atom C10      Shell    31 SP   1    bf   89 -    92          1.643152361601          4.390526391321         -3.866408637386
      0.1687144782D+00  0.1000000000D+01  0.1000000000D+01
 Atom C10      Shell    32 D   1     bf   93 -    98          1.643152361601          4.390526391321         -3.866408637386
      0.8000000000D+00  0.1000000000D+01
 Atom H11      Shell    33 S   3     bf   99 -    99          2.878031149637          3.931746504245         -2.251622274464
      0.1873113696D+02  0.3349460434D-01
      0.2825394365D+01  0.2347269535D+00
      0.6401216923D+00  0.8137573261D+00
 Atom H11      Shell    34 S   1     bf  100 -   100          2.878031149637          3.931746504245         -2.251622274464
      0.1612777588D+00  0.1000000000D+01
 Atom C12      Shell    35 S   6     bf  101 -   101         -3.625039757686          8.570679058693          1.117795098500
      0.3047524880D+04  0.1834737132D-02
      0.4573695180D+03  0.1403732281D-01
      0.1039486850D+03  0.6884262226D-01
      0.2921015530D+02  0.2321844432D+00
      0.9286662960D+01  0.4679413484D+00
      0.3163926960D+01  0.3623119853D+00
 Atom C12      Shell    36 SP   3    bf  102 -   105         -3.625039757686          8.570679058693          1.117795098500
      0.7868272350D+01 -0.1193324198D+00  0.6899906659D-01
      0.1881288540D+01 -0.1608541517D+00  0.3164239610D+00
      0.5442492580D+00  0.1143456438D+01  0.7443082909D+00
 Atom C12      Shell    37 SP   1    bf  106 -   109         -3.625039757686          8.570679058693          1.117795098500
      0.1687144782D+00  0.1000000000D+01  0.1000000000D+01
 Atom C12      Shell    38 D   1     bf  110 -   115         -3.625039757686          8.570679058693          1.117795098500
      0.8000000000D+00  0.1000000000D+01
 Atom H13      Shell    39 S   3     bf  116 -   116         -2.140489238034          8.443043629760          2.571619767272
      0.1873113696D+02  0.3349460434D-01
      0.2825394365D+01  0.2347269535D+00
      0.6401216923D+00  0.8137573261D+00
 Atom H13      Shell    40 S   1     bf  117 -   117         -2.140489238034          8.443043629760          2.571619767272
      0.1612777588D+00  0.1000000000D+01
 Atom C14      Shell    41 S   6     bf  118 -   118          0.375514131702          8.692949233882         -1.880583316601
      0.3047524880D+04  0.1834737132D-02
      0.4573695180D+03  0.1403732281D-01
      0.1039486850D+03  0.6884262226D-01
      0.2921015530D+02  0.2321844432D+00
      0.9286662960D+01  0.4679413484D+00
      0.3163926960D+01  0.3623119853D+00
 Atom C14      Shell    42 SP   3    bf  119 -   122          0.375514131702          8.692949233882         -1.880583316601
      0.7868272350D+01 -0.1193324198D+00  0.6899906659D-01
      0.1881288540D+01 -0.1608541517D+00  0.3164239610D+00
      0.5442492580D+00  0.1143456438D+01  0.7443082909D+00
 Atom C14      Shell    43 SP   1    bf  123 -   126          0.375514131702          8.692949233882         -1.880583316601
      0.1687144782D+00  0.1000000000D+01  0.1000000000D+01
 Atom C14      Shell    44 D   1     bf  127 -   132          0.375514131702          8.692949233882         -1.880583316601
      0.8000000000D+00  0.1000000000D+01
 Atom H15      Shell    45 S   3     bf  133 -   133          1.478872780793          8.387586914082         -0.146620543630
      0.1873113696D+02  0.3349460434D-01
      0.2825394365D+01  0.2347269535D+00
      0.6401216923D+00  0.8137573261D+00
 Atom H15      Shell    46 S   1     bf  134 -   134          1.478872780793          8.387586914082         -0.146620543630
      0.1612777588D+00  0.1000000000D+01
 Atom H16      Shell    47 S   3     bf  135 -   135          0.436830321200         10.724224150018         -2.265265681404
      0.1873113696D+02  0.3349460434D-01
      0.2825394365D+01  0.2347269535D+00
      0.6401216923D+00  0.8137573261D+00
 Atom H16      Shell    48 S   1     bf  136 -   136          0.436830321200         10.724224150018         -2.265265681404
      0.1612777588D+00  0.1000000000D+01
 Atom C17      Shell    49 S   6     bf  137 -   137          2.825028394521          3.011215910537         -6.209699617933
      0.3047524880D+04  0.1834737132D-02
      0.4573695180D+03  0.1403732281D-01
      0.1039486850D+03  0.6884262226D-01
      0.2921015530D+02  0.2321844432D+00
      0.9286662960D+01  0.4679413484D+00
      0.3163926960D+01  0.3623119853D+00
 Atom C17      Shell    50 SP   3    bf  138 -   141          2.825028394521          3.011215910537         -6.209699617933
      0.7868272350D+01 -0.1193324198D+00  0.6899906659D-01
      0.1881288540D+01 -0.1608541517D+00  0.3164239610D+00
      0.5442492580D+00  0.1143456438D+01  0.7443082909D+00
 Atom C17      Shell    51 SP   1    bf  142 -   145          2.825028394521          3.011215910537         -6.209699617933
      0.1687144782D+00  0.1000000000D+01  0.1000000000D+01
 Atom C17      Shell    52 D   1     bf  146 -   151          2.825028394521          3.011215910537         -6.209699617933
      0.8000000000D+00  0.1000000000D+01
 Atom C18      Shell    53 S   6     bf  152 -   152         -4.762967620461          4.091986738752          0.018460224366
      0.3047524880D+04  0.1834737132D-02
      0.4573695180D+03  0.1403732281D-01
      0.1039486850D+03  0.6884262226D-01
      0.2921015530D+02  0.2321844432D+00
      0.9286662960D+01  0.4679413484D+00
      0.3163926960D+01  0.3623119853D+00
 Atom C18      Shell    54 SP   3    bf  153 -   156         -4.762967620461          4.091986738752          0.018460224366
      0.7868272350D+01 -0.1193324198D+00  0.6899906659D-01
      0.1881288540D+01 -0.1608541517D+00  0.3164239610D+00
      0.5442492580D+00  0.1143456438D+01  0.7443082909D+00
 Atom C18      Shell    55 SP   1    bf  157 -   160         -4.762967620461          4.091986738752          0.018460224366
      0.1687144782D+00  0.1000000000D+01  0.1000000000D+01
 Atom C18      Shell    56 D   1     bf  161 -   166         -4.762967620461          4.091986738752          0.018460224366
      0.8000000000D+00  0.1000000000D+01
 Atom H19      Shell    57 S   3     bf  167 -   167         -4.685779847940          2.350900850992          1.128822349684
      0.1873113696D+02  0.3349460434D-01
      0.2825394365D+01  0.2347269535D+00
      0.6401216923D+00  0.8137573261D+00
 Atom H19      Shell    58 S   1     bf  168 -   168         -4.685779847940          2.350900850992          1.128822349684
      0.1612777588D+00  0.1000000000D+01
 Atom H20      Shell    59 S   3     bf  169 -   169         -6.088054223998          3.761907670408         -1.542727288228
      0.1873113696D+02  0.3349460434D-01
      0.2825394365D+01  0.2347269535D+00
      0.6401216923D+00  0.8137573261D+00
 Atom H20      Shell    60 S   1     bf  170 -   170         -6.088054223998          3.761907670408         -1.542727288228
      0.1612777588D+00  0.1000000000D+01
 Atom C21      Shell    61 S   6     bf  171 -   171          1.648231397425          7.303892887410         -4.104786949891
      0.3047524880D+04  0.1834737132D-02
      0.4573695180D+03  0.1403732281D-01
      0.1039486850D+03  0.6884262226D-01
      0.2921015530D+02  0.2321844432D+00
      0.9286662960D+01  0.4679413484D+00
      0.3163926960D+01  0.3623119853D+00
 Atom C21      Shell    62 SP   3    bf  172 -   175          1.648231397425          7.303892887410         -4.104786949891
      0.7868272350D+01 -0.1193324198D+00  0.6899906659D-01
      0.1881288540D+01 -0.1608541517D+00  0.3164239610D+00
      0.5442492580D+00  0.1143456438D+01  0.7443082909D+00
 Atom C21      Shell    63 SP   1    bf  176 -   179          1.648231397425          7.303892887410         -4.104786949891
      0.1687144782D+00  0.1000000000D+01  0.1000000000D+01
 Atom C21      Shell    64 D   1     bf  180 -   185          1.648231397425          7.303892887410         -4.104786949891
      0.8000000000D+00  0.1000000000D+01
 Atom H22      Shell    65 S   3     bf  186 -   186          0.696379235572          7.865723263273         -5.853924639449
      0.1873113696D+02  0.3349460434D-01
      0.2825394365D+01  0.2347269535D+00
      0.6401216923D+00  0.8137573261D+00
 Atom H22      Shell    66 S   1     bf  187 -   187          0.696379235572          7.865723263273         -5.853924639449
      0.1612777588D+00  0.1000000000D+01
 Atom H23      Shell    67 S   3     bf  188 -   188          3.597232777791          7.984614438060         -4.275138919962
      0.1873113696D+02  0.3349460434D-01
      0.2825394365D+01  0.2347269535D+00
      0.6401216923D+00  0.8137573261D+00
 Atom H23      Shell    68 S   1     bf  189 -   189          3.597232777791          7.984614438060         -4.275138919962
      0.1612777588D+00  0.1000000000D+01
 Atom C24      Shell    69 S   6     bf  190 -   190         -5.584470064148          6.407322584875          1.624834679277
      0.3047524880D+04  0.1834737132D-02
      0.4573695180D+03  0.1403732281D-01
      0.1039486850D+03  0.6884262226D-01
      0.2921015530D+02  0.2321844432D+00
      0.9286662960D+01  0.4679413484D+00
      0.3163926960D+01  0.3623119853D+00
 Atom C24      Shell    70 SP   3    bf  191 -   194         -5.584470064148          6.407322584875          1.624834679277
      0.7868272350D+01 -0.1193324198D+00  0.6899906659D-01
      0.1881288540D+01 -0.1608541517D+00  0.3164239610D+00
      0.5442492580D+00  0.1143456438D+01  0.7443082909D+00
 Atom C24      Shell    71 SP   1    bf  195 -   198         -5.584470064148          6.407322584875          1.624834679277
      0.1687144782D+00  0.1000000000D+01  0.1000000000D+01
 Atom C24      Shell    72 D   1     bf  199 -   204         -5.584470064148          6.407322584875          1.624834679277
      0.8000000000D+00  0.1000000000D+01
 Atom H25      Shell    73 S   3     bf  205 -   205         -7.492445150018          7.028931083239          1.106314936654
      0.1873113696D+02  0.3349460434D-01
      0.2825394365D+01  0.2347269535D+00
      0.6401216923D+00  0.8137573261D+00
 Atom H25      Shell    74 S   1     bf  206 -   206         -7.492445150018          7.028931083239          1.106314936654
      0.1612777588D+00  0.1000000000D+01
 Atom H26      Shell    75 S   3     bf  207 -   207         -5.653495334713          5.930799548912          3.635178251772
      0.1873113696D+02  0.3349460434D-01
      0.2825394365D+01  0.2347269535D+00
      0.6401216923D+00  0.8137573261D+00
 Atom H26      Shell    76 S   1     bf  208 -   208         -5.653495334713          5.930799548912          3.635178251772
      0.1612777588D+00  0.1000000000D+01
 Atom C27      Shell    77 S   6     bf  209 -   209         -0.848271548195          0.499630720500         -2.551613614649
      0.3047524880D+04  0.1834737132D-02
      0.4573695180D+03  0.1403732281D-01
      0.1039486850D+03  0.6884262226D-01
      0.2921015530D+02  0.2321844432D+00
      0.9286662960D+01  0.4679413484D+00
      0.3163926960D+01  0.3623119853D+00
 Atom C27      Shell    78 SP   3    bf  210 -   213         -0.848271548195          0.499630720500         -2.551613614649
      0.7868272350D+01 -0.1193324198D+00  0.6899906659D-01
      0.1881288540D+01 -0.1608541517D+00  0.3164239610D+00
      0.5442492580D+00  0.1143456438D+01  0.7443082909D+00
 Atom C27      Shell    79 SP   1    bf  214 -   217         -0.848271548195          0.499630720500         -2.551613614649
      0.1687144782D+00  0.1000000000D+01  0.1000000000D+01
 Atom C27      Shell    80 D   1     bf  218 -   223         -0.848271548195          0.499630720500         -2.551613614649
      0.8000000000D+00  0.1000000000D+01
 Atom H28      Shell    81 S   3     bf  224 -   224         -2.765152006261         -0.284436872104         -2.583034374519
      0.1873113696D+02  0.3349460434D-01
      0.2825394365D+01  0.2347269535D+00
      0.6401216923D+00  0.8137573261D+00
 Atom H28      Shell    82 S   1     bf  225 -   225         -2.765152006261         -0.284436872104         -2.583034374519
      0.1612777588D+00  0.1000000000D+01
 Atom C29      Shell    83 S   6     bf  226 -   226         -4.811560094934         11.240033156092          1.357884822581
      0.3047524880D+04  0.1834737132D-02
      0.4573695180D+03  0.1403732281D-01
      0.1039486850D+03  0.6884262226D-01
      0.2921015530D+02  0.2321844432D+00
      0.9286662960D+01  0.4679413484D+00
      0.3163926960D+01  0.3623119853D+00
 Atom C29      Shell    84 SP   3    bf  227 -   230         -4.811560094934         11.240033156092          1.357884822581
      0.7868272350D+01 -0.1193324198D+00  0.6899906659D-01
      0.1881288540D+01 -0.1608541517D+00  0.3164239610D+00
      0.5442492580D+00  0.1143456438D+01  0.7443082909D+00
 Atom C29      Shell    85 SP   1    bf  231 -   234         -4.811560094934         11.240033156092          1.357884822581
      0.1687144782D+00  0.1000000000D+01  0.1000000000D+01
 Atom C29      Shell    86 D   1     bf  235 -   240         -4.811560094934         11.240033156092          1.357884822581
      0.8000000000D+00  0.1000000000D+01
 Atom H30      Shell    87 S   3     bf  241 -   241         -6.383110601079         11.362102812441          0.000000000000
      0.1873113696D+02  0.3349460434D-01
      0.2825394365D+01  0.2347269535D+00
      0.6401216923D+00  0.8137573261D+00
 Atom H30      Shell    88 S   1     bf  242 -   242         -6.383110601079         11.362102812441          0.000000000000
      0.1612777588D+00  0.1000000000D+01
 Atom C31      Shell    89 S   6     bf  243 -   243         -4.069531614444          8.427482963378         -3.688044663148
      0.3047524880D+04  0.1834737132D-02
      0.4573695180D+03  0.1403732281D-01
      0.1039486850D+03  0.6884262226D-01
      0.2921015530D+02  0.2321844432D+00
      0.9286662960D+01  0.4679413484D+00
      0.3163926960D+01  0.3623119853D+00
 Atom C31      Shell    90 SP   3    bf  244 -   247         -4.069531614444          8.427482963378         -3.688044663148
      0.7868272350D+01 -0.1193324198D+00  0.6899906659D-01
      0.1881288540D+01 -0.1608541517D+00  0.3164239610D+00
      0.5442492580D+00  0.1143456438D+01  0.7443082909D+00
 Atom C31      Shell    91 SP   1    bf  248 -   251         -4.069531614444          8.427482963378         -3.688044663148
      0.1687144782D+00  0.1000000000D+01  0.1000000000D+01
 Atom C31      Shell    92 D   1     bf  252 -   257         -4.069531614444          8.427482963378         -3.688044663148
      0.8000000000D+00  0.1000000000D+01
 Atom H32      Shell    93 S   3     bf  258 -   258         -3.451124520019          7.536684829316         -5.446099044362
      0.1873113696D+02  0.3349460434D-01
      0.2825394365D+01  0.2347269535D+00
      0.6401216923D+00  0.8137573261D+00
 Atom H32      Shell    94 S   1     bf  259 -   259         -3.451124520019          7.536684829316         -5.446099044362
      0.1612777588D+00  0.1000000000D+01
 Atom H33      Shell    95 S   3     bf  260 -   260         -6.026769026009          7.843279987547         -3.366409987208
      0.1873113696D+02  0.3349460434D-01
      0.2825394365D+01  0.2347269535D+00
      0.6401216923D+00  0.8137573261D+00
 Atom H33      Shell    96 S   1     bf  261 -   261         -6.026769026009          7.843279987547         -3.366409987208
      0.1612777588D+00  0.1000000000D+01
 Atom H34      Shell    97 S   3     bf  262 -   262         -4.084456444674         10.471168863762         -4.013450892299
      0.1873113696D+02  0.3349460434D-01
      0.2825394365D+01  0.2347269535D+00
      0.6401216923D+00  0.8137573261D+00
 Atom H34      Shell    98 S   1     bf  263 -   263         -4.084456444674         10.471168863762         -4.013450892299
      0.1612777588D+00  0.1000000000D+01
 Atom C35      Shell    99 S   6     bf  264 -   264          2.425026227829          0.146605104567         -6.004652578418
      0.3047524880D+04  0.1834737132D-02
      0.4573695180D+03  0.1403732281D-01
      0.1039486850D+03  0.6884262226D-01
      0.2921015530D+02  0.2321844432D+00
      0.9286662960D+01  0.4679413484D+00
      0.3163926960D+01  0.3623119853D+00
 Atom C35      Shell   100 SP   3    bf  265 -   268          2.425026227829          0.146605104567         -6.004652578418
      0.7868272350D+01 -0.1193324198D+00  0.6899906659D-01
      0.1881288540D+01 -0.1608541517D+00  0.3164239610D+00
      0.5442492580D+00  0.1143456438D+01  0.7443082909D+00
 Atom C35      Shell   101 SP   1    bf  269 -   272          2.425026227829          0.146605104567         -6.004652578418
      0.1687144782D+00  0.1000000000D+01  0.1000000000D+01
 Atom C35      Shell   102 D   1     bf  273 -   278          2.425026227829          0.146605104567         -6.004652578418
      0.8000000000D+00  0.1000000000D+01
 Atom C36      Shell   103 S   6     bf  279 -   279          5.724979271258          3.540815211964         -6.252373224493
      0.3047524880D+04  0.1834737132D-02
      0.4573695180D+03  0.1403732281D-01
      0.1039486850D+03  0.6884262226D-01
      0.2921015530D+02  0.2321844432D+00
      0.9286662960D+01  0.4679413484D+00
      0.3163926960D+01  0.3623119853D+00
 Atom C36      Shell   104 SP   3    bf  280 -   283          5.724979271258          3.540815211964         -6.252373224493
      0.7868272350D+01 -0.1193324198D+00  0.6899906659D-01
      0.1881288540D+01 -0.1608541517D+00  0.3164239610D+00
      0.5442492580D+00  0.1143456438D+01  0.7443082909D+00
 Atom C36      Shell   105 SP   1    bf  284 -   287          5.724979271258          3.540815211964         -6.252373224493
      0.1687144782D+00  0.1000000000D+01  0.1000000000D+01
 Atom C36      Shell   106 D   1     bf  288 -   293          5.724979271258          3.540815211964         -6.252373224493
      0.8000000000D+00  0.1000000000D+01
 Atom H37      Shell   107 S   3     bf  294 -   294          6.475989487777          3.200347204129         -4.346390514679
      0.1873113696D+02  0.3349460434D-01
      0.2825394365D+01  0.2347269535D+00
      0.6401216923D+00  0.8137573261D+00
 Atom H37      Shell   108 S   1     bf  295 -   295          6.475989487777          3.200347204129         -4.346390514679
      0.1612777588D+00  0.1000000000D+01
 Atom H38      Shell   109 S   3     bf  296 -   296          6.048864535434          5.544340822647         -6.658349023361
      0.1873113696D+02  0.3349460434D-01
      0.2825394365D+01  0.2347269535D+00
      0.6401216923D+00  0.8137573261D+00
 Atom H38      Shell   110 S   1     bf  297 -   297          6.048864535434          5.544340822647         -6.658349023361
      0.1612777588D+00  0.1000000000D+01
 Atom C39      Shell   111 S   6     bf  298 -   298          0.781068918484         -0.918465312017         -4.390139658868
      0.3047524880D+04  0.1834737132D-02
      0.4573695180D+03  0.1403732281D-01
      0.1039486850D+03  0.6884262226D-01
      0.2921015530D+02  0.2321844432D+00
      0.9286662960D+01  0.4679413484D+00
      0.3163926960D+01  0.3623119853D+00
 Atom C39      Shell   112 SP   3    bf  299 -   302          0.781068918484         -0.918465312017         -4.390139658868
      0.7868272350D+01 -0.1193324198D+00  0.6899906659D-01
      0.1881288540D+01 -0.1608541517D+00  0.3164239610D+00
      0.5442492580D+00  0.1143456438D+01  0.7443082909D+00
 Atom C39      Shell   113 SP   1    bf  303 -   306          0.781068918484         -0.918465312017         -4.390139658868
      0.1687144782D+00  0.1000000000D+01  0.1000000000D+01
 Atom C39      Shell   114 D   1     bf  307 -   312          0.781068918484         -0.918465312017         -4.390139658868
      0.8000000000D+00  0.1000000000D+01
 Atom H40      Shell   115 S   3     bf  313 -   313          0.628391764804         -2.970720496804         -4.319687059257
[...]
 1562 Fit      -0.002747
 1563 Fit      -0.001565
 1564 Fit      -0.000433
 1565 Fit      -0.000914
 1566 Fit      -0.002557
 1567 Fit      -0.003115
 1568 Fit      -0.000728
 1569 Fit       0.000770
 1570 Fit       0.000864
 1571 Fit      -0.000261
 1572 Fit      -0.001764
 1573 Fit      -0.003448
 1574 Fit      -0.000330
 1575 Fit       0.001423
 1576 Fit       0.001216
 1577 Fit      -0.000254
 1578 Fit      -0.003150
 1579 Fit      -0.003135
 1580 Fit      -0.000578
 1581 Fit      -0.002454
 1582 Fit      -0.003088
 1583 Fit      -0.003097
 1584 Fit      -0.000484
 1585 Fit      -0.001538
 1586 Fit      -0.002105
 1587 Fit      -0.002238
 1588 Fit      -0.000270
 1589 Fit       0.000725
 1590 Fit      -0.002356
 1591 Fit      -0.000147
 1592 Fit       0.001379
 1593 Fit       0.002088
 1594 Fit       0.002684
 1595 Fit      -0.001318
 1596 Fit       0.000545
 1597 Fit       0.001538
 1598 Fit      -0.000265
 1599 Fit       0.001442
 1600 Fit       0.001725
 1601 Fit       0.000504
 1602 Fit      -0.001059
 1603 Fit       0.002102
 1604 Fit       0.000736
 1605 Fit      -0.000029
 1606 Fit      -0.001358
 1607 Fit      -0.002804
 1608 Fit       0.000829
 1609 Fit       0.000918
 1610 Fit      -0.001311
 1611 Fit      -0.001965
 1612 Fit      -0.001043
 1613 Fit       0.000100
 1614 Fit      -0.000524
 1615 Fit      -0.001736
 1616 Fit       0.000327
 1617 Fit       0.001673
 1618 Fit       0.001321
 1619 Fit       0.000314
 1620 Fit      -0.000955
 1621 Fit       0.001793
 1622 Fit      -0.019355
 1623 Fit      -0.009890
 1624 Fit      -0.013692
 1625 Fit      -0.020090
 1626 Fit      -0.023395
 1627 Fit      -0.023076
 1628 Fit      -0.016215
 1629 Fit      -0.024106
 1630 Fit      -0.024377
 1631 Fit      -0.020403
 1632 Fit      -0.012095
 1633 Fit      -0.020981
 1634 Fit      -0.022323
 1635 Fit      -0.019902
 1636 Fit      -0.013067
 1637 Fit      -0.015528
 1638 Fit      -0.015565
 1639 Fit      -0.012252
 1640 Fit      -0.005704
 1641 Fit       0.002058
 1642 Fit       0.010671
 1643 Fit       0.009818
 1644 Fit       0.003572
 1645 Fit      -0.002334
 1646 Fit       0.006693
 1647 Fit       0.015434
 1648 Fit       0.016153
 1649 Fit       0.005330
 1650 Fit       0.011737
 1651 Fit       0.016960
 1652 Fit       0.005400
 1653 Fit       0.011872
 1654 Fit      -0.013767
 1655 Fit      -0.014805
 1656 Fit      -0.018184
 1657 Fit      -0.017793
 1658 Fit      -0.019627
 1659 Fit      -0.018546
 1660 Fit      -0.022649
 1661 Fit      -0.023930
 1662 Fit      -0.023022
 1663 Fit      -0.020336
 1664 Fit      -0.015038
 1665 Fit      -0.015898
 1666 Fit      -0.020652
 1667 Fit      -0.023047
 1668 Fit      -0.023753
 1669 Fit      -0.022972
 1670 Fit      -0.015334
 1671 Fit      -0.010234
 1672 Fit      -0.006165
 1673 Fit      -0.012560
 1674 Fit      -0.016308
 1675 Fit      -0.017898
 1676 Fit      -0.017671
 1677 Fit      -0.004814
 1678 Fit      -0.002507
 1679 Fit      -0.006308
 1680 Fit      -0.007100
 1681 Fit       0.002917
 1682 Fit       0.008302
 1683 Fit       0.015272
 1684 Fit       0.018993
 1685 Fit       0.012145
 1686 Fit       0.006019
 1687 Fit       0.001902
 1688 Fit       0.000716
 1689 Fit       0.012622
 1690 Fit       0.017811
 1691 Fit       0.022482
 1692 Fit       0.021315
 1693 Fit       0.015900
 1694 Fit       0.011831
 1695 Fit       0.018415
 1696 Fit      -0.006366
 1697 Fit      -0.003942
 1698 Fit      -0.013343
 1699 Fit       0.000580
 1700 Fit       0.004677
 1701 Fit       0.005922
 1702 Fit       0.004645
 1703 Fit       0.008818
 1704 Fit       0.010522
 1705 Fit       0.007234
 1706 Fit       0.017014
 1707 Fit       0.000399
 1708 Fit      -0.001682
 1709 Fit       0.001393
 1710 Fit       0.001975
 1711 Fit      -0.004365
 1712 Fit      -0.000585
 1713 Fit       0.000416
 1714 Fit       0.002990
 1715 Fit       0.001500
 1716 Fit       0.002739
 1717 Fit       0.002223
 1718 Fit       0.001926
 1719 Fit       0.003607
 1720 Fit       0.002367
 1721 Fit       0.001467
 1722 Fit       0.004371
 1723 Fit       0.004322
 1724 Fit       0.002626
 1725 Fit       0.000886
 1726 Fit       0.006212
 1727 Fit       0.001734
 1728 Fit       0.001507
 1729 Fit       0.003586
 1730 Fit       0.003363
 1731 Fit       0.003549
 1732 Fit       0.004437
 1733 Fit       0.004619
 1734 Fit       0.005499
 1735 Fit       0.005056
 1736 Fit      -0.005839
 1737 Fit      -0.003683
 1738 Fit      -0.004819
 1739 Fit      -0.003651
 1740 Fit      -0.013139
 1741 Fit      -0.008466
 1742 Fit      -0.014084
 1743 Fit      -0.005952
 1744 Fit      -0.007371
 1745 Fit      -0.012608
 1746 Fit      -0.005780
 1747 Fit      -0.006889
 1748 Fit      -0.011691
 1749 Fit      -0.005387
 1750 Fit      -0.001381
 1751 Fit      -0.002774
 1752 Fit       0.002750
 1753 Fit       0.000942
 1754 Fit      -0.000100
 1755 Fit      -0.000728
 1756 Fit       0.003027
 1757 Fit       0.002142
 1758 Fit       0.001936
 1759 Fit       0.003340
 1760 Fit       0.003929
 1761 Fit       0.005042
 1762 Fit       0.004964
 1763 Fit       0.006715
 1764 Fit       0.006006
 1765 Fit       0.005309
 1766 Fit       0.006020
 1767 Fit       0.004722
 1768 Fit       0.007104
 1769 Fit       0.006506
 1770 Fit       0.005154
 1771 Fit       0.003754
 1772 Fit       0.008265
 1773 Fit       0.006448
 1774 Fit       0.004944
 1775 Fit       0.006766
 1776 Fit       0.009425
 1777 Fit      -0.002609
 1778 Fit      -0.004218
 1779 Fit      -0.005603
 1780 Fit      -0.004024
 1781 Fit      -0.001719
 1782 Fit       0.001080
 1783 Fit       0.000234
 1784 Fit      -0.001527
 1785 Fit       0.001990
 1786 Fit       0.001279
 1787 Fit      -0.000205
 1788 Fit       0.002803
 1789 Fit       0.001914
 1790 Fit      -0.001299
 1791 Fit      -0.002054
 1792 Fit      -0.000922
 1793 Fit      -0.002097
 1794 Fit      -0.002954
 1795 Fit      -0.002966
 1796 Fit      -0.001940
 1797 Fit      -0.003231
 1798 Fit      -0.004849
 1799 Fit      -0.006634
 1800 Fit      -0.005881
 1801 Fit      -0.005108
 1802 Fit       0.002757
 1803 Fit      -0.010433
 1804 Fit      -0.002097
 1805 Fit      -0.003391
 1806 Fit      -0.005603
 1807 Fit       0.001779
 1808 Fit       0.001362
 1809 Fit       0.000684
 1810 Fit       0.000586
 1811 Fit       0.004408
 1812 Fit       0.003203
 1813 Fit       0.002257
 1814 Fit       0.003640
 1815 Fit       0.002082
 1816 Fit       0.001179
 1817 Fit       0.001711
 1818 Fit       0.002270
 1819 Fit       0.000558
 1820 Fit       0.000204
 1821 Fit       0.000548
 1822 Fit       0.004146
 1823 Fit       0.000709
 1824 Fit       0.000484
 1825 Fit       0.001383
 1826 Fit       0.001877
 1827 Fit       0.002526
 1828 Fit       0.005622
 1829 Fit       0.005635
 1830 Fit       0.003373
 1831 Fit       0.003918
 1832 Fit       0.007187
 1833 Fit       0.006153
 1834 Fit       0.002757
 1835 Fit       0.003300
 1836 Fit       0.001769
 1837 Fit       0.002644
 1838 Fit       0.003003
 1839 Fit       0.001220
 1840 Fit       0.002113
 1841 Fit       0.002645
 1842 Fit       0.002806
 1843 Fit       0.001780
 1844 Fit       0.000709
 1845 Fit       0.004672
 1846 Fit       0.004235
 1847 Fit       0.003171
 1848 Fit       0.001793
 1849 Fit       0.003119
 1850 Fit       0.001885
 1851 Fit       0.006270
 1852 Fit       0.009290
 1853 Fit       0.008596
 1854 Fit       0.012668
 1855 Fit       0.007326
 1856 Fit       0.006819
 1857 Fit       0.006781
 1858 Fit       0.008550
 1859 Fit       0.006282
 1860 Fit       0.006079
 1861 Fit       0.006604
 1862 Fit       0.006494
 1863 Fit       0.006755
 1864 Fit       0.007818
 1865 Fit       0.007356
 1866 Fit       0.008246
 1867 Fit       0.009145
 1868 Fit       0.007987
 1869 Fit       0.009078
 1870 Fit       0.010297
 1871 Fit       0.009437
 1872 Fit       0.001199
 1873 Fit       0.006659
 1874 Fit       0.001723
 1875 Fit       0.000697
 1876 Fit       0.000270
 1877 Fit      -0.001150
 1878 Fit      -0.000254
 1879 Fit      -0.005676
 1880 Fit      -0.002990
 1881 Fit      -0.001381
 1882 Fit       0.000294
 1883 Fit       0.000096
 1884 Fit       0.000560
 1885 Fit       0.001611
 1886 Fit       0.002182
 1887 Fit       0.002120
 1888 Fit       0.001740
 1889 Fit       0.002615
 1890 Fit       0.003701
 1891 Fit       0.004576
 1892 Fit       0.002465
 1893 Fit       0.004505
 1894 Fit       0.007030
 1895 Fit       0.005514
 1896 Fit       0.006130
 1897 Fit       0.009616
 1898 Fit       0.005264
 1899 Fit       0.005174
 1900 Fit       0.005572
 1901 Fit       0.007905
 1902 Fit       0.006213
 1903 Fit       0.006439
 1904 Fit       0.009573
 1905 Fit       0.008538
 1906 Fit       0.007915
 1907 Fit       0.007227
 1908 Fit       0.009076
 1909 Fit       0.008391
 1910 Fit       0.007521
 1911 Fit       0.006342
 1912 Fit       0.007704
 1913 Fit       0.006478
 1914 Fit       0.009390
 1915 Fit       0.015145
 1916 Fit       0.010087
 1917 Fit       0.007722
 1918 Fit       0.008223
 1919 Fit       0.011806
 1920 Fit       0.016888
 1921 Fit       0.011294
 1922 Fit       0.007141
 1923 Fit       0.007013
 1924 Fit       0.005886
 1925 Fit       0.003198
 1926 Fit       0.005670
 1927 Fit       0.006041
 1928 Fit       0.005763
 1929 Fit       0.004870
 1930 Fit       0.005390
 1931 Fit       0.001295
 1932 Fit       0.003329
 1933 Fit       0.005992
 1934 Fit       0.001621
 1935 Fit       0.003050
 1936 Fit      -0.000751
 1937 Fit       0.002460
 1938 Fit      -0.001860
 1939 Fit      -0.009532
 1940 Fit       0.002912
 1941 Fit       0.003292
 1942 Fit       0.001221
 1943 Fit      -0.004099
 1944 Fit       0.002795
 1945 Fit       0.000250
 1946 Fit      -0.007608
 1947 Fit       0.003571
 1948 Fit       0.003389
 1949 Fit       0.007702
 1950 Fit       0.007157
 1951 Fit       0.007574
 1952 Fit       0.023504
 1953 Fit       0.012634
 1954 Fit       0.012430
 1955 Fit       0.018361
 1956 Fit       0.007368
 1957 Fit       0.005588
 1958 Fit       0.007513
 1959 Fit       0.004240
 1960 Fit       0.005956
 1961 Fit       0.007286
 1962 Fit       0.008639
 1963 Fit       0.010063
 1964 Fit       0.013058
 1965 Fit       0.011244
 1966 Fit       0.012952
 1967 Fit       0.017562
 1968 Fit       0.024687
 1969 Fit       0.016256
 1970 Fit       0.005520
 1971 Fit       0.002725
 1972 Fit       0.005129
 1973 Fit      -0.001022
 1974 Fit       0.000900
 1975 Fit       0.004076
 1976 Fit       0.005747
 1977 Fit      -0.005411
 1978 Fit      -0.000263
 1979 Fit       0.003456
 1980 Fit       0.005303
 1981 Fit       0.006873
 1982 Fit      -0.008639
 1983 Fit      -0.000086
 1984 Fit       0.003614
 1985 Fit       0.005473
 1986 Fit      -0.000043
 1987 Fit       0.000711
 1988 Fit      -0.001019
 1989 Fit       0.001153
 1990 Fit      -0.000790
 1991 Fit       0.000566
 1992 Fit       0.001928
 1993 Fit       0.009600
 1994 Fit       0.005535
 1995 Fit       0.005940
 1996 Fit       0.003781
 1997 Fit       0.001099
 1998 Fit       0.005701
 1999 Fit       0.000051
 2000 Fit      -0.002195
 2001 Fit      -0.001848
 2002 Fit      -0.005509
 2003 Fit      -0.010400
 2004 Fit      -0.012536
 2005 Fit      -0.010602
 2006 Fit      -0.000861
 2007 Fit      -0.000783
 2008 Fit      -0.000067
 2009 Fit      -0.000748
 2010 Fit      -0.000797
 2011 Fit       0.000267
 2012 Fit      -0.000249
 2013 Fit      -0.000075
 2014 Fit       0.000509
 2015 Fit       0.001155
 2016 Fit       0.001851
 2017 Fit       0.001372
 2018 Fit       0.002002
 2019 Fit       0.001285
 2020 Fit       0.000462
 2021 Fit       0.002214
 2022 Fit       0.001569
 2023 Fit       0.000994
 2024 Fit      -0.000069
 2025 Fit       0.000382
 2026 Fit       0.000217
 2027 Fit       0.001397
 2028 Fit      -0.000255
 2029 Fit       0.001321
 2030 Fit       0.002200
 2031 Fit      -0.000551
 2032 Fit       0.000804
 2033 Fit       0.001476
 2034 Fit       0.000969
 2035 Fit      -0.000168
 2036 Fit       0.000580
 2037 Fit       0.000486
 2038 Fit      -0.000081
 2039 Fit       0.001957
 2040 Fit       0.003993
 2041 Fit       0.002362
 2042 Fit       0.001414
 2043 Fit       0.001176
 2044 Fit       0.004559
 2045 Fit       0.003875
 2046 Fit      -0.000719
 2047 Fit       0.000064
 2048 Fit      -0.000256
 2049 Fit       0.001490
 2050 Fit       0.000277
 2051 Fit       0.000731
 2052 Fit      -0.000229
 2053 Fit       0.000144
 2054 Fit       0.000292
 2055 Fit       0.000522
 2056 Fit       0.000882
 2057 Fit      -0.000189
 2058 Fit       0.000577
 2059 Fit       0.001160
 2060 Fit       0.001464
 2061 Fit       0.001806
 2062 Fit      -0.000030
 2063 Fit       0.000892
 2064 Fit       0.001656
 2065 Fit      -0.001526
 2066 Fit      -0.001353
 2067 Fit      -0.001721
 2068 Fit      -0.000066
 2069 Fit       0.000801
 2070 Fit       0.000716
 2071 Fit      -0.001384
 2072 Fit      -0.000032
 2073 Fit       0.000670
 2074 Fit       0.000765
 2075 Fit      -0.000355
 2076 Fit       0.000534
 2077 Fit       0.001670
 2078 Fit       0.001171
 2079 Fit       0.000013
 2080 Fit      -0.001795
 2081 Fit       0.000401
 2082 Fit       0.000928
 2083 Fit       0.000785
 2084 Fit      -0.000092
 2085 Fit      -0.001540
 2086 Fit      -0.000095
 2087 Fit       0.000072
 2088 Fit      -0.000656
 2089 Fit      -0.000755
 2090 Fit      -0.000204
 2091 Fit      -0.001107
 2092 Fit      -0.000798
 2093 Fit      -0.000188
 2094 Fit       0.000273
 2095 Fit      -0.002904
 2096 Fit      -0.002593
 2097 Fit      -0.002722
 2098 Fit      -0.003194
 2099 Fit      -0.003280
 2100 Fit      -0.002941
 2101 Fit      -0.002641
 2102 Fit      -0.002891
 2103 Fit      -0.002876
 2104 Fit      -0.003006
 2105 Fit      -0.002362
 2106 Fit      -0.001886
 2107 Fit      -0.002335
 2108 Fit      -0.002364
 2109 Fit      -0.000993
 2110 Fit      -0.000749
 2111 Fit      -0.001650
 2112 Fit       0.000489
 2113 Fit       0.000487
 2114 Fit      -0.000375
 2115 Fit      -0.001872
 2116 Fit       0.001559
 2117 Fit       0.001080
 2118 Fit      -0.000080
 2119 Fit      -0.001804
 2120 Fit      -0.000314
 2121 Fit       0.000795
 2122 Fit       0.000008
 2123 Fit      -0.001388
 2124 Fit      -0.001954
 2125 Fit      -0.001318
 2126 Fit       0.000000
 2127 Fit       0.001394
 2128 Fit       0.001097
 2129 Fit      -0.000656
 2130 Fit      -0.002143
 2131 Fit      -0.001977
 2132 Fit      -0.000675
 2133 Fit       0.000586
 2134 Fit      -0.000829
 2135 Fit       0.000409
 2136 Fit      -0.001939
 2137 Fit      -0.001174
 2138 Fit      -0.001493
 2139 Fit      -0.001957
 2140 Fit      -0.000576
 2141 Fit       0.000044
 2142 Fit      -0.000249
 2143 Fit      -0.001205
 2144 Fit      -0.001673
 2145 Fit      -0.000081
 2146 Fit       0.000682
 2147 Fit       0.000458
 2148 Fit      -0.000440
 2149 Fit      -0.002362
 2150 Fit      -0.002665
 2151 Fit      -0.002437
 2152 Fit      -0.001448
 2153 Fit      -0.001882
 2154 Fit      -0.002363
 2155 Fit      -0.002506
 2156 Fit      -0.000540
 2157 Fit      -0.001086
 2158 Fit      -0.001804
 2159 Fit      -0.002122
 2160 Fit      -0.001279
 2161 Fit      -0.002188
 2162 Fit      -0.002127
 2163 Fit      -0.000819
 2164 Fit      -0.000111
 2165 Fit      -0.000839
 2166 Fit       0.000410
 2167 Fit       0.001142
 2168 Fit       0.001718
 2169 Fit      -0.000499
 2170 Fit       0.000723
 2171 Fit       0.001449
 2172 Fit       0.001980
 2173 Fit      -0.000942
 2174 Fit       0.000194
 2175 Fit       0.000890
 2176 Fit      -0.000334
 2177 Fit       0.001019
 2178 Fit       0.001211
 2179 Fit       0.000313
 2180 Fit      -0.000740
 2181 Fit       0.001633
 2182 Fit       0.000731
 2183 Fit       0.000134
 2184 Fit      -0.000836
 2185 Fit      -0.001873
 2186 Fit       0.000949
 2187 Fit       0.000917
 2188 Fit      -0.000386
 2189 Fit      -0.000889
 2190 Fit      -0.001700
 2191 Fit      -0.000136
 2192 Fit      -0.000184
 2193 Fit      -0.000804
 2194 Fit      -0.001312
 2195 Fit      -0.000573
 2196 Fit       0.000766
 2197 Fit       0.000290
 2198 Fit      -0.000465
 2199 Fit       0.001163
 2200 Fit       0.000979
 2201 Fit       0.001148
 2202 Fit       0.000855
 2203 Fit       0.000304
 -----------------------------------------------------------------
 Leave Link  602 at Thu May 18 12:34:17 2017, MaxMem=   33554432 cpu:      15.4
 (Enter /scratch/michal/g09/l9999.exe)

 Test job not archived.
 1\1\GINC-RZEPICHA\SP\RHF\6-31G(d)\C27H46O2\MICHAL\18-May-2017\0\\#P HF
 /6-31G* SCF(Conver=6) NoSymm Test Pop=mk IOp(6/33=2) GFInput GFPrint\\
 MEP - Input generated by R.E.D.-III.x MOLECULE\\0,1\O,0,0.,0.,0.\H,0,0
 .96653929,0.,0.\O,0,4.36153569,-1.29881141,-4.93979925\H,0,4.08695881,
 -1.10929489,-5.84801774\C,0,-1.24148597,4.10125204,-0.75596909\C,0,-1.
 13759051,2.56848863,-0.51926706\H,0,-0.44225307,2.44871551,0.32379352\
 C,0,-0.53065807,1.77000777,-1.67948095\H,0,-1.19084888,1.84939346,-2.5
 5543294\C,0,0.86951878,2.3233665,-2.04601533\H,0,1.52298849,2.08059064
 ,-1.19150719\C,0,-1.91828842,4.53540802,0.59151169\H,0,-1.13269812,4.4
 6786626,1.36084257\C,0,0.19871352,4.60011061,-0.99516183\H,0,0.7825857
 7,4.43851983,-0.07758825\H,0,0.23116065,5.675015,-1.19872697\C,0,1.494
 94064,1.59346683,-3.28603151\C,0,-2.52045391,2.16538612,0.00976873\H,0
 ,-2.4796079,1.24404315,0.59734706\H,0,-3.22165954,1.9907158,-0.8163761
 2\C,0,0.87220649,3.86505365,-2.1721597\H,0,0.36850802,4.16236148,-3.09
 77635\H,0,1.9035736,4.22527598,-2.26230608\C,0,-2.95517428,3.39060908,
 0.85982548\H,0,-3.96483121,3.71955013,0.58543665\H,0,-2.99170088,3.138
 44395,1.92365348\C,0,-0.44888597,0.26439319,-1.35025577\H,0,-1.4632554
 2,-0.15051751,-1.36688292\C,0,-2.54616794,5.94796937,0.7185617\H,0,-3.
 37779665,6.01256585,0.\C,0,-2.15350338,4.45963191,-1.95162918\H,0,-1.8
 2625644,3.98824184,-2.88195149\H,0,-3.18922881,4.15048501,-1.78142744\
 H,0,-2.16140126,5.54110391,-2.12382674\C,0,1.28326861,0.07758008,-3.17
 752529\C,0,3.02952855,1.87371871,-3.30861341\H,0,3.42694604,1.6935508,
 -2.3000108\H,0,3.20092125,2.9339388,-3.52344655\C,0,0.41332387,-0.4860
 3091,-2.32316185\H,0,0.3325306,-1.57203758,-2.28587994\C,0,0.85899299,
 2.07965574,-4.6169729\H,0,1.13793962,3.11457368,-4.83661766\H,0,1.1855
 3775,1.47193772,-5.46448718\H,0,-0.23288316,2.01947701,-4.57969395\C,0
 ,2.10619844,-0.7970224,-4.10560367\H,0,1.94865613,-1.85372213,-3.86836
 16\H,0,1.77191615,-0.6543259,-5.14567663\C,0,3.83117588,1.01907903,-4.
 30212666\H,0,3.5404497,1.2564371,-5.33615344\H,0,4.89953605,1.24772194
 ,-4.21665378\C,0,-3.15177782,6.13738966,2.13195088\H,0,-3.78715358,5.2
 7626237,2.36987772\H,0,-2.33237258,6.12214606,2.86528742\C,0,3.6067225
 7,-0.47177718,-4.05064282\H,0,3.99002531,-0.72957576,-3.05562744\C,0,-
 1.55813851,7.08463173,0.40253438\H,0,-0.67064967,7.02278835,1.04518432
 \H,0,-2.01700685,8.06450895,0.56430028\H,0,-1.21961617,7.06027067,-0.6
 3555723\C,0,-3.99943709,7.40783251,2.3165741\H,0,-3.370547,8.3034555,2
 .25557577\H,0,-4.70793546,7.48140237,1.47913718\C,0,-4.809163,7.438039
 41,3.62620921\H,0,-5.49337213,6.57720555,3.63361819\H,0,-5.44844666,8.
 33347456,3.62405668\C,0,-4.00048514,7.42706632,4.94099957\H,0,-3.37401
 079,6.52365848,4.95158266\C,0,-4.94989414,7.34276028,6.14692014\H,0,-5
 .60228942,8.22432312,6.19349383\H,0,-4.39305788,7.29185055,7.08957851\
 H,0,-5.59228938,6.45656262,6.08849027\C,0,-3.07295627,8.64578405,5.069
 72387\H,0,-3.65020824,9.57920575,5.04034361\H,0,-2.52718226,8.62329225
 ,6.01988305\H,0,-2.33116146,8.68751226,4.26553954\\Version=EM64L-G09Re
 vC.01\HF=-1198.9272221\RMSD=4.844e-07\Dipole=-0.0009375,0.6438333,-0.7
 820932\Quadrupole=-5.4255169,-1.954225,7.3797418,5.8399187,3.172452,-5
 .3057336\PG=C01 [X(C27H46O2)]\\@


 TO DETECT ERRORS, THE PROGRAMMER MUST HAVE A CONNIVING MIND,
 ONE THAT DELIGHTS IN UNCOVERING FLAWS WHERE BEAUTY AND
 PERFECTION WERE ONCE THOUGHT TO LIE.

             -- THE PSYCHOLOGY OF COMPUTER PROGRAMMING
                GERALD M. WEINBERG
 Job cpu time:  0 days  0 hours 37 minutes  4.2 seconds.
 File lengths (MBytes):  RWF=    151 Int=      0 D2E=      0 Chk=     11 Scr=      1
 Normal termination of Gaussian 09 at Thu May 18 12:34:17 2017.
