 Entering Gaussian System, Link 0=/scratch/michal/g09//g09
 Input=JOB2-gau_m1-14-1.com
 Output=JOB2-gau_m1-14-1.log
 Initial command:
 /scratch/michal/g09/l1.exe /scratch/michal/gauss_scratch/Gau-25429.inp -scrdir=/scratch/michal/gauss_scratch/
 Entering Link 1 = /scratch/michal/g09/l1.exe PID=     25431.
  
 Copyright (c) 1988,1990,1992,1993,1995,1998,2003,2009,2011,
            Gaussian, Inc.  All Rights Reserved.
  
 This is part of the Gaussian(R) 09 program.  It is based on
 the Gaussian(R) 03 system (copyright 2003, Gaussian, Inc.),
 the Gaussian(R) 98 system (copyright 1998, Gaussian, Inc.),
 the Gaussian(R) 94 system (copyright 1995, Gaussian, Inc.),
 the Gaussian 92(TM) system (copyright 1992, Gaussian, Inc.),
 the Gaussian 90(TM) system (copyright 1990, Gaussian, Inc.),
 the Gaussian 88(TM) system (copyright 1988, Gaussian, Inc.),
 the Gaussian 86(TM) system (copyright 1986, Carnegie Mellon
 University), and the Gaussian 82(TM) system (copyright 1983,
 Carnegie Mellon University). Gaussian is a federally registered
 trademark of Gaussian, Inc.
  
 This software contains proprietary and confidential information,
 including trade secrets, belonging to Gaussian, Inc.
  
 This software is provided under written license and may be
 used, copied, transmitted, or stored only in accord with that
 written license.
  
 The following legend is applicable only to US Government
 contracts under FAR:
  
                    RESTRICTED RIGHTS LEGEND
  
 Use, reproduction and disclosure by the US Government is
 subject to restrictions as set forth in subparagraphs (a)
 and (c) of the Commercial Computer Software - Restricted
 Rights clause in FAR 52.227-19.
  
 Gaussian, Inc.
 340 Quinnipiac St., Bldg. 40, Wallingford CT 06492
  
  
 ---------------------------------------------------------------
 Warning -- This program may not be used in any manner that
 competes with the business of Gaussian, Inc. or will provide
 assistance to any competitor of Gaussian, Inc.  The licensee
 of this program is prohibited from giving any competitor of
 Gaussian, Inc. access to this program.  By using this program,
 the user acknowledges that Gaussian, Inc. is engaged in the
 business of creating and licensing software in the field of
 computational chemistry and represents and warrants to the
 licensee that it is not a competitor of Gaussian, Inc. and that
 it will not use this program in any manner prohibited above.
 ---------------------------------------------------------------
  

 Cite this work as:
 Gaussian 09, Revision C.01,
 M. J. Frisch, G. W. Trucks, H. B. Schlegel, G. E. Scuseria, 
 M. A. Robb, J. R. Cheeseman, G. Scalmani, V. Barone, B. Mennucci, 
 G. A. Petersson, H. Nakatsuji, M. Caricato, X. Li, H. P. Hratchian, 
 A. F. Izmaylov, J. Bloino, G. Zheng, J. L. Sonnenberg, M. Hada, 
 M. Ehara, K. Toyota, R. Fukuda, J. Hasegawa, M. Ishida, T. Nakajima, 
 Y. Honda, O. Kitao, H. Nakai, T. Vreven, J. A. Montgomery, Jr., 
 J. E. Peralta, F. Ogliaro, M. Bearpark, J. J. Heyd, E. Brothers, 
 K. N. Kudin, V. N. Staroverov, T. Keith, R. Kobayashi, J. Normand, 
 K. Raghavachari, A. Rendell, J. C. Burant, S. S. Iyengar, J. Tomasi, 
 M. Cossi, N. Rega, J. M. Millam, M. Klene, J. E. Knox, J. B. Cross, 
 V. Bakken, C. Adamo, J. Jaramillo, R. Gomperts, R. E. Stratmann, 
 O. Yazyev, A. J. Austin, R. Cammi, C. Pomelli, J. W. Ochterski, 
 R. L. Martin, K. Morokuma, V. G. Zakrzewski, G. A. Voth, 
 P. Salvador, J. J. Dannenberg, S. Dapprich, A. D. Daniels, 
 O. Farkas, J. B. Foresman, J. V. Ortiz, J. Cioslowski, 
 and D. J. Fox, Gaussian, Inc., Wallingford CT, 2010.
 
 ******************************************
 Gaussian 09:  EM64L-G09RevC.01 23-Sep-2011
                18-May-2017 
 ******************************************
 %Mem=256MB
 %NProc=48
 Will use up to   48 processors via shared memory.
 ----------------------------------------------------------------------
 #P HF/6-31G* SCF(Conver=6) NoSymm Test Pop=mk IOp(6/33=2) GFInput GFPr
 int
 ----------------------------------------------------------------------
 1/38=1/1;
 2/12=2,15=1,17=6,18=5,40=1/2;
 3/5=1,6=6,7=1,11=9,16=1,24=110,25=1,30=1/1,2,3;
 4//1;
 5/5=2,6=6,38=5/2;
 6/7=2,8=2,9=2,10=2,15=8,20=1,28=1,33=2/1,2;
 99/5=1,9=1/99;
 Leave Link    1 at Thu May 18 13:31:40 2017, MaxMem=   33554432 cpu:       6.8
 (Enter /scratch/michal/g09/l101.exe)
 ----------------------------------------------
 MEP - Input generated by R.E.D.-III.x MOLECULE
 ----------------------------------------------
 Charge =  0 Multiplicity = 1
 Symbolic Z-Matrix:
 O                     0.        0.        0. 
 H                     0.96653   0.        0. 
 O                     4.37798  -2.76758  -4.27053 
 H                     4.10685  -2.87435  -5.19316 
 C                    -1.25148   3.64867  -2.01001 
 C                    -1.15614   2.26435  -1.30565 
 H                    -0.46784   2.40943  -0.46155 
 C                    -0.53922   1.14514  -2.153 
 H                    -1.19459   0.93582  -3.01058 
 C                     0.8606    1.56465  -2.67203 
 H                     1.51142   1.60535  -1.78268 
 C                    -1.9193    4.46372  -0.84848 
 H                    -1.14182   4.51691  -0.07445 
 C                     0.18683   4.05306  -2.38644 
 H                     0.77267   4.18457  -1.46597 
 H                     0.20828   5.01426  -2.9136 
 C                     1.4938    0.48472  -3.61806 
 C                    -2.54935   2.04942  -0.68966 
 H                    -2.51298   1.37187   0.16801 
 H                    -3.23771   1.60709  -1.42123 
 C                     0.86232   2.98977  -3.27653 
 H                     0.35917   2.98242  -4.24876 
 H                     1.89391   3.30359  -3.47349 
 C                    -3.00375   3.48435  -0.29544 
 H                    -3.99085   3.70759  -0.7129 
 H                    -3.0975    3.59808   0.79005 
 C                    -0.44898  -0.17838  -1.36425 
 H                    -1.46111  -0.58281  -1.24841 
 C                    -2.43588   5.92479  -0.99061 
 H                    -2.86892   6.14116   0. 
 C                    -2.13914   3.59743  -3.27534 
 H                    -1.84478   2.79006  -3.95101 
 H                    -3.19407   3.44453  -3.0338 
 H                    -2.06323   4.53074  -3.84108 
 C                     1.28793  -0.92127  -3.03877 
 C                     3.02755   0.75083  -3.72384 
 H                     3.42136   0.89972  -2.70874 
 H                     3.19606   1.68999  -4.26154 
 C                     0.41862  -1.19233  -2.05123 
 H                     0.34289  -2.21204  -1.6747 
 C                     0.86114   0.52515  -5.03585 
 H                     1.13409   1.44183  -5.56707 
 H                     1.19635  -0.31423  -5.65012 
 H                    -0.23046   0.47078  -4.98463 
 C                     2.1172   -2.03938  -3.64344 
 H                     1.96214  -2.96891  -3.08699 
 H                     1.78671  -2.23169  -4.67669 
 C                     3.83672  -0.36931  -4.39531 
 H                     3.55013  -0.47059  -5.45252 
 H                     4.90385  -0.1202   -4.38249 
 C                    -1.32988   6.98472  -1.20914 
 H                    -0.82776   6.80512  -2.16918 
 H                    -1.82697   7.95983  -1.31524 
 C                     3.61635  -1.70656  -3.68871 
 H                     3.99607  -1.63689  -2.66188 
 C                    -3.5705    6.16635  -2.00689 
 H                    -3.20148   6.19454  -3.0363 
 H                    -4.0423    7.13513  -1.80677 
 H                    -4.35538   5.40637  -1.95411 
 C                    -0.27903   7.10926  -0.09477 
 H                    -0.79681   7.22974   0.86659 
 H                     0.30076   6.18269  -0.0195 
 C                     0.67435   8.29324  -0.32601 
 H                     0.07858   9.21455  -0.39981 
 H                     1.15856   8.16784  -1.30549 
 C                     1.77724   8.51261   0.7357 
 H                     2.34403   9.39493   0.40316 
 C                     2.77074   7.34125   0.81095 
 H                     2.29573   6.43203   1.1971 
 H                     3.60622   7.58118   1.47854 
 H                     3.18818   7.10803  -0.17573 
 C                     1.20507   8.84095   2.12479 
 H                     0.67472   7.98428   2.55633 
 H                     2.00572   9.11394   2.82168 
 H                     0.502     9.68098   2.07853 
 
 NAtoms=     75 NQM=        0 NQMF=       0 NMMI=     75 NMMIF=      0
                NMic=       0 NMicF=      0.
                    Isotopes and Nuclear Properties:
 (Nuclear quadrupole moments (NQMom) in fm**2, nuclear magnetic moments (NMagM)
  in nuclear magnetons)

  Atom         1           2           3           4           5           6           7           8           9          10
 IAtWgt=          16           1          16           1          12          12           1          12           1          12
 AtmWgt=  15.9949146   1.0078250  15.9949146   1.0078250  12.0000000  12.0000000   1.0078250  12.0000000   1.0078250  12.0000000
 NucSpn=           0           1           0           1           0           0           1           0           1           0
 AtZEff=   0.0000000   0.0000000   0.0000000   0.0000000   0.0000000   0.0000000   0.0000000   0.0000000   0.0000000   0.0000000
 NQMom=    0.0000000   0.0000000   0.0000000   0.0000000   0.0000000   0.0000000   0.0000000   0.0000000   0.0000000   0.0000000
 NMagM=    0.0000000   2.7928460   0.0000000   2.7928460   0.0000000   0.0000000   2.7928460   0.0000000   2.7928460   0.0000000

  Atom        11          12          13          14          15          16          17          18          19          20
 IAtWgt=           1          12           1          12           1           1          12          12           1           1
 AtmWgt=   1.0078250  12.0000000   1.0078250  12.0000000   1.0078250   1.0078250  12.0000000  12.0000000   1.0078250   1.0078250
 NucSpn=           1           0           1           0           1           1           0           0           1           1
 AtZEff=   0.0000000   0.0000000   0.0000000   0.0000000   0.0000000   0.0000000   0.0000000   0.0000000   0.0000000   0.0000000
 NQMom=    0.0000000   0.0000000   0.0000000   0.0000000   0.0000000   0.0000000   0.0000000   0.0000000   0.0000000   0.0000000
 NMagM=    2.7928460   0.0000000   2.7928460   0.0000000   2.7928460   2.7928460   0.0000000   0.0000000   2.7928460   2.7928460

  Atom        21          22          23          24          25          26          27          28          29          30
 IAtWgt=          12           1           1          12           1           1          12           1          12           1
 AtmWgt=  12.0000000   1.0078250   1.0078250  12.0000000   1.0078250   1.0078250  12.0000000   1.0078250  12.0000000   1.0078250
 NucSpn=           0           1           1           0           1           1           0           1           0           1
 AtZEff=   0.0000000   0.0000000   0.0000000   0.0000000   0.0000000   0.0000000   0.0000000   0.0000000   0.0000000   0.0000000
 NQMom=    0.0000000   0.0000000   0.0000000   0.0000000   0.0000000   0.0000000   0.0000000   0.0000000   0.0000000   0.0000000
 NMagM=    0.0000000   2.7928460   2.7928460   0.0000000   2.7928460   2.7928460   0.0000000   2.7928460   0.0000000   2.7928460

  Atom        31          32          33          34          35          36          37          38          39          40
 IAtWgt=          12           1           1           1          12          12           1           1          12           1
 AtmWgt=  12.0000000   1.0078250   1.0078250   1.0078250  12.0000000  12.0000000   1.0078250   1.0078250  12.0000000   1.0078250
 NucSpn=           0           1           1           1           0           0           1           1           0           1
 AtZEff=   0.0000000   0.0000000   0.0000000   0.0000000   0.0000000   0.0000000   0.0000000   0.0000000   0.0000000   0.0000000
 NQMom=    0.0000000   0.0000000   0.0000000   0.0000000   0.0000000   0.0000000   0.0000000   0.0000000   0.0000000   0.0000000
 NMagM=    0.0000000   2.7928460   2.7928460   2.7928460   0.0000000   0.0000000   2.7928460   2.7928460   0.0000000   2.7928460

  Atom        41          42          43          44          45          46          47          48          49          50
 IAtWgt=          12           1           1           1          12           1           1          12           1           1
 AtmWgt=  12.0000000   1.0078250   1.0078250   1.0078250  12.0000000   1.0078250   1.0078250  12.0000000   1.0078250   1.0078250
 NucSpn=           0           1           1           1           0           1           1           0           1           1
 AtZEff=   0.0000000   0.0000000   0.0000000   0.0000000   0.0000000   0.0000000   0.0000000   0.0000000   0.0000000   0.0000000
 NQMom=    0.0000000   0.0000000   0.0000000   0.0000000   0.0000000   0.0000000   0.0000000   0.0000000   0.0000000   0.0000000
 NMagM=    0.0000000   2.7928460   2.7928460   2.7928460   0.0000000   2.7928460   2.7928460   0.0000000   2.7928460   2.7928460

  Atom        51          52          53          54          55          56          57          58          59          60
 IAtWgt=          12           1           1          12           1          12           1           1           1          12
 AtmWgt=  12.0000000   1.0078250   1.0078250  12.0000000   1.0078250  12.0000000   1.0078250   1.0078250   1.0078250  12.0000000
 NucSpn=           0           1           1           0           1           0           1           1           1           0
 AtZEff=   0.0000000   0.0000000   0.0000000   0.0000000   0.0000000   0.0000000   0.0000000   0.0000000   0.0000000   0.0000000
 NQMom=    0.0000000   0.0000000   0.0000000   0.0000000   0.0000000   0.0000000   0.0000000   0.0000000   0.0000000   0.0000000
 NMagM=    0.0000000   2.7928460   2.7928460   0.0000000   2.7928460   0.0000000   2.7928460   2.7928460   2.7928460   0.0000000

  Atom        61          62          63          64          65          66          67          68          69          70
 IAtWgt=           1           1          12           1           1          12           1          12           1           1
 AtmWgt=   1.0078250   1.0078250  12.0000000   1.0078250   1.0078250  12.0000000   1.0078250  12.0000000   1.0078250   1.0078250
 NucSpn=           1           1           0           1           1           0           1           0           1           1
 AtZEff=   0.0000000   0.0000000   0.0000000   0.0000000   0.0000000   0.0000000   0.0000000   0.0000000   0.0000000   0.0000000
 NQMom=    0.0000000   0.0000000   0.0000000   0.0000000   0.0000000   0.0000000   0.0000000   0.0000000   0.0000000   0.0000000
 NMagM=    2.7928460   2.7928460   0.0000000   2.7928460   2.7928460   0.0000000   2.7928460   0.0000000   2.7928460   2.7928460

  Atom        71          72          73          74          75
 IAtWgt=           1          12           1           1           1
 AtmWgt=   1.0078250  12.0000000   1.0078250   1.0078250   1.0078250
 NucSpn=           1           0           1           1           1
 AtZEff=   0.0000000   0.0000000   0.0000000   0.0000000   0.0000000
 NQMom=    0.0000000   0.0000000   0.0000000   0.0000000   0.0000000
 NMagM=    2.7928460   0.0000000   2.7928460   2.7928460   2.7928460
 Leave Link  101 at Thu May 18 13:31:40 2017, MaxMem=   33554432 cpu:       8.1
 (Enter /scratch/michal/g09/l202.exe)
 Symmetry turned off by external request.
 Stoichiometry    C27H46O2
 Framework group  C1[X(C27H46O2)]
 Deg. of freedom   219
 Full point group                 C1      NOp   1
                          Input orientation:                          
 ---------------------------------------------------------------------
 Center     Atomic      Atomic             Coordinates (Angstroms)
 Number     Number       Type             X           Y           Z
 ---------------------------------------------------------------------
      1          8           0        0.000000    0.000000    0.000000
      2          1           0        0.966526    0.000000    0.000000
      3          8           0        4.377984   -2.767576   -4.270527
      4          1           0        4.106852   -2.874346   -5.193165
      5          6           0       -1.251482    3.648667   -2.010009
      6          6           0       -1.156141    2.264352   -1.305654
      7          1           0       -0.467837    2.409432   -0.461545
      8          6           0       -0.539224    1.145138   -2.152996
      9          1           0       -1.194590    0.935817   -3.010577
     10          6           0        0.860596    1.564651   -2.672028
     11          1           0        1.511422    1.605351   -1.782684
     12          6           0       -1.919303    4.463723   -0.848479
     13          1           0       -1.141825    4.516914   -0.074448
     14          6           0        0.186826    4.053061   -2.386436
     15          1           0        0.772665    4.184569   -1.465972
     16          1           0        0.208279    5.014262   -2.913598
     17          6           0        1.493797    0.484717   -3.618061
     18          6           0       -2.549348    2.049417   -0.689662
     19          1           0       -2.512983    1.371872    0.168014
     20          1           0       -3.237707    1.607087   -1.421232
     21          6           0        0.862322    2.989770   -3.276527
     22          1           0        0.359167    2.982420   -4.248765
     23          1           0        1.893912    3.303590   -3.473487
     24          6           0       -3.003748    3.484346   -0.295439
     25          1           0       -3.990850    3.707592   -0.712899
     26          1           0       -3.097500    3.598076    0.790053
     27          6           0       -0.448978   -0.178379   -1.364247
     28          1           0       -1.461114   -0.582814   -1.248414
     29          6           0       -2.435877    5.924789   -0.990613
     30          1           0       -2.868921    6.141156    0.000000
     31          6           0       -2.139143    3.597425   -3.275338
     32          1           0       -1.844779    2.790059   -3.951008
     33          1           0       -3.194074    3.444528   -3.033801
     34          1           0       -2.063229    4.530742   -3.841076
     35          6           0        1.287928   -0.921273   -3.038772
     36          6           0        3.027545    0.750833   -3.723837
     37          1           0        3.421364    0.899716   -2.708738
     38          1           0        3.196061    1.689989   -4.261540
     39          6           0        0.418625   -1.192333   -2.051232
     40          1           0        0.342892   -2.212043   -1.674701
     41          6           0        0.861145    0.525149   -5.035846
     42          1           0        1.134086    1.441834   -5.567073
     43          1           0        1.196346   -0.314231   -5.650116
     44          1           0       -0.230456    0.470780   -4.984628
     45          6           0        2.117204   -2.039381   -3.643441
     46          1           0        1.962141   -2.968911   -3.086988
     47          1           0        1.786710   -2.231686   -4.676686
     48          6           0        3.836722   -0.369311   -4.395311
     49          1           0        3.550126   -0.470590   -5.452521
     50          1           0        4.903850   -0.120196   -4.382490
     51          6           0       -1.329878    6.984719   -1.209136
     52          1           0       -0.827765    6.805122   -2.169180
     53          1           0       -1.826972    7.959828   -1.315239
     54          6           0        3.616346   -1.706556   -3.688713
     55          1           0        3.996067   -1.636888   -2.661876
     56          6           0       -3.570501    6.166346   -2.006887
     57          1           0       -3.201477    6.194545   -3.036302
     58          1           0       -4.042300    7.135130   -1.806769
     59          1           0       -4.355375    5.406371   -1.954106
     60          6           0       -0.279028    7.109257   -0.094771
     61          1           0       -0.796810    7.229743    0.866592
     62          1           0        0.300760    6.182692   -0.019503
     63          6           0        0.674347    8.293236   -0.326013
     64          1           0        0.078580    9.214546   -0.399814
     65          1           0        1.158561    8.167843   -1.305490
     66          6           0        1.777242    8.512613    0.735701
     67          1           0        2.344030    9.394926    0.403162
     68          6           0        2.770739    7.341251    0.810954
     69          1           0        2.295734    6.432026    1.197101
     70          1           0        3.606222    7.581180    1.478537
     71          1           0        3.188177    7.108033   -0.175732
     72          6           0        1.205075    8.840950    2.124789
     73          1           0        0.674719    7.984278    2.556333
     74          1           0        2.005725    9.113938    2.821683
     75          1           0        0.501996    9.680977    2.078534
 ---------------------------------------------------------------------
 Rotational constants (GHZ):      0.2487445      0.0779396      0.0684560
 Leave Link  202 at Thu May 18 13:31:40 2017, MaxMem=   33554432 cpu:       0.1
 (Enter /scratch/michal/g09/l301.exe)
 Standard basis: 6-31G(d) (6D, 7F)
 Ernie: Thresh=  0.10000D-02 Tol=  0.10000D-05 Strict=F.
 AO basis set in the form of general basis input (Overlap normalization):
      1 0
 S   6 1.00       0.000000000000
      0.5484671660D+04  0.1831074430D-02
      0.8252349460D+03  0.1395017220D-01
      0.1880469580D+03  0.6844507810D-01
      0.5296450000D+02  0.2327143360D+00
      0.1689757040D+02  0.4701928980D+00
      0.5799635340D+01  0.3585208530D+00
 SP   3 1.00       0.000000000000
      0.1553961625D+02 -0.1107775495D+00  0.7087426823D-01
      0.3599933586D+01 -0.1480262627D+00  0.3397528391D+00
      0.1013761750D+01  0.1130767015D+01  0.7271585773D+00
 SP   1 1.00       0.000000000000
      0.2700058226D+00  0.1000000000D+01  0.1000000000D+01
 D   1 1.00       0.000000000000
      0.8000000000D+00  0.1000000000D+01
 ****
      2 0
 S   3 1.00       0.000000000000
      0.1873113696D+02  0.3349460434D-01
      0.2825394365D+01  0.2347269535D+00
      0.6401216923D+00  0.8137573261D+00
 S   1 1.00       0.000000000000
      0.1612777588D+00  0.1000000000D+01
 ****
      3 0
 S   6 1.00       0.000000000000
      0.5484671660D+04  0.1831074430D-02
      0.8252349460D+03  0.1395017220D-01
      0.1880469580D+03  0.6844507810D-01
      0.5296450000D+02  0.2327143360D+00
      0.1689757040D+02  0.4701928980D+00
      0.5799635340D+01  0.3585208530D+00
 SP   3 1.00       0.000000000000
      0.1553961625D+02 -0.1107775495D+00  0.7087426823D-01
      0.3599933586D+01 -0.1480262627D+00  0.3397528391D+00
      0.1013761750D+01  0.1130767015D+01  0.7271585773D+00
 SP   1 1.00       0.000000000000
      0.2700058226D+00  0.1000000000D+01  0.1000000000D+01
 D   1 1.00       0.000000000000
      0.8000000000D+00  0.1000000000D+01
 ****
      4 0
 S   3 1.00       0.000000000000
      0.1873113696D+02  0.3349460434D-01
      0.2825394365D+01  0.2347269535D+00
      0.6401216923D+00  0.8137573261D+00
 S   1 1.00       0.000000000000
      0.1612777588D+00  0.1000000000D+01
 ****
      5 0
 S   6 1.00       0.000000000000
      0.3047524880D+04  0.1834737132D-02
      0.4573695180D+03  0.1403732281D-01
      0.1039486850D+03  0.6884262226D-01
      0.2921015530D+02  0.2321844432D+00
      0.9286662960D+01  0.4679413484D+00
      0.3163926960D+01  0.3623119853D+00
 SP   3 1.00       0.000000000000
      0.7868272350D+01 -0.1193324198D+00  0.6899906659D-01
      0.1881288540D+01 -0.1608541517D+00  0.3164239610D+00
      0.5442492580D+00  0.1143456438D+01  0.7443082909D+00
 SP   1 1.00       0.000000000000
      0.1687144782D+00  0.1000000000D+01  0.1000000000D+01
 D   1 1.00       0.000000000000
      0.8000000000D+00  0.1000000000D+01
 ****
      6 0
 S   6 1.00       0.000000000000
      0.3047524880D+04  0.1834737132D-02
      0.4573695180D+03  0.1403732281D-01
      0.1039486850D+03  0.6884262226D-01
      0.2921015530D+02  0.2321844432D+00
      0.9286662960D+01  0.4679413484D+00
      0.3163926960D+01  0.3623119853D+00
 SP   3 1.00       0.000000000000
      0.7868272350D+01 -0.1193324198D+00  0.6899906659D-01
      0.1881288540D+01 -0.1608541517D+00  0.3164239610D+00
      0.5442492580D+00  0.1143456438D+01  0.7443082909D+00
 SP   1 1.00       0.000000000000
      0.1687144782D+00  0.1000000000D+01  0.1000000000D+01
 D   1 1.00       0.000000000000
      0.8000000000D+00  0.1000000000D+01
 ****
      7 0
 S   3 1.00       0.000000000000
      0.1873113696D+02  0.3349460434D-01
      0.2825394365D+01  0.2347269535D+00
      0.6401216923D+00  0.8137573261D+00
 S   1 1.00       0.000000000000
      0.1612777588D+00  0.1000000000D+01
 ****
      8 0
 S   6 1.00       0.000000000000
      0.3047524880D+04  0.1834737132D-02
      0.4573695180D+03  0.1403732281D-01
      0.1039486850D+03  0.6884262226D-01
      0.2921015530D+02  0.2321844432D+00
      0.9286662960D+01  0.4679413484D+00
      0.3163926960D+01  0.3623119853D+00
 SP   3 1.00       0.000000000000
      0.7868272350D+01 -0.1193324198D+00  0.6899906659D-01
      0.1881288540D+01 -0.1608541517D+00  0.3164239610D+00
      0.5442492580D+00  0.1143456438D+01  0.7443082909D+00
 SP   1 1.00       0.000000000000
      0.1687144782D+00  0.1000000000D+01  0.1000000000D+01
 D   1 1.00       0.000000000000
      0.8000000000D+00  0.1000000000D+01
 ****
      9 0
 S   3 1.00       0.000000000000
      0.1873113696D+02  0.3349460434D-01
      0.2825394365D+01  0.2347269535D+00
      0.6401216923D+00  0.8137573261D+00
 S   1 1.00       0.000000000000
      0.1612777588D+00  0.1000000000D+01
 ****
     10 0
 S   6 1.00       0.000000000000
      0.3047524880D+04  0.1834737132D-02
      0.4573695180D+03  0.1403732281D-01
      0.1039486850D+03  0.6884262226D-01
      0.2921015530D+02  0.2321844432D+00
      0.9286662960D+01  0.4679413484D+00
      0.3163926960D+01  0.3623119853D+00
 SP   3 1.00       0.000000000000
      0.7868272350D+01 -0.1193324198D+00  0.6899906659D-01
      0.1881288540D+01 -0.1608541517D+00  0.3164239610D+00
      0.5442492580D+00  0.1143456438D+01  0.7443082909D+00
 SP   1 1.00       0.000000000000
      0.1687144782D+00  0.1000000000D+01  0.1000000000D+01
 D   1 1.00       0.000000000000
      0.8000000000D+00  0.1000000000D+01
 ****
     11 0
 S   3 1.00       0.000000000000
      0.1873113696D+02  0.3349460434D-01
      0.2825394365D+01  0.2347269535D+00
      0.6401216923D+00  0.8137573261D+00
 S   1 1.00       0.000000000000
      0.1612777588D+00  0.1000000000D+01
 ****
     12 0
 S   6 1.00       0.000000000000
      0.3047524880D+04  0.1834737132D-02
      0.4573695180D+03  0.1403732281D-01
      0.1039486850D+03  0.6884262226D-01
      0.2921015530D+02  0.2321844432D+00
      0.9286662960D+01  0.4679413484D+00
      0.3163926960D+01  0.3623119853D+00
 SP   3 1.00       0.000000000000
      0.7868272350D+01 -0.1193324198D+00  0.6899906659D-01
      0.1881288540D+01 -0.1608541517D+00  0.3164239610D+00
      0.5442492580D+00  0.1143456438D+01  0.7443082909D+00
 SP   1 1.00       0.000000000000
      0.1687144782D+00  0.1000000000D+01  0.1000000000D+01
 D   1 1.00       0.000000000000
      0.8000000000D+00  0.1000000000D+01
 ****
     13 0
 S   3 1.00       0.000000000000
      0.1873113696D+02  0.3349460434D-01
      0.2825394365D+01  0.2347269535D+00
      0.6401216923D+00  0.8137573261D+00
 S   1 1.00       0.000000000000
      0.1612777588D+00  0.1000000000D+01
 ****
     14 0
 S   6 1.00       0.000000000000
      0.3047524880D+04  0.1834737132D-02
      0.4573695180D+03  0.1403732281D-01
      0.1039486850D+03  0.6884262226D-01
      0.2921015530D+02  0.2321844432D+00
      0.9286662960D+01  0.4679413484D+00
      0.3163926960D+01  0.3623119853D+00
 SP   3 1.00       0.000000000000
      0.7868272350D+01 -0.1193324198D+00  0.6899906659D-01
      0.1881288540D+01 -0.1608541517D+00  0.3164239610D+00
      0.5442492580D+00  0.1143456438D+01  0.7443082909D+00
 SP   1 1.00       0.000000000000
      0.1687144782D+00  0.1000000000D+01  0.1000000000D+01
 D   1 1.00       0.000000000000
      0.8000000000D+00  0.1000000000D+01
 ****
     15 0
 S   3 1.00       0.000000000000
      0.1873113696D+02  0.3349460434D-01
      0.2825394365D+01  0.2347269535D+00
      0.6401216923D+00  0.8137573261D+00
 S   1 1.00       0.000000000000
      0.1612777588D+00  0.1000000000D+01
 ****
     16 0
 S   3 1.00       0.000000000000
      0.1873113696D+02  0.3349460434D-01
      0.2825394365D+01  0.2347269535D+00
      0.6401216923D+00  0.8137573261D+00
 S   1 1.00       0.000000000000
      0.1612777588D+00  0.1000000000D+01
 ****
     17 0
 S   6 1.00       0.000000000000
      0.3047524880D+04  0.1834737132D-02
      0.4573695180D+03  0.1403732281D-01
      0.1039486850D+03  0.6884262226D-01
      0.2921015530D+02  0.2321844432D+00
      0.9286662960D+01  0.4679413484D+00
      0.3163926960D+01  0.3623119853D+00
 SP   3 1.00       0.000000000000
      0.7868272350D+01 -0.1193324198D+00  0.6899906659D-01
      0.1881288540D+01 -0.1608541517D+00  0.3164239610D+00
      0.5442492580D+00  0.1143456438D+01  0.7443082909D+00
 SP   1 1.00       0.000000000000
      0.1687144782D+00  0.1000000000D+01  0.1000000000D+01
 D   1 1.00       0.000000000000
      0.8000000000D+00  0.1000000000D+01
 ****
     18 0
 S   6 1.00       0.000000000000
      0.3047524880D+04  0.1834737132D-02
      0.4573695180D+03  0.1403732281D-01
      0.1039486850D+03  0.6884262226D-01
      0.2921015530D+02  0.2321844432D+00
      0.9286662960D+01  0.4679413484D+00
      0.3163926960D+01  0.3623119853D+00
 SP   3 1.00       0.000000000000
      0.7868272350D+01 -0.1193324198D+00  0.6899906659D-01
      0.1881288540D+01 -0.1608541517D+00  0.3164239610D+00
      0.5442492580D+00  0.1143456438D+01  0.7443082909D+00
 SP   1 1.00       0.000000000000
      0.1687144782D+00  0.1000000000D+01  0.1000000000D+01
 D   1 1.00       0.000000000000
      0.8000000000D+00  0.1000000000D+01
 ****
     19 0
 S   3 1.00       0.000000000000
      0.1873113696D+02  0.3349460434D-01
      0.2825394365D+01  0.2347269535D+00
      0.6401216923D+00  0.8137573261D+00
 S   1 1.00       0.000000000000
      0.1612777588D+00  0.1000000000D+01
 ****
     20 0
 S   3 1.00       0.000000000000
      0.1873113696D+02  0.3349460434D-01
      0.2825394365D+01  0.2347269535D+00
      0.6401216923D+00  0.8137573261D+00
 S   1 1.00       0.000000000000
      0.1612777588D+00  0.1000000000D+01
 ****
     21 0
 S   6 1.00       0.000000000000
      0.3047524880D+04  0.1834737132D-02
      0.4573695180D+03  0.1403732281D-01
      0.1039486850D+03  0.6884262226D-01
      0.2921015530D+02  0.2321844432D+00
      0.9286662960D+01  0.4679413484D+00
      0.3163926960D+01  0.3623119853D+00
 SP   3 1.00       0.000000000000
      0.7868272350D+01 -0.1193324198D+00  0.6899906659D-01
      0.1881288540D+01 -0.1608541517D+00  0.3164239610D+00
      0.5442492580D+00  0.1143456438D+01  0.7443082909D+00
 SP   1 1.00       0.000000000000
      0.1687144782D+00  0.1000000000D+01  0.1000000000D+01
 D   1 1.00       0.000000000000
      0.8000000000D+00  0.1000000000D+01
 ****
     22 0
 S   3 1.00       0.000000000000
      0.1873113696D+02  0.3349460434D-01
      0.2825394365D+01  0.2347269535D+00
      0.6401216923D+00  0.8137573261D+00
 S   1 1.00       0.000000000000
      0.1612777588D+00  0.1000000000D+01
 ****
     23 0
 S   3 1.00       0.000000000000
      0.1873113696D+02  0.3349460434D-01
      0.2825394365D+01  0.2347269535D+00
      0.6401216923D+00  0.8137573261D+00
 S   1 1.00       0.000000000000
      0.1612777588D+00  0.1000000000D+01
 ****
     24 0
 S   6 1.00       0.000000000000
      0.3047524880D+04  0.1834737132D-02
      0.4573695180D+03  0.1403732281D-01
      0.1039486850D+03  0.6884262226D-01
      0.2921015530D+02  0.2321844432D+00
      0.9286662960D+01  0.4679413484D+00
      0.3163926960D+01  0.3623119853D+00
 SP   3 1.00       0.000000000000
      0.7868272350D+01 -0.1193324198D+00  0.6899906659D-01
      0.1881288540D+01 -0.1608541517D+00  0.3164239610D+00
      0.5442492580D+00  0.1143456438D+01  0.7443082909D+00
 SP   1 1.00       0.000000000000
      0.1687144782D+00  0.1000000000D+01  0.1000000000D+01
 D   1 1.00       0.000000000000
      0.8000000000D+00  0.1000000000D+01
 ****
     25 0
 S   3 1.00       0.000000000000
      0.1873113696D+02  0.3349460434D-01
      0.2825394365D+01  0.2347269535D+00
      0.6401216923D+00  0.8137573261D+00
 S   1 1.00       0.000000000000
      0.1612777588D+00  0.1000000000D+01
 ****
     26 0
 S   3 1.00       0.000000000000
      0.1873113696D+02  0.3349460434D-01
      0.2825394365D+01  0.2347269535D+00
      0.6401216923D+00  0.8137573261D+00
 S   1 1.00       0.000000000000
      0.1612777588D+00  0.1000000000D+01
 ****
     27 0
 S   6 1.00       0.000000000000
      0.3047524880D+04  0.1834737132D-02
      0.4573695180D+03  0.1403732281D-01
      0.1039486850D+03  0.6884262226D-01
      0.2921015530D+02  0.2321844432D+00
      0.9286662960D+01  0.4679413484D+00
      0.3163926960D+01  0.3623119853D+00
 SP   3 1.00       0.000000000000
      0.7868272350D+01 -0.1193324198D+00  0.6899906659D-01
      0.1881288540D+01 -0.1608541517D+00  0.3164239610D+00
      0.5442492580D+00  0.1143456438D+01  0.7443082909D+00
 SP   1 1.00       0.000000000000
      0.1687144782D+00  0.1000000000D+01  0.1000000000D+01
 D   1 1.00       0.000000000000
      0.8000000000D+00  0.1000000000D+01
 ****
     28 0
 S   3 1.00       0.000000000000
      0.1873113696D+02  0.3349460434D-01
      0.2825394365D+01  0.2347269535D+00
      0.6401216923D+00  0.8137573261D+00
 S   1 1.00       0.000000000000
      0.1612777588D+00  0.1000000000D+01
 ****
     29 0
 S   6 1.00       0.000000000000
      0.3047524880D+04  0.1834737132D-02
      0.4573695180D+03  0.1403732281D-01
      0.1039486850D+03  0.6884262226D-01
      0.2921015530D+02  0.2321844432D+00
      0.9286662960D+01  0.4679413484D+00
      0.3163926960D+01  0.3623119853D+00
 SP   3 1.00       0.000000000000
      0.7868272350D+01 -0.1193324198D+00  0.6899906659D-01
      0.1881288540D+01 -0.1608541517D+00  0.3164239610D+00
      0.5442492580D+00  0.1143456438D+01  0.7443082909D+00
 SP   1 1.00       0.000000000000
      0.1687144782D+00  0.1000000000D+01  0.1000000000D+01
 D   1 1.00       0.000000000000
      0.8000000000D+00  0.1000000000D+01
 ****
     30 0
 S   3 1.00       0.000000000000
      0.1873113696D+02  0.3349460434D-01
      0.2825394365D+01  0.2347269535D+00
      0.6401216923D+00  0.8137573261D+00
 S   1 1.00       0.000000000000
      0.1612777588D+00  0.1000000000D+01
 ****
     31 0
 S   6 1.00       0.000000000000
      0.3047524880D+04  0.1834737132D-02
      0.4573695180D+03  0.1403732281D-01
      0.1039486850D+03  0.6884262226D-01
      0.2921015530D+02  0.2321844432D+00
      0.9286662960D+01  0.4679413484D+00
      0.3163926960D+01  0.3623119853D+00
 SP   3 1.00       0.000000000000
      0.7868272350D+01 -0.1193324198D+00  0.6899906659D-01
      0.1881288540D+01 -0.1608541517D+00  0.3164239610D+00
      0.5442492580D+00  0.1143456438D+01  0.7443082909D+00
 SP   1 1.00       0.000000000000
      0.1687144782D+00  0.1000000000D+01  0.1000000000D+01
 D   1 1.00       0.000000000000
      0.8000000000D+00  0.1000000000D+01
 ****
     32 0
 S   3 1.00       0.000000000000
      0.1873113696D+02  0.3349460434D-01
      0.2825394365D+01  0.2347269535D+00
      0.6401216923D+00  0.8137573261D+00
 S   1 1.00       0.000000000000
      0.1612777588D+00  0.1000000000D+01
 ****
     33 0
 S   3 1.00       0.000000000000
      0.1873113696D+02  0.3349460434D-01
      0.2825394365D+01  0.2347269535D+00
      0.6401216923D+00  0.8137573261D+00
 S   1 1.00       0.000000000000
      0.1612777588D+00  0.1000000000D+01
 ****
     34 0
 S   3 1.00       0.000000000000
      0.1873113696D+02  0.3349460434D-01
      0.2825394365D+01  0.2347269535D+00
      0.6401216923D+00  0.8137573261D+00
 S   1 1.00       0.000000000000
      0.1612777588D+00  0.1000000000D+01
 ****
     35 0
 S   6 1.00       0.000000000000
      0.3047524880D+04  0.1834737132D-02
      0.4573695180D+03  0.1403732281D-01
      0.1039486850D+03  0.6884262226D-01
      0.2921015530D+02  0.2321844432D+00
      0.9286662960D+01  0.4679413484D+00
      0.3163926960D+01  0.3623119853D+00
 SP   3 1.00       0.000000000000
      0.7868272350D+01 -0.1193324198D+00  0.6899906659D-01
      0.1881288540D+01 -0.1608541517D+00  0.3164239610D+00
      0.5442492580D+00  0.1143456438D+01  0.7443082909D+00
 SP   1 1.00       0.000000000000
      0.1687144782D+00  0.1000000000D+01  0.1000000000D+01
 D   1 1.00       0.000000000000
      0.8000000000D+00  0.1000000000D+01
 ****
     36 0
 S   6 1.00       0.000000000000
      0.3047524880D+04  0.1834737132D-02
      0.4573695180D+03  0.1403732281D-01
      0.1039486850D+03  0.6884262226D-01
      0.2921015530D+02  0.2321844432D+00
      0.9286662960D+01  0.4679413484D+00
      0.3163926960D+01  0.3623119853D+00
 SP   3 1.00       0.000000000000
      0.7868272350D+01 -0.1193324198D+00  0.6899906659D-01
      0.1881288540D+01 -0.1608541517D+00  0.3164239610D+00
      0.5442492580D+00  0.1143456438D+01  0.7443082909D+00
 SP   1 1.00       0.000000000000
      0.1687144782D+00  0.1000000000D+01  0.1000000000D+01
 D   1 1.00       0.000000000000
      0.8000000000D+00  0.1000000000D+01
 ****
     37 0
 S   3 1.00       0.000000000000
      0.1873113696D+02  0.3349460434D-01
      0.2825394365D+01  0.2347269535D+00
      0.6401216923D+00  0.8137573261D+00
 S   1 1.00       0.000000000000
      0.1612777588D+00  0.1000000000D+01
 ****
     38 0
 S   3 1.00       0.000000000000
      0.1873113696D+02  0.3349460434D-01
      0.2825394365D+01  0.2347269535D+00
      0.6401216923D+00  0.8137573261D+00
 S   1 1.00       0.000000000000
      0.1612777588D+00  0.1000000000D+01
 ****
     39 0
 S   6 1.00       0.000000000000
      0.3047524880D+04  0.1834737132D-02
      0.4573695180D+03  0.1403732281D-01
      0.1039486850D+03  0.6884262226D-01
      0.2921015530D+02  0.2321844432D+00
      0.9286662960D+01  0.4679413484D+00
      0.3163926960D+01  0.3623119853D+00
 SP   3 1.00       0.000000000000
      0.7868272350D+01 -0.1193324198D+00  0.6899906659D-01
      0.1881288540D+01 -0.1608541517D+00  0.3164239610D+00
      0.5442492580D+00  0.1143456438D+01  0.7443082909D+00
 SP   1 1.00       0.000000000000
      0.1687144782D+00  0.1000000000D+01  0.1000000000D+01
 D   1 1.00       0.000000000000
      0.8000000000D+00  0.1000000000D+01
 ****
     40 0
 S   3 1.00       0.000000000000
      0.1873113696D+02  0.3349460434D-01
      0.2825394365D+01  0.2347269535D+00
      0.6401216923D+00  0.8137573261D+00
 S   1 1.00       0.000000000000
      0.1612777588D+00  0.1000000000D+01
 ****
     41 0
 S   6 1.00       0.000000000000
      0.3047524880D+04  0.1834737132D-02
      0.4573695180D+03  0.1403732281D-01
      0.1039486850D+03  0.6884262226D-01
      0.2921015530D+02  0.2321844432D+00
      0.9286662960D+01  0.4679413484D+00
      0.3163926960D+01  0.3623119853D+00
 SP   3 1.00       0.000000000000
      0.7868272350D+01 -0.1193324198D+00  0.6899906659D-01
      0.1881288540D+01 -0.1608541517D+00  0.3164239610D+00
      0.5442492580D+00  0.1143456438D+01  0.7443082909D+00
 SP   1 1.00       0.000000000000
      0.1687144782D+00  0.1000000000D+01  0.1000000000D+01
 D   1 1.00       0.000000000000
      0.8000000000D+00  0.1000000000D+01
 ****
     42 0
 S   3 1.00       0.000000000000
      0.1873113696D+02  0.3349460434D-01
      0.2825394365D+01  0.2347269535D+00
      0.6401216923D+00  0.8137573261D+00
 S   1 1.00       0.000000000000
      0.1612777588D+00  0.1000000000D+01
 ****
     43 0
 S   3 1.00       0.000000000000
      0.1873113696D+02  0.3349460434D-01
      0.2825394365D+01  0.2347269535D+00
      0.6401216923D+00  0.8137573261D+00
 S   1 1.00       0.000000000000
      0.1612777588D+00  0.1000000000D+01
 ****
     44 0
 S   3 1.00       0.000000000000
      0.1873113696D+02  0.3349460434D-01
      0.2825394365D+01  0.2347269535D+00
      0.6401216923D+00  0.8137573261D+00
 S   1 1.00       0.000000000000
      0.1612777588D+00  0.1000000000D+01
 ****
     45 0
 S   6 1.00       0.000000000000
      0.3047524880D+04  0.1834737132D-02
      0.4573695180D+03  0.1403732281D-01
      0.1039486850D+03  0.6884262226D-01
      0.2921015530D+02  0.2321844432D+00
      0.9286662960D+01  0.4679413484D+00
      0.3163926960D+01  0.3623119853D+00
 SP   3 1.00       0.000000000000
      0.7868272350D+01 -0.1193324198D+00  0.6899906659D-01
      0.1881288540D+01 -0.1608541517D+00  0.3164239610D+00
      0.5442492580D+00  0.1143456438D+01  0.7443082909D+00
 SP   1 1.00       0.000000000000
      0.1687144782D+00  0.1000000000D+01  0.1000000000D+01
 D   1 1.00       0.000000000000
      0.8000000000D+00  0.1000000000D+01
 ****
     46 0
 S   3 1.00       0.000000000000
      0.1873113696D+02  0.3349460434D-01
      0.2825394365D+01  0.2347269535D+00
      0.6401216923D+00  0.8137573261D+00
 S   1 1.00       0.000000000000
      0.1612777588D+00  0.1000000000D+01
 ****
     47 0
 S   3 1.00       0.000000000000
      0.1873113696D+02  0.3349460434D-01
      0.2825394365D+01  0.2347269535D+00
      0.6401216923D+00  0.8137573261D+00
 S   1 1.00       0.000000000000
      0.1612777588D+00  0.1000000000D+01
 ****
     48 0
 S   6 1.00       0.000000000000
      0.3047524880D+04  0.1834737132D-02
      0.4573695180D+03  0.1403732281D-01
      0.1039486850D+03  0.6884262226D-01
      0.2921015530D+02  0.2321844432D+00
      0.9286662960D+01  0.4679413484D+00
      0.3163926960D+01  0.3623119853D+00
 SP   3 1.00       0.000000000000
      0.7868272350D+01 -0.1193324198D+00  0.6899906659D-01
      0.1881288540D+01 -0.1608541517D+00  0.3164239610D+00
      0.5442492580D+00  0.1143456438D+01  0.7443082909D+00
 SP   1 1.00       0.000000000000
      0.1687144782D+00  0.1000000000D+01  0.1000000000D+01
 D   1 1.00       0.000000000000
      0.8000000000D+00  0.1000000000D+01
 ****
     49 0
 S   3 1.00       0.000000000000
      0.1873113696D+02  0.3349460434D-01
      0.2825394365D+01  0.2347269535D+00
      0.6401216923D+00  0.8137573261D+00
 S   1 1.00       0.000000000000
      0.1612777588D+00  0.1000000000D+01
 ****
     50 0
 S   3 1.00       0.000000000000
      0.1873113696D+02  0.3349460434D-01
      0.2825394365D+01  0.2347269535D+00
      0.6401216923D+00  0.8137573261D+00
 S   1 1.00       0.000000000000
      0.1612777588D+00  0.1000000000D+01
 ****
     51 0
 S   6 1.00       0.000000000000
      0.3047524880D+04  0.1834737132D-02
      0.4573695180D+03  0.1403732281D-01
      0.1039486850D+03  0.6884262226D-01
      0.2921015530D+02  0.2321844432D+00
      0.9286662960D+01  0.4679413484D+00
      0.3163926960D+01  0.3623119853D+00
 SP   3 1.00       0.000000000000
      0.7868272350D+01 -0.1193324198D+00  0.6899906659D-01
      0.1881288540D+01 -0.1608541517D+00  0.3164239610D+00
      0.5442492580D+00  0.1143456438D+01  0.7443082909D+00
 SP   1 1.00       0.000000000000
      0.1687144782D+00  0.1000000000D+01  0.1000000000D+01
 D   1 1.00       0.000000000000
      0.8000000000D+00  0.1000000000D+01
 ****
     52 0
 S   3 1.00       0.000000000000
      0.1873113696D+02  0.3349460434D-01
      0.2825394365D+01  0.2347269535D+00
      0.6401216923D+00  0.8137573261D+00
 S   1 1.00       0.000000000000
      0.1612777588D+00  0.1000000000D+01
 ****
     53 0
 S   3 1.00       0.000000000000
      0.1873113696D+02  0.3349460434D-01
      0.2825394365D+01  0.2347269535D+00
      0.6401216923D+00  0.8137573261D+00
 S   1 1.00       0.000000000000
      0.1612777588D+00  0.1000000000D+01
 ****
     54 0
 S   6 1.00       0.000000000000
      0.3047524880D+04  0.1834737132D-02
      0.4573695180D+03  0.1403732281D-01
      0.1039486850D+03  0.6884262226D-01
      0.2921015530D+02  0.2321844432D+00
      0.9286662960D+01  0.4679413484D+00
      0.3163926960D+01  0.3623119853D+00
 SP   3 1.00       0.000000000000
      0.7868272350D+01 -0.1193324198D+00  0.6899906659D-01
      0.1881288540D+01 -0.1608541517D+00  0.3164239610D+00
      0.5442492580D+00  0.1143456438D+01  0.7443082909D+00
 SP   1 1.00       0.000000000000
      0.1687144782D+00  0.1000000000D+01  0.1000000000D+01
 D   1 1.00       0.000000000000
      0.8000000000D+00  0.1000000000D+01
 ****
     55 0
 S   3 1.00       0.000000000000
      0.1873113696D+02  0.3349460434D-01
      0.2825394365D+01  0.2347269535D+00
      0.6401216923D+00  0.8137573261D+00
 S   1 1.00       0.000000000000
      0.1612777588D+00  0.1000000000D+01
 ****
     56 0
 S   6 1.00       0.000000000000
      0.3047524880D+04  0.1834737132D-02
      0.4573695180D+03  0.1403732281D-01
      0.1039486850D+03  0.6884262226D-01
      0.2921015530D+02  0.2321844432D+00
      0.9286662960D+01  0.4679413484D+00
      0.3163926960D+01  0.3623119853D+00
 SP   3 1.00       0.000000000000
      0.7868272350D+01 -0.1193324198D+00  0.6899906659D-01
      0.1881288540D+01 -0.1608541517D+00  0.3164239610D+00
      0.5442492580D+00  0.1143456438D+01  0.7443082909D+00
 SP   1 1.00       0.000000000000
      0.1687144782D+00  0.1000000000D+01  0.1000000000D+01
 D   1 1.00       0.000000000000
      0.8000000000D+00  0.1000000000D+01
 ****
     57 0
 S   3 1.00       0.000000000000
      0.1873113696D+02  0.3349460434D-01
      0.2825394365D+01  0.2347269535D+00
      0.6401216923D+00  0.8137573261D+00
 S   1 1.00       0.000000000000
      0.1612777588D+00  0.1000000000D+01
 ****
     58 0
 S   3 1.00       0.000000000000
      0.1873113696D+02  0.3349460434D-01
      0.2825394365D+01  0.2347269535D+00
      0.6401216923D+00  0.8137573261D+00
 S   1 1.00       0.000000000000
      0.1612777588D+00  0.1000000000D+01
 ****
     59 0
 S   3 1.00       0.000000000000
      0.1873113696D+02  0.3349460434D-01
      0.2825394365D+01  0.2347269535D+00
      0.6401216923D+00  0.8137573261D+00
 S   1 1.00       0.000000000000
      0.1612777588D+00  0.1000000000D+01
 ****
     60 0
 S   6 1.00       0.000000000000
      0.3047524880D+04  0.1834737132D-02
      0.4573695180D+03  0.1403732281D-01
      0.1039486850D+03  0.6884262226D-01
      0.2921015530D+02  0.2321844432D+00
      0.9286662960D+01  0.4679413484D+00
      0.3163926960D+01  0.3623119853D+00
 SP   3 1.00       0.000000000000
      0.7868272350D+01 -0.1193324198D+00  0.6899906659D-01
      0.1881288540D+01 -0.1608541517D+00  0.3164239610D+00
      0.5442492580D+00  0.1143456438D+01  0.7443082909D+00
 SP   1 1.00       0.000000000000
      0.1687144782D+00  0.1000000000D+01  0.1000000000D+01
 D   1 1.00       0.000000000000
      0.8000000000D+00  0.1000000000D+01
 ****
     61 0
 S   3 1.00       0.000000000000
      0.1873113696D+02  0.3349460434D-01
      0.2825394365D+01  0.2347269535D+00
      0.6401216923D+00  0.8137573261D+00
 S   1 1.00       0.000000000000
      0.1612777588D+00  0.1000000000D+01
 ****
     62 0
 S   3 1.00       0.000000000000
      0.1873113696D+02  0.3349460434D-01
      0.2825394365D+01  0.2347269535D+00
      0.6401216923D+00  0.8137573261D+00
 S   1 1.00       0.000000000000
      0.1612777588D+00  0.1000000000D+01
 ****
     63 0
 S   6 1.00       0.000000000000
      0.3047524880D+04  0.1834737132D-02
      0.4573695180D+03  0.1403732281D-01
      0.1039486850D+03  0.6884262226D-01
      0.2921015530D+02  0.2321844432D+00
      0.9286662960D+01  0.4679413484D+00
      0.3163926960D+01  0.3623119853D+00
 SP   3 1.00       0.000000000000
      0.7868272350D+01 -0.1193324198D+00  0.6899906659D-01
      0.1881288540D+01 -0.1608541517D+00  0.3164239610D+00
      0.5442492580D+00  0.1143456438D+01  0.7443082909D+00
 SP   1 1.00       0.000000000000
      0.1687144782D+00  0.1000000000D+01  0.1000000000D+01
 D   1 1.00       0.000000000000
      0.8000000000D+00  0.1000000000D+01
 ****
     64 0
 S   3 1.00       0.000000000000
      0.1873113696D+02  0.3349460434D-01
      0.2825394365D+01  0.2347269535D+00
      0.6401216923D+00  0.8137573261D+00
 S   1 1.00       0.000000000000
      0.1612777588D+00  0.1000000000D+01
 ****
     65 0
 S   3 1.00       0.000000000000
      0.1873113696D+02  0.3349460434D-01
      0.2825394365D+01  0.2347269535D+00
      0.6401216923D+00  0.8137573261D+00
 S   1 1.00       0.000000000000
      0.1612777588D+00  0.1000000000D+01
 ****
     66 0
 S   6 1.00       0.000000000000
      0.3047524880D+04  0.1834737132D-02
      0.4573695180D+03  0.1403732281D-01
      0.1039486850D+03  0.6884262226D-01
      0.2921015530D+02  0.2321844432D+00
      0.9286662960D+01  0.4679413484D+00
      0.3163926960D+01  0.3623119853D+00
 SP   3 1.00       0.000000000000
      0.7868272350D+01 -0.1193324198D+00  0.6899906659D-01
      0.1881288540D+01 -0.1608541517D+00  0.3164239610D+00
      0.5442492580D+00  0.1143456438D+01  0.7443082909D+00
 SP   1 1.00       0.000000000000
      0.1687144782D+00  0.1000000000D+01  0.1000000000D+01
 D   1 1.00       0.000000000000
      0.8000000000D+00  0.1000000000D+01
 ****
     67 0
 S   3 1.00       0.000000000000
      0.1873113696D+02  0.3349460434D-01
      0.2825394365D+01  0.2347269535D+00
      0.6401216923D+00  0.8137573261D+00
 S   1 1.00       0.000000000000
      0.1612777588D+00  0.1000000000D+01
 ****
     68 0
 S   6 1.00       0.000000000000
      0.3047524880D+04  0.1834737132D-02
      0.4573695180D+03  0.1403732281D-01
      0.1039486850D+03  0.6884262226D-01
      0.2921015530D+02  0.2321844432D+00
      0.9286662960D+01  0.4679413484D+00
      0.3163926960D+01  0.3623119853D+00
 SP   3 1.00       0.000000000000
      0.7868272350D+01 -0.1193324198D+00  0.6899906659D-01
      0.1881288540D+01 -0.1608541517D+00  0.3164239610D+00
      0.5442492580D+00  0.1143456438D+01  0.7443082909D+00
 SP   1 1.00       0.000000000000
      0.1687144782D+00  0.1000000000D+01  0.1000000000D+01
 D   1 1.00       0.000000000000
      0.8000000000D+00  0.1000000000D+01
 ****
     69 0
 S   3 1.00       0.000000000000
      0.1873113696D+02  0.3349460434D-01
      0.2825394365D+01  0.2347269535D+00
      0.6401216923D+00  0.8137573261D+00
 S   1 1.00       0.000000000000
      0.1612777588D+00  0.1000000000D+01
 ****
     70 0
 S   3 1.00       0.000000000000
      0.1873113696D+02  0.3349460434D-01
      0.2825394365D+01  0.2347269535D+00
      0.6401216923D+00  0.8137573261D+00
 S   1 1.00       0.000000000000
      0.1612777588D+00  0.1000000000D+01
 ****
     71 0
 S   3 1.00       0.000000000000
      0.1873113696D+02  0.3349460434D-01
      0.2825394365D+01  0.2347269535D+00
      0.6401216923D+00  0.8137573261D+00
 S   1 1.00       0.000000000000
      0.1612777588D+00  0.1000000000D+01
 ****
     72 0
 S   6 1.00       0.000000000000
      0.3047524880D+04  0.1834737132D-02
      0.4573695180D+03  0.1403732281D-01
      0.1039486850D+03  0.6884262226D-01
      0.2921015530D+02  0.2321844432D+00
      0.9286662960D+01  0.4679413484D+00
      0.3163926960D+01  0.3623119853D+00
 SP   3 1.00       0.000000000000
      0.7868272350D+01 -0.1193324198D+00  0.6899906659D-01
      0.1881288540D+01 -0.1608541517D+00  0.3164239610D+00
      0.5442492580D+00  0.1143456438D+01  0.7443082909D+00
 SP   1 1.00       0.000000000000
      0.1687144782D+00  0.1000000000D+01  0.1000000000D+01
 D   1 1.00       0.000000000000
      0.8000000000D+00  0.1000000000D+01
 ****
     73 0
 S   3 1.00       0.000000000000
      0.1873113696D+02  0.3349460434D-01
      0.2825394365D+01  0.2347269535D+00
      0.6401216923D+00  0.8137573261D+00
 S   1 1.00       0.000000000000
      0.1612777588D+00  0.1000000000D+01
 ****
     74 0
 S   3 1.00       0.000000000000
      0.1873113696D+02  0.3349460434D-01
      0.2825394365D+01  0.2347269535D+00
      0.6401216923D+00  0.8137573261D+00
 S   1 1.00       0.000000000000
      0.1612777588D+00  0.1000000000D+01
 ****
     75 0
 S   3 1.00       0.000000000000
      0.1873113696D+02  0.3349460434D-01
      0.2825394365D+01  0.2347269535D+00
      0.6401216923D+00  0.8137573261D+00
 S   1 1.00       0.000000000000
      0.1612777588D+00  0.1000000000D+01
 ****

 AO basis set (Overlap normalization):
 Atom O1       Shell     1 S   6     bf    1 -     1          0.000000000000          0.000000000000          0.000000000000
      0.5484671660D+04  0.1831074430D-02
      0.8252349460D+03  0.1395017220D-01
      0.1880469580D+03  0.6844507810D-01
      0.5296450000D+02  0.2327143360D+00
      0.1689757040D+02  0.4701928980D+00
      0.5799635340D+01  0.3585208530D+00
 Atom O1       Shell     2 SP   3    bf    2 -     5          0.000000000000          0.000000000000          0.000000000000
      0.1553961625D+02 -0.1107775495D+00  0.7087426823D-01
      0.3599933586D+01 -0.1480262627D+00  0.3397528391D+00
      0.1013761750D+01  0.1130767015D+01  0.7271585773D+00
 Atom O1       Shell     3 SP   1    bf    6 -     9          0.000000000000          0.000000000000          0.000000000000
      0.2700058226D+00  0.1000000000D+01  0.1000000000D+01
 Atom O1       Shell     4 D   1     bf   10 -    15          0.000000000000          0.000000000000          0.000000000000
      0.8000000000D+00  0.1000000000D+01
 Atom H2       Shell     5 S   3     bf   16 -    16          1.826469931642          0.000000000000          0.000000000000
      0.1873113696D+02  0.3349460434D-01
      0.2825394365D+01  0.2347269535D+00
      0.6401216923D+00  0.8137573261D+00
 Atom H2       Shell     6 S   1     bf   17 -    17          1.826469931642          0.000000000000          0.000000000000
      0.1612777588D+00  0.1000000000D+01
 Atom O3       Shell     7 S   6     bf   18 -    18          8.273191019820         -5.229960786433         -8.070126000662
      0.5484671660D+04  0.1831074430D-02
      0.8252349460D+03  0.1395017220D-01
      0.1880469580D+03  0.6844507810D-01
      0.5296450000D+02  0.2327143360D+00
      0.1689757040D+02  0.4701928980D+00
      0.5799635340D+01  0.3585208530D+00
 Atom O3       Shell     8 SP   3    bf   19 -    22          8.273191019820         -5.229960786433         -8.070126000662
      0.1553961625D+02 -0.1107775495D+00  0.7087426823D-01
      0.3599933586D+01 -0.1480262627D+00  0.3397528391D+00
      0.1013761750D+01  0.1130767015D+01  0.7271585773D+00
 Atom O3       Shell     9 SP   1    bf   23 -    26          8.273191019820         -5.229960786433         -8.070126000662
      0.2700058226D+00  0.1000000000D+01  0.1000000000D+01
 Atom O3       Shell    10 D   1     bf   27 -    32          8.273191019820         -5.229960786433         -8.070126000662
      0.8000000000D+00  0.1000000000D+01
 Atom H4       Shell    11 S   3     bf   33 -    33          7.760825964033         -5.431726392107         -9.813658668024
      0.1873113696D+02  0.3349460434D-01
      0.2825394365D+01  0.2347269535D+00
      0.6401216923D+00  0.8137573261D+00
 Atom H4       Shell    12 S   1     bf   34 -    34          7.760825964033         -5.431726392107         -9.813658668024
      0.1612777588D+00  0.1000000000D+01
 Atom C5       Shell    13 S   6     bf   35 -    35         -2.364958844948          6.894982079296         -3.798366194485
      0.3047524880D+04  0.1834737132D-02
      0.4573695180D+03  0.1403732281D-01
      0.1039486850D+03  0.6884262226D-01
      0.2921015530D+02  0.2321844432D+00
      0.9286662960D+01  0.4679413484D+00
      0.3163926960D+01  0.3623119853D+00
 Atom C5       Shell    14 SP   3    bf   36 -    39         -2.364958844948          6.894982079296         -3.798366194485
      0.7868272350D+01 -0.1193324198D+00  0.6899906659D-01
      0.1881288540D+01 -0.1608541517D+00  0.3164239610D+00
      0.5442492580D+00  0.1143456438D+01  0.7443082909D+00
 Atom C5       Shell    15 SP   1    bf   40 -    43         -2.364958844948          6.894982079296         -3.798366194485
      0.1687144782D+00  0.1000000000D+01  0.1000000000D+01
 Atom C5       Shell    16 D   1     bf   44 -    49         -2.364958844948          6.894982079296         -3.798366194485
      0.8000000000D+00  0.1000000000D+01
 Atom C6       Shell    17 S   6     bf   50 -    50         -2.184789483055          4.279004864993         -2.467328786663
      0.3047524880D+04  0.1834737132D-02
      0.4573695180D+03  0.1403732281D-01
      0.1039486850D+03  0.6884262226D-01
      0.2921015530D+02  0.2321844432D+00
      0.9286662960D+01  0.4679413484D+00
      0.3163926960D+01  0.3623119853D+00
 Atom C6       Shell    18 SP   3    bf   51 -    54         -2.184789483055          4.279004864993         -2.467328786663
      0.7868272350D+01 -0.1193324198D+00  0.6899906659D-01
      0.1881288540D+01 -0.1608541517D+00  0.3164239610D+00
      0.5442492580D+00  0.1143456438D+01  0.7443082909D+00
 Atom C6       Shell    19 SP   1    bf   55 -    58         -2.184789483055          4.279004864993         -2.467328786663
      0.1687144782D+00  0.1000000000D+01  0.1000000000D+01
 Atom C6       Shell    20 D   1     bf   59 -    64         -2.184789483055          4.279004864993         -2.467328786663
      0.8000000000D+00  0.1000000000D+01
 Atom H7       Shell    21 S   3     bf   65 -    65         -0.884083124529          4.553166445736         -0.872193761386
      0.1873113696D+02  0.3349460434D-01
      0.2825394365D+01  0.2347269535D+00
      0.6401216923D+00  0.8137573261D+00
 Atom H7       Shell    22 S   1     bf   66 -    66         -0.884083124529          4.553166445736         -0.872193761386
      0.1612777588D+00  0.1000000000D+01
 Atom C8       Shell    23 S   6     bf   67 -    67         -1.018984739416          2.163998073634         -4.068572691815
      0.3047524880D+04  0.1834737132D-02
      0.4573695180D+03  0.1403732281D-01
      0.1039486850D+03  0.6884262226D-01
      0.2921015530D+02  0.2321844432D+00
      0.9286662960D+01  0.4679413484D+00
      0.3163926960D+01  0.3623119853D+00
 Atom C8       Shell    24 SP   3    bf   68 -    71         -1.018984739416          2.163998073634         -4.068572691815
      0.7868272350D+01 -0.1193324198D+00  0.6899906659D-01
      0.1881288540D+01 -0.1608541517D+00  0.3164239610D+00
      0.5442492580D+00  0.1143456438D+01  0.7443082909D+00
 Atom C8       Shell    25 SP   1    bf   72 -    75         -1.018984739416          2.163998073634         -4.068572691815
      0.1687144782D+00  0.1000000000D+01  0.1000000000D+01
 Atom C8       Shell    26 D   1     bf   76 -    81         -1.018984739416          2.163998073634         -4.068572691815
      0.8000000000D+00  0.1000000000D+01
 Atom H9       Shell    27 S   3     bf   82 -    82         -2.257448054467          1.768438445211         -5.689166202040
      0.1873113696D+02  0.3349460434D-01
      0.2825394365D+01  0.2347269535D+00
      0.6401216923D+00  0.8137573261D+00
 Atom H9       Shell    28 S   1     bf   83 -    83         -2.257448054467          1.768438445211         -5.689166202040
      0.1612777588D+00  0.1000000000D+01
 Atom C10      Shell    29 S   6     bf   84 -    84          1.626290788851          2.956762469361         -5.049401687423
      0.3047524880D+04  0.1834737132D-02
      0.4573695180D+03  0.1403732281D-01
      0.1039486850D+03  0.6884262226D-01
      0.2921015530D+02  0.2321844432D+00
      0.9286662960D+01  0.4679413484D+00
      0.3163926960D+01  0.3623119853D+00
 Atom C10      Shell    30 SP   3    bf   85 -    88          1.626290788851          2.956762469361         -5.049401687423
      0.7868272350D+01 -0.1193324198D+00  0.6899906659D-01
      0.1881288540D+01 -0.1608541517D+00  0.3164239610D+00
      0.5442492580D+00  0.1143456438D+01  0.7443082909D+00
 Atom C10      Shell    31 SP   1    bf   89 -    92          1.626290788851          2.956762469361         -5.049401687423
      0.1687144782D+00  0.1000000000D+01  0.1000000000D+01
 Atom C10      Shell    32 D   1     bf   93 -    98          1.626290788851          2.956762469361         -5.049401687423
      0.8000000000D+00  0.1000000000D+01
 Atom H11      Shell    33 S   3     bf   99 -    99          2.856172819739          3.033674096202         -3.368784730450
      0.1873113696D+02  0.3349460434D-01
      0.2825394365D+01  0.2347269535D+00
      0.6401216923D+00  0.8137573261D+00
 Atom H11      Shell    34 S   1     bf  100 -   100          2.856172819739          3.033674096202         -3.368784730450
      0.1612777588D+00  0.1000000000D+01
 Atom C12      Shell    35 S   6     bf  101 -   101         -3.626957735224          8.435214078652         -1.603392183614
      0.3047524880D+04  0.1834737132D-02
      0.4573695180D+03  0.1403732281D-01
      0.1039486850D+03  0.6884262226D-01
      0.2921015530D+02  0.2321844432D+00
      0.9286662960D+01  0.4679413484D+00
      0.3163926960D+01  0.3623119853D+00
 Atom C12      Shell    36 SP   3    bf  102 -   105         -3.626957735224          8.435214078652         -1.603392183614
      0.7868272350D+01 -0.1193324198D+00  0.6899906659D-01
      0.1881288540D+01 -0.1608541517D+00  0.3164239610D+00
      0.5442492580D+00  0.1143456438D+01  0.7443082909D+00
 Atom C12      Shell    37 SP   1    bf  106 -   109         -3.626957735224          8.435214078652         -1.603392183614
      0.1687144782D+00  0.1000000000D+01  0.1000000000D+01
 Atom C12      Shell    38 D   1     bf  110 -   115         -3.626957735224          8.435214078652         -1.603392183614
      0.8000000000D+00  0.1000000000D+01
 Atom H13      Shell    39 S   3     bf  116 -   116         -2.157735974764          8.535730747050         -0.140685877607
      0.1873113696D+02  0.3349460434D-01
      0.2825394365D+01  0.2347269535D+00
      0.6401216923D+00  0.8137573261D+00
 Atom H13      Shell    40 S   1     bf  117 -   117         -2.157735974764          8.535730747050         -0.140685877607
      0.1612777588D+00  0.1000000000D+01
 Atom C14      Shell    41 S   6     bf  118 -   118          0.353050541420          7.659175157599         -4.509710794913
      0.3047524880D+04  0.1834737132D-02
      0.4573695180D+03  0.1403732281D-01
      0.1039486850D+03  0.6884262226D-01
      0.2921015530D+02  0.2321844432D+00
      0.9286662960D+01  0.4679413484D+00
      0.3163926960D+01  0.3623119853D+00
 Atom C14      Shell    42 SP   3    bf  119 -   122          0.353050541420          7.659175157599         -4.509710794913
      0.7868272350D+01 -0.1193324198D+00  0.6899906659D-01
      0.1881288540D+01 -0.1608541517D+00  0.3164239610D+00
      0.5442492580D+00  0.1143456438D+01  0.7443082909D+00
 Atom C14      Shell    43 SP   1    bf  123 -   126          0.353050541420          7.659175157599         -4.509710794913
      0.1687144782D+00  0.1000000000D+01  0.1000000000D+01
 Atom C14      Shell    44 D   1     bf  127 -   132          0.353050541420          7.659175157599         -4.509710794913
      0.8000000000D+00  0.1000000000D+01
 Atom H15      Shell    45 S   3     bf  133 -   133          1.460125866076          7.907688921732         -2.770286014218
      0.1873113696D+02  0.3349460434D-01
      0.2825394365D+01  0.2347269535D+00
      0.6401216923D+00  0.8137573261D+00
 Atom H15      Shell    46 S   1     bf  134 -   134          1.460125866076          7.907688921732         -2.770286014218
      0.1612777588D+00  0.1000000000D+01
 Atom H16      Shell    47 S   3     bf  135 -   135          0.393590231437          9.475581201542         -5.505903056111
      0.1873113696D+02  0.3349460434D-01
      0.2825394365D+01  0.2347269535D+00
      0.6401216923D+00  0.8137573261D+00
 Atom H16      Shell    48 S   1     bf  136 -   136          0.393590231437          9.475581201542         -5.505903056111
      0.1612777588D+00  0.1000000000D+01
 Atom C17      Shell    49 S   6     bf  137 -   137          2.822867927325          0.915982816591         -6.837143892951
      0.3047524880D+04  0.1834737132D-02
      0.4573695180D+03  0.1403732281D-01
      0.1039486850D+03  0.6884262226D-01
      0.2921015530D+02  0.2321844432D+00
      0.9286662960D+01  0.4679413484D+00
      0.3163926960D+01  0.3623119853D+00
 Atom C17      Shell    50 SP   3    bf  138 -   141          2.822867927325          0.915982816591         -6.837143892951
      0.7868272350D+01 -0.1193324198D+00  0.6899906659D-01
      0.1881288540D+01 -0.1608541517D+00  0.3164239610D+00
      0.5442492580D+00  0.1143456438D+01  0.7443082909D+00
 Atom C17      Shell    51 SP   1    bf  142 -   145          2.822867927325          0.915982816591         -6.837143892951
      0.1687144782D+00  0.1000000000D+01  0.1000000000D+01
 Atom C17      Shell    52 D   1     bf  146 -   151          2.822867927325          0.915982816591         -6.837143892951
      0.8000000000D+00  0.1000000000D+01
 Atom C18      Shell    53 S   6     bf  152 -   152         -4.817570161029          3.872837013258         -1.303271416087
      0.3047524880D+04  0.1834737132D-02
      0.4573695180D+03  0.1403732281D-01
      0.1039486850D+03  0.6884262226D-01
      0.2921015530D+02  0.2321844432D+00
      0.9286662960D+01  0.4679413484D+00
      0.3163926960D+01  0.3623119853D+00
 Atom C18      Shell    54 SP   3    bf  153 -   156         -4.817570161029          3.872837013258         -1.303271416087
      0.7868272350D+01 -0.1193324198D+00  0.6899906659D-01
      0.1881288540D+01 -0.1608541517D+00  0.3164239610D+00
      0.5442492580D+00  0.1143456438D+01  0.7443082909D+00
 Atom C18      Shell    55 SP   1    bf  157 -   160         -4.817570161029          3.872837013258         -1.303271416087
      0.1687144782D+00  0.1000000000D+01  0.1000000000D+01
 Atom C18      Shell    56 D   1     bf  161 -   166         -4.817570161029          3.872837013258         -1.303271416087
      0.8000000000D+00  0.1000000000D+01
 Atom H19      Shell    57 S   3     bf  167 -   167         -4.748848928501          2.592461783559          0.317499501628
      0.1873113696D+02  0.3349460434D-01
      0.2825394365D+01  0.2347269535D+00
      0.6401216923D+00  0.8137573261D+00
 Atom H19      Shell    58 S   1     bf  168 -   168         -4.748848928501          2.592461783559          0.317499501628
      0.1612777588D+00  0.1000000000D+01
 Atom H20      Shell    59 S   3     bf  169 -   169         -6.118379830883          3.036954944228         -2.685738627684
      0.1873113696D+02  0.3349460434D-01
      0.2825394365D+01  0.2347269535D+00
      0.6401216923D+00  0.8137573261D+00
 Atom H20      Shell    60 S   1     bf  170 -   170         -6.118379830883          3.036954944228         -2.685738627684
      0.1612777588D+00  0.1000000000D+01
 Atom C21      Shell    61 S   6     bf  171 -   171          1.629551624677          5.649847086133         -6.191738092293
      0.3047524880D+04  0.1834737132D-02
      0.4573695180D+03  0.1403732281D-01
      0.1039486850D+03  0.6884262226D-01
      0.2921015530D+02  0.2321844432D+00
      0.9286662960D+01  0.4679413484D+00
      0.3163926960D+01  0.3623119853D+00
 Atom C21      Shell    62 SP   3    bf  172 -   175          1.629551624677          5.649847086133         -6.191738092293
      0.7868272350D+01 -0.1193324198D+00  0.6899906659D-01
      0.1881288540D+01 -0.1608541517D+00  0.3164239610D+00
      0.5442492580D+00  0.1143456438D+01  0.7443082909D+00
 Atom C21      Shell    63 SP   1    bf  176 -   179          1.629551624677          5.649847086133         -6.191738092293
      0.1687144782D+00  0.1000000000D+01  0.1000000000D+01
 Atom C21      Shell    64 D   1     bf  180 -   185          1.629551624677          5.649847086133         -6.191738092293
      0.8000000000D+00  0.1000000000D+01
 Atom H22      Shell    65 S   3     bf  186 -   186          0.678727625018          5.635957069933         -8.029001799456
      0.1873113696D+02  0.3349460434D-01
      0.2825394365D+01  0.2347269535D+00
      0.6401216923D+00  0.8137573261D+00
 Atom H22      Shell    66 S   1     bf  187 -   187          0.678727625018          5.635957069933         -8.029001799456
      0.1612777588D+00  0.1000000000D+01
 Atom H23      Shell    67 S   3     bf  188 -   188          3.578975018683          6.242881281305         -6.563938967166
      0.1873113696D+02  0.3349460434D-01
      0.2825394365D+01  0.2347269535D+00
      0.6401216923D+00  0.8137573261D+00
 Atom H23      Shell    68 S   1     bf  189 -   189          3.578975018683          6.242881281305         -6.563938967166
      0.1612777588D+00  0.1000000000D+01
 Atom C24      Shell    69 S   6     bf  190 -   190         -5.676261545737          6.584459333168         -0.558298383234
      0.3047524880D+04  0.1834737132D-02
      0.4573695180D+03  0.1403732281D-01
      0.1039486850D+03  0.6884262226D-01
      0.2921015530D+02  0.2321844432D+00
      0.9286662960D+01  0.4679413484D+00
      0.3163926960D+01  0.3623119853D+00
 Atom C24      Shell    70 SP   3    bf  191 -   194         -5.676261545737          6.584459333168         -0.558298383234
      0.7868272350D+01 -0.1193324198D+00  0.6899906659D-01
      0.1881288540D+01 -0.1608541517D+00  0.3164239610D+00
      0.5442492580D+00  0.1143456438D+01  0.7443082909D+00
 Atom C24      Shell    71 SP   1    bf  195 -   198         -5.676261545737          6.584459333168         -0.558298383234
      0.1687144782D+00  0.1000000000D+01  0.1000000000D+01
 Atom C24      Shell    72 D   1     bf  199 -   204         -5.676261545737          6.584459333168         -0.558298383234
      0.8000000000D+00  0.1000000000D+01
 Atom H25      Shell    73 S   3     bf  205 -   205         -7.541612611461          7.006332679896         -1.347183700333
      0.1873113696D+02  0.3349460434D-01
      0.2825394365D+01  0.2347269535D+00
      0.6401216923D+00  0.8137573261D+00
 Atom H25      Shell    74 S   1     bf  206 -   206         -7.541612611461          7.006332679896         -1.347183700333
      0.1612777588D+00  0.1000000000D+01
 Atom H26      Shell    75 S   3     bf  207 -   207         -5.853426734408          6.799378188617          1.492983630389
      0.1873113696D+02  0.3349460434D-01
      0.2825394365D+01  0.2347269535D+00
      0.6401216923D+00  0.8137573261D+00
 Atom H26      Shell    76 S   1     bf  208 -   208         -5.853426734408          6.799378188617          1.492983630389
      0.1612777588D+00  0.1000000000D+01
 Atom C27      Shell    77 S   6     bf  209 -   209         -0.848446102198         -0.337087023221         -2.578052772974
      0.3047524880D+04  0.1834737132D-02
      0.4573695180D+03  0.1403732281D-01
      0.1039486850D+03  0.6884262226D-01
      0.2921015530D+02  0.2321844432D+00
      0.9286662960D+01  0.4679413484D+00
      0.3163926960D+01  0.3623119853D+00
 Atom C27      Shell    78 SP   3    bf  210 -   213         -0.848446102198         -0.337087023221         -2.578052772974
      0.7868272350D+01 -0.1193324198D+00  0.6899906659D-01
      0.1881288540D+01 -0.1608541517D+00  0.3164239610D+00
      0.5442492580D+00  0.1143456438D+01  0.7443082909D+00
 Atom C27      Shell    79 SP   1    bf  214 -   217         -0.848446102198         -0.337087023221         -2.578052772974
      0.1687144782D+00  0.1000000000D+01  0.1000000000D+01
 Atom C27      Shell    80 D   1     bf  218 -   223         -0.848446102198         -0.337087023221         -2.578052772974
      0.8000000000D+00  0.1000000000D+01
 Atom H28      Shell    81 S   3     bf  224 -   224         -2.761104477446         -1.101358714131         -2.359160711638
      0.1873113696D+02  0.3349460434D-01
      0.2825394365D+01  0.2347269535D+00
      0.6401216923D+00  0.8137573261D+00
 Atom H28      Shell    82 S   1     bf  225 -   225         -2.761104477446         -1.101358714131         -2.359160711638
      0.1612777588D+00  0.1000000000D+01
 Atom C29      Shell    83 S   6     bf  226 -   226         -4.603139913169         11.196227716962         -1.871986498889
      0.3047524880D+04  0.1834737132D-02
      0.4573695180D+03  0.1403732281D-01
      0.1039486850D+03  0.6884262226D-01
      0.2921015530D+02  0.2321844432D+00
      0.9286662960D+01  0.4679413484D+00
      0.3163926960D+01  0.3623119853D+00
 Atom C29      Shell    84 SP   3    bf  227 -   230         -4.603139913169         11.196227716962         -1.871986498889
      0.7868272350D+01 -0.1193324198D+00  0.6899906659D-01
      0.1881288540D+01 -0.1608541517D+00  0.3164239610D+00
      0.5442492580D+00  0.1143456438D+01  0.7443082909D+00
 Atom C29      Shell    85 SP   1    bf  231 -   234         -4.603139913169         11.196227716962         -1.871986498889
      0.1687144782D+00  0.1000000000D+01  0.1000000000D+01
 Atom C29      Shell    86 D   1     bf  235 -   240         -4.603139913169         11.196227716962         -1.871986498889
      0.8000000000D+00  0.1000000000D+01
 Atom H30      Shell    87 S   3     bf  241 -   241         -5.421474684528         11.605102355718          0.000000000000
      0.1873113696D+02  0.3349460434D-01
      0.2825394365D+01  0.2347269535D+00
      0.6401216923D+00  0.8137573261D+00
 Atom H30      Shell    88 S   1     bf  242 -   242         -5.421474684528         11.605102355718          0.000000000000
      0.1612777588D+00  0.1000000000D+01
 Atom C31      Shell    89 S   6     bf  243 -   243         -4.042395071586          6.798148524925         -6.189491359099
      0.3047524880D+04  0.1834737132D-02
      0.4573695180D+03  0.1403732281D-01
      0.1039486850D+03  0.6884262226D-01
      0.2921015530D+02  0.2321844432D+00
      0.9286662960D+01  0.4679413484D+00
      0.3163926960D+01  0.3623119853D+00
 Atom C31      Shell    90 SP   3    bf  244 -   247         -4.042395071586          6.798148524925         -6.189491359099
      0.7868272350D+01 -0.1193324198D+00  0.6899906659D-01
      0.1881288540D+01 -0.1608541517D+00  0.3164239610D+00
      0.5442492580D+00  0.1143456438D+01  0.7443082909D+00
 Atom C31      Shell    91 SP   1    bf  248 -   251         -4.042395071586          6.798148524925         -6.189491359099
      0.1687144782D+00  0.1000000000D+01  0.1000000000D+01
 Atom C31      Shell    92 D   1     bf  252 -   257         -4.042395071586          6.798148524925         -6.189491359099
      0.8000000000D+00  0.1000000000D+01
 Atom H32      Shell    93 S   3     bf  258 -   258         -3.486126140836          5.272447366798         -7.466322237361
      0.1873113696D+02  0.3349460434D-01
      0.2825394365D+01  0.2347269535D+00
      0.6401216923D+00  0.8137573261D+00
 Atom H32      Shell    94 S   1     bf  259 -   259         -3.486126140836          5.272447366798         -7.466322237361
      0.1612777588D+00  0.1000000000D+01
 Atom H33      Shell    95 S   3     bf  260 -   260         -6.035925599499          6.509215370741         -5.733053126161
      0.1873113696D+02  0.3349460434D-01
      0.2825394365D+01  0.2347269535D+00
      0.6401216923D+00  0.8137573261D+00
 Atom H33      Shell    96 S   1     bf  261 -   261         -6.035925599499          6.509215370741         -5.733053126161
      0.1612777588D+00  0.1000000000D+01
 Atom H34      Shell    97 S   3     bf  262 -   262         -3.898937135818          8.561861483174         -7.258581223168
      0.1873113696D+02  0.3349460434D-01
      0.2825394365D+01  0.2347269535D+00
      0.6401216923D+00  0.8137573261D+00
 Atom H34      Shell    98 S   1     bf  263 -   263         -3.898937135818          8.561861483174         -7.258581223168
      0.1612777588D+00  0.1000000000D+01
 Atom C35      Shell    99 S   6     bf  264 -   264          2.433830650855         -1.740953947081         -5.742446652411
      0.3047524880D+04  0.1834737132D-02
      0.4573695180D+03  0.1403732281D-01
      0.1039486850D+03  0.6884262226D-01
      0.2921015530D+02  0.2321844432D+00
      0.9286662960D+01  0.4679413484D+00
      0.3163926960D+01  0.3623119853D+00
 Atom C35      Shell   100 SP   3    bf  265 -   268          2.433830650855         -1.740953947081         -5.742446652411
      0.7868272350D+01 -0.1193324198D+00  0.6899906659D-01
      0.1881288540D+01 -0.1608541517D+00  0.3164239610D+00
      0.5442492580D+00  0.1143456438D+01  0.7443082909D+00
 Atom C35      Shell   101 SP   1    bf  269 -   272          2.433830650855         -1.740953947081         -5.742446652411
      0.1687144782D+00  0.1000000000D+01  0.1000000000D+01
 Atom C35      Shell   102 D   1     bf  273 -   278          2.433830650855         -1.740953947081         -5.742446652411
      0.8000000000D+00  0.1000000000D+01
 Atom C36      Shell   103 S   6     bf  279 -   279          5.721231830953          1.418868344690         -7.037032471452
      0.3047524880D+04  0.1834737132D-02
      0.4573695180D+03  0.1403732281D-01
      0.1039486850D+03  0.6884262226D-01
      0.2921015530D+02  0.2321844432D+00
      0.9286662960D+01  0.4679413484D+00
      0.3163926960D+01  0.3623119853D+00
 Atom C36      Shell   104 SP   3    bf  280 -   283          5.721231830953          1.418868344690         -7.037032471452
      0.7868272350D+01 -0.1193324198D+00  0.6899906659D-01
      0.1881288540D+01 -0.1608541517D+00  0.3164239610D+00
      0.5442492580D+00  0.1143456438D+01  0.7443082909D+00
 Atom C36      Shell   105 SP   1    bf  284 -   287          5.721231830953          1.418868344690         -7.037032471452
      0.1687144782D+00  0.1000000000D+01  0.1000000000D+01
 Atom C36      Shell   106 D   1     bf  288 -   293          5.721231830953          1.418868344690         -7.037032471452
      0.8000000000D+00  0.1000000000D+01
 Atom H37      Shell   107 S   3     bf  294 -   294          6.465440091640          1.700216742889         -5.118772702281
      0.1873113696D+02  0.3349460434D-01
      0.2825394365D+01  0.2347269535D+00
      0.6401216923D+00  0.8137573261D+00
 Atom H37      Shell   108 S   1     bf  295 -   295          6.465440091640          1.700216742889         -5.118772702281
      0.1612777588D+00  0.1000000000D+01
 Atom H38      Shell   109 S   3     bf  296 -   296          6.039679899510          3.193616774432         -8.053142880728
      0.1873113696D+02  0.3349460434D-01
      0.2825394365D+01  0.2347269535D+00
      0.6401216923D+00  0.8137573261D+00
 Atom H38      Shell   110 S   1     bf  297 -   297          6.039679899510          3.193616774432         -8.053142880728
      0.1612777588D+00  0.1000000000D+01
 Atom C39      Shell   111 S   6     bf  298 -   298          0.791085733105         -2.253182016620         -3.876266242580
      0.3047524880D+04  0.1834737132D-02
      0.4573695180D+03  0.1403732281D-01
      0.1039486850D+03  0.6884262226D-01
      0.2921015530D+02  0.2321844432D+00
      0.9286662960D+01  0.4679413484D+00
      0.3163926960D+01  0.3623119853D+00
 Atom C39      Shell   112 SP   3    bf  299 -   302          0.791085733105         -2.253182016620         -3.876266242580
      0.7868272350D+01 -0.1193324198D+00  0.6899906659D-01
      0.1881288540D+01 -0.1608541517D+00  0.3164239610D+00
      0.5442492580D+00  0.1143456438D+01  0.7443082909D+00
 Atom C39      Shell   113 SP   1    bf  303 -   306          0.791085733105         -2.253182016620         -3.876266242580
      0.1687144782D+00  0.1000000000D+01  0.1000000000D+01
 Atom C39      Shell   114 D   1     bf  307 -   312          0.791085733105         -2.253182016620         -3.876266242580
      0.8000000000D+00  0.1000000000D+01
 Atom H40      Shell   115 S   3     bf  313 -   313          0.647972729048         -4.180156238954         -3.164725545271
[...]
 1575 Fit      -0.001677
 1576 Fit      -0.001896
 1577 Fit       0.001109
 1578 Fit       0.002094
 1579 Fit       0.000590
 1580 Fit      -0.001493
 1581 Fit      -0.001811
 1582 Fit      -0.001906
 1583 Fit      -0.000009
 1584 Fit       0.000761
 1585 Fit      -0.000027
 1586 Fit      -0.001774
 1587 Fit       0.000504
 1588 Fit       0.001951
 1589 Fit       0.002259
 1590 Fit       0.001317
 1591 Fit      -0.000214
 1592 Fit       0.000363
 1593 Fit       0.001942
 1594 Fit       0.002853
 1595 Fit       0.002286
 1596 Fit      -0.020283
 1597 Fit      -0.010702
 1598 Fit      -0.015207
 1599 Fit      -0.022021
 1600 Fit      -0.024589
 1601 Fit      -0.023293
 1602 Fit      -0.016600
 1603 Fit      -0.008850
 1604 Fit      -0.016264
 1605 Fit      -0.023853
 1606 Fit      -0.023036
 1607 Fit      -0.019193
 1608 Fit      -0.011730
 1609 Fit      -0.018354
 1610 Fit      -0.018305
 1611 Fit      -0.015785
 1612 Fit      -0.010380
 1613 Fit       0.001320
 1614 Fit       0.010035
 1615 Fit       0.008575
 1616 Fit       0.001373
 1617 Fit      -0.002022
 1618 Fit       0.006440
 1619 Fit       0.015083
 1620 Fit       0.014973
 1621 Fit       0.010999
 1622 Fit       0.005522
 1623 Fit       0.011666
 1624 Fit       0.012183
 1625 Fit      -0.015168
 1626 Fit      -0.017704
 1627 Fit      -0.019317
 1628 Fit      -0.022285
 1629 Fit      -0.021820
 1630 Fit      -0.021228
 1631 Fit      -0.014539
 1632 Fit      -0.018986
 1633 Fit      -0.022731
 1634 Fit      -0.024397
 1635 Fit      -0.024125
 1636 Fit      -0.020346
 1637 Fit      -0.015536
 1638 Fit      -0.005650
 1639 Fit      -0.011740
 1640 Fit      -0.016196
 1641 Fit      -0.019289
 1642 Fit      -0.021258
 1643 Fit      -0.021865
 1644 Fit      -0.014425
 1645 Fit      -0.010639
 1646 Fit      -0.003495
 1647 Fit      -0.008500
 1648 Fit      -0.012292
 1649 Fit      -0.014567
 1650 Fit      -0.003296
 1651 Fit      -0.000574
 1652 Fit      -0.001895
 1653 Fit       0.009306
 1654 Fit       0.004015
 1655 Fit      -0.000998
 1656 Fit       0.004016
 1657 Fit       0.006612
 1658 Fit       0.016980
 1659 Fit       0.012451
 1660 Fit       0.008368
 1661 Fit       0.005142
 1662 Fit       0.014097
 1663 Fit       0.017764
 1664 Fit       0.023447
 1665 Fit       0.023546
 1666 Fit       0.019524
 1667 Fit       0.015458
 1668 Fit       0.020276
 1669 Fit      -0.012645
 1670 Fit      -0.008432
 1671 Fit      -0.003703
 1672 Fit      -0.000107
 1673 Fit       0.001411
 1674 Fit       0.004730
 1675 Fit       0.004479
 1676 Fit       0.006231
 1677 Fit       0.006338
 1678 Fit       0.006367
 1679 Fit       0.012797
 1680 Fit       0.008382
 1681 Fit      -0.001579
 1682 Fit      -0.000365
 1683 Fit      -0.003690
 1684 Fit       0.003979
 1685 Fit       0.006081
 1686 Fit       0.004421
 1687 Fit       0.004191
 1688 Fit       0.004467
 1689 Fit       0.004832
 1690 Fit       0.005008
 1691 Fit       0.005107
 1692 Fit       0.005425
 1693 Fit      -0.005680
 1694 Fit      -0.003960
 1695 Fit      -0.004410
 1696 Fit      -0.004636
 1697 Fit      -0.010259
 1698 Fit      -0.017874
 1699 Fit      -0.007026
 1700 Fit      -0.010149
 1701 Fit      -0.018276
 1702 Fit      -0.006375
 1703 Fit      -0.007861
 1704 Fit      -0.013854
 1705 Fit      -0.005940
 1706 Fit      -0.006440
 1707 Fit      -0.009821
 1708 Fit      -0.001986
 1709 Fit      -0.002298
 1710 Fit      -0.002402
 1711 Fit       0.000778
 1712 Fit       0.000402
 1713 Fit       0.000611
 1714 Fit       0.002117
 1715 Fit       0.002200
 1716 Fit       0.002509
 1717 Fit       0.003923
 1718 Fit       0.003703
 1719 Fit       0.004910
 1720 Fit       0.005435
 1721 Fit       0.005427
 1722 Fit       0.005157
 1723 Fit       0.007372
 1724 Fit       0.006305
 1725 Fit       0.006608
 1726 Fit       0.006737
 1727 Fit       0.005245
 1728 Fit       0.006587
 1729 Fit       0.005320
 1730 Fit       0.007816
 1731 Fit       0.006215
 1732 Fit       0.004940
 1733 Fit       0.008186
 1734 Fit       0.006060
 1735 Fit       0.007226
 1736 Fit      -0.003013
 1737 Fit      -0.003639
 1738 Fit      -0.004427
 1739 Fit      -0.005542
 1740 Fit      -0.004346
 1741 Fit      -0.002827
 1742 Fit      -0.003703
 1743 Fit      -0.000603
 1744 Fit      -0.000752
 1745 Fit      -0.001890
 1746 Fit       0.001553
 1747 Fit       0.000484
 1748 Fit       0.003054
 1749 Fit      -0.002354
 1750 Fit      -0.003192
 1751 Fit      -0.001257
 1752 Fit      -0.001246
 1753 Fit      -0.002314
 1754 Fit      -0.003891
 1755 Fit      -0.005114
 1756 Fit      -0.004057
 1757 Fit      -0.000490
 1758 Fit      -0.000495
 1759 Fit      -0.001567
 1760 Fit      -0.002605
 1761 Fit      -0.003653
 1762 Fit      -0.004998
 1763 Fit      -0.008989
 1764 Fit      -0.006273
 1765 Fit      -0.006696
 1766 Fit      -0.009285
 1767 Fit      -0.000966
 1768 Fit      -0.000897
 1769 Fit      -0.000841
 1770 Fit       0.001958
 1771 Fit       0.001818
 1772 Fit       0.003678
 1773 Fit       0.002590
 1774 Fit       0.000170
 1775 Fit       0.000497
 1776 Fit      -0.000342
 1777 Fit       0.000768
 1778 Fit       0.000259
 1779 Fit      -0.000575
 1780 Fit      -0.001791
 1781 Fit       0.000776
 1782 Fit       0.000336
 1783 Fit      -0.000922
 1784 Fit      -0.002042
 1785 Fit       0.002729
 1786 Fit       0.001178
 1787 Fit      -0.000384
 1788 Fit       0.000198
 1789 Fit       0.004669
 1790 Fit       0.000704
 1791 Fit       0.002293
 1792 Fit       0.004627
 1793 Fit       0.004660
 1794 Fit       0.002128
 1795 Fit       0.005176
 1796 Fit       0.004312
 1797 Fit       0.002986
 1798 Fit       0.002234
 1799 Fit       0.002424
 1800 Fit       0.002479
 1801 Fit       0.000017
 1802 Fit       0.001074
 1803 Fit       0.001368
 1804 Fit       0.005100
 1805 Fit       0.004886
 1806 Fit       0.004211
 1807 Fit       0.000115
 1808 Fit       0.004027
 1809 Fit       0.003925
 1810 Fit       0.002782
 1811 Fit       0.000943
 1812 Fit       0.002468
 1813 Fit      -0.000479
 1814 Fit       0.006192
 1815 Fit       0.006119
 1816 Fit       0.015885
 1817 Fit       0.010104
 1818 Fit       0.010274
 1819 Fit       0.012797
 1820 Fit       0.007503
 1821 Fit       0.007390
 1822 Fit       0.007621
 1823 Fit       0.006268
 1824 Fit       0.006210
 1825 Fit       0.006260
 1826 Fit       0.006851
 1827 Fit       0.006535
 1828 Fit       0.007472
 1829 Fit       0.007335
 1830 Fit       0.008216
 1831 Fit       0.008216
 1832 Fit       0.009147
 1833 Fit       0.009730
 1834 Fit       0.009471
 1835 Fit       0.001815
 1836 Fit       0.003268
 1837 Fit       0.001147
 1838 Fit       0.001233
 1839 Fit      -0.000631
 1840 Fit       0.000095
 1841 Fit      -0.000352
 1842 Fit      -0.000954
 1843 Fit      -0.006751
 1844 Fit      -0.003713
 1845 Fit      -0.001144
 1846 Fit       0.000783
 1847 Fit       0.001218
 1848 Fit       0.000851
 1849 Fit       0.001011
 1850 Fit       0.002062
 1851 Fit       0.003263
 1852 Fit       0.003914
 1853 Fit       0.002527
 1854 Fit       0.004068
 1855 Fit       0.004054
 1856 Fit       0.005796
 1857 Fit       0.005651
 1858 Fit       0.004984
 1859 Fit       0.005188
 1860 Fit       0.006650
 1861 Fit       0.008853
 1862 Fit       0.005981
 1863 Fit       0.005477
 1864 Fit       0.006896
 1865 Fit       0.010088
 1866 Fit       0.009731
 1867 Fit       0.009348
 1868 Fit       0.008741
 1869 Fit       0.007923
 1870 Fit       0.006817
 1871 Fit       0.008388
 1872 Fit       0.007983
 1873 Fit       0.006922
 1874 Fit       0.006983
 1875 Fit       0.007824
 1876 Fit       0.008875
 1877 Fit       0.013956
 1878 Fit       0.020223
 1879 Fit       0.012226
 1880 Fit       0.010060
 1881 Fit       0.013661
 1882 Fit       0.009220
 1883 Fit       0.002120
 1884 Fit       0.006984
 1885 Fit       0.005961
 1886 Fit       0.004403
 1887 Fit       0.005861
 1888 Fit       0.006008
 1889 Fit       0.005802
 1890 Fit       0.005302
 1891 Fit       0.005186
 1892 Fit       0.001516
 1893 Fit       0.003019
 1894 Fit       0.005259
 1895 Fit       0.001353
 1896 Fit       0.000817
 1897 Fit       0.002071
 1898 Fit      -0.002440
 1899 Fit      -0.006869
 1900 Fit       0.003934
 1901 Fit       0.001559
 1902 Fit      -0.003404
 1903 Fit      -0.013519
 1904 Fit       0.002903
 1905 Fit       0.001012
 1906 Fit      -0.004804
 1907 Fit       0.003512
 1908 Fit       0.004540
 1909 Fit       0.005337
 1910 Fit       0.005728
 1911 Fit       0.008734
 1912 Fit       0.009338
 1913 Fit       0.011677
 1914 Fit       0.014685
 1915 Fit       0.022778
 1916 Fit       0.019511
 1917 Fit       0.004715
 1918 Fit       0.005711
 1919 Fit       0.007515
 1920 Fit       0.007779
 1921 Fit       0.006580
 1922 Fit       0.006639
 1923 Fit       0.008172
 1924 Fit       0.009821
 1925 Fit       0.011915
 1926 Fit       0.010418
 1927 Fit       0.009614
 1928 Fit       0.010967
 1929 Fit       0.018080
 1930 Fit       0.016224
 1931 Fit       0.012836
 1932 Fit       0.003940
 1933 Fit       0.000852
 1934 Fit       0.004537
 1935 Fit      -0.006473
 1936 Fit       0.000063
 1937 Fit       0.003797
 1938 Fit       0.005668
 1939 Fit      -0.008039
 1940 Fit       0.000526
 1941 Fit       0.003893
 1942 Fit       0.005684
 1943 Fit      -0.006512
 1944 Fit       0.001856
 1945 Fit       0.004453
 1946 Fit       0.006134
 1947 Fit      -0.002357
 1948 Fit       0.004123
 1949 Fit       0.003097
 1950 Fit       0.000408
 1951 Fit       0.002795
 1952 Fit       0.001695
 1953 Fit       0.004902
 1954 Fit       0.001358
 1955 Fit       0.001062
 1956 Fit       0.001951
 1957 Fit       0.001838
 1958 Fit       0.001257
 1959 Fit       0.001440
 1960 Fit      -0.001221
 1961 Fit      -0.000028
 1962 Fit      -0.000029
 1963 Fit      -0.001318
 1964 Fit       0.005925
 1965 Fit       0.002888
 1966 Fit       0.008171
 1967 Fit       0.012721
 1968 Fit       0.007031
 1969 Fit       0.002369
 1970 Fit       0.000230
 1971 Fit      -0.001084
 1972 Fit       0.004408
 1973 Fit      -0.003847
 1974 Fit      -0.007554
 1975 Fit      -0.005946
 1976 Fit      -0.006872
 1977 Fit       0.001094
 1978 Fit      -0.001780
 1979 Fit      -0.002291
 1980 Fit      -0.002002
 1981 Fit      -0.001993
 1982 Fit      -0.002092
 1983 Fit      -0.001666
 1984 Fit      -0.002043
 1985 Fit      -0.002278
 1986 Fit      -0.001922
 1987 Fit      -0.002137
 1988 Fit      -0.001726
 1989 Fit      -0.001353
 1990 Fit       0.003214
 1991 Fit       0.000779
 1992 Fit      -0.000482
 1993 Fit      -0.001386
 1994 Fit       0.002584
 1995 Fit       0.000846
 1996 Fit       0.000238
 1997 Fit       0.002587
 1998 Fit       0.000340
 1999 Fit       0.001510
 2000 Fit       0.000743
 2001 Fit      -0.000684
 2002 Fit       0.001637
 2003 Fit       0.001014
 2004 Fit      -0.000170
 2005 Fit      -0.001678
 2006 Fit       0.000838
 2007 Fit       0.000888
 2008 Fit       0.000452
 2009 Fit      -0.000622
 2010 Fit      -0.000587
 2011 Fit      -0.000841
 2012 Fit      -0.001948
 2013 Fit      -0.001710
 2014 Fit      -0.000138
 2015 Fit      -0.000187
 2016 Fit       0.001570
 2017 Fit      -0.000140
 2018 Fit       0.001659
 2019 Fit       0.003390
 2020 Fit       0.000205
 2021 Fit       0.001902
 2022 Fit      -0.000520
 2023 Fit       0.000941
 2024 Fit       0.000811
 2025 Fit       0.000205
 2026 Fit       0.000875
 2027 Fit       0.000818
 2028 Fit      -0.000008
 2029 Fit      -0.000584
 2030 Fit       0.000615
 2031 Fit       0.000775
 2032 Fit      -0.000541
 2033 Fit      -0.001343
 2034 Fit       0.001204
 2035 Fit       0.001232
 2036 Fit       0.001970
 2037 Fit       0.002140
 2038 Fit       0.001916
 2039 Fit       0.000687
 2040 Fit       0.001367
 2041 Fit       0.001733
 2042 Fit      -0.000552
 2043 Fit       0.000247
 2044 Fit       0.000647
 2045 Fit      -0.001125
 2046 Fit       0.001600
 2047 Fit       0.003324
 2048 Fit       0.001963
 2049 Fit       0.000504
 2050 Fit      -0.000929
 2051 Fit       0.004127
 2052 Fit       0.003266
 2053 Fit       0.001704
 2054 Fit       0.000373
 2055 Fit       0.004194
 2056 Fit       0.002721
 2057 Fit       0.001145
 2058 Fit       0.001164
 2059 Fit       0.001180
 2060 Fit       0.000779
 2061 Fit       0.000321
 2062 Fit       0.001282
 2063 Fit       0.001533
 2064 Fit       0.001292
 2065 Fit       0.000849
 2066 Fit       0.000998
 2067 Fit       0.001433
 2068 Fit       0.001361
 2069 Fit       0.000697
 2070 Fit       0.001423
 2071 Fit       0.000933
 2072 Fit      -0.001934
 2073 Fit      -0.001611
 2074 Fit      -0.001381
 2075 Fit      -0.001065
 2076 Fit      -0.000132
 2077 Fit      -0.000780
 2078 Fit      -0.000409
 2079 Fit      -0.000191
 2080 Fit       0.000232
 2081 Fit       0.000818
 2082 Fit      -0.000032
 2083 Fit      -0.000407
 2084 Fit       0.000510
 2085 Fit      -0.000111
 2086 Fit      -0.000995
 2087 Fit       0.000980
 2088 Fit       0.000802
 2089 Fit       0.000012
 2090 Fit       0.002211
 2091 Fit       0.002178
 2092 Fit       0.001686
 2093 Fit       0.000062
 2094 Fit       0.002944
 2095 Fit       0.000095
 2096 Fit       0.001306
 2097 Fit      -0.000277
 2098 Fit       0.001706
 2099 Fit       0.002255
 2100 Fit      -0.000852
 2101 Fit       0.000601
 2102 Fit       0.001327
 2103 Fit       0.001746
 2104 Fit       0.001808
 2105 Fit      -0.000654
 2106 Fit       0.000481
 2107 Fit       0.000319
 2108 Fit       0.000660
 2109 Fit       0.000776
 2110 Fit      -0.000344
 2111 Fit       0.000787
 2112 Fit       0.000314
 2113 Fit       0.002480
 2114 Fit       0.001984
 2115 Fit       0.001376
 2116 Fit       0.002635
 2117 Fit       0.002019
 2118 Fit       0.001738
 2119 Fit       0.003229
 2120 Fit       0.003885
 2121 Fit       0.003366
 2122 Fit       0.003854
 2123 Fit       0.003301
 2124 Fit       0.003592
 2125 Fit       0.004408
 2126 Fit       0.004252
 2127 Fit      -0.002260
 2128 Fit      -0.002459
 2129 Fit      -0.002560
 2130 Fit      -0.002078
 2131 Fit      -0.002050
 2132 Fit      -0.002187
 2133 Fit      -0.002330
 2134 Fit      -0.002030
 2135 Fit      -0.001528
 2136 Fit      -0.000773
 2137 Fit      -0.000200
 2138 Fit      -0.002198
 2139 Fit      -0.001447
 2140 Fit      -0.000743
 2141 Fit      -0.001557
 2142 Fit      -0.001513
 2143 Fit      -0.000100
 2144 Fit       0.000388
 2145 Fit       0.000096
 2146 Fit      -0.000865
 2147 Fit       0.000189
 2148 Fit       0.000964
 2149 Fit       0.000724
 2150 Fit      -0.000938
 2151 Fit       0.000590
 2152 Fit       0.000150
 2153 Fit      -0.001488
 2154 Fit      -0.000794
 2155 Fit       0.001683
 2156 Fit       0.001479
 2157 Fit       0.000368
 2158 Fit      -0.001201
 2159 Fit      -0.001383
 2160 Fit       0.000626
 2161 Fit       0.002522
 2162 Fit       0.001896
 2163 Fit       0.000890
 2164 Fit      -0.000521
 2165 Fit       0.001610
 2166 Fit       0.000546
 2167 Fit      -0.001894
 2168 Fit      -0.000568
 2169 Fit      -0.000071
 2170 Fit      -0.000612
 2171 Fit      -0.000325
 2172 Fit       0.000812
 2173 Fit       0.001303
 2174 Fit       0.000966
 2175 Fit       0.000012
 2176 Fit       0.000453
 2177 Fit       0.001531
 2178 Fit       0.002063
 2179 Fit       0.001796
 2180 Fit       0.000845
 2181 Fit       0.001703
 -----------------------------------------------------------------
 Leave Link  602 at Thu May 18 13:32:58 2017, MaxMem=   33554432 cpu:      19.1
 (Enter /scratch/michal/g09/l9999.exe)

 Test job not archived.
 1\1\GINC-RZEPICHA\SP\RHF\6-31G(d)\C27H46O2\MICHAL\18-May-2017\0\\#P HF
 /6-31G* SCF(Conver=6) NoSymm Test Pop=mk IOp(6/33=2) GFInput GFPrint\\
 MEP - Input generated by R.E.D.-III.x MOLECULE\\0,1\O,0,0.,0.,0.\H,0,0
 .96652626,0.,0.\O,0,4.37798413,-2.76757605,-4.27052675\H,0,4.10685222,
 -2.87434581,-5.1931645\C,0,-1.25148232,3.64866737,-2.01000882\C,0,-1.1
 561408,2.26435185,-1.30565416\H,0,-0.46783664,2.40943191,-0.46154506\C
 ,0,-0.5392235,1.14513846,-2.15299594\H,0,-1.19459006,0.93581732,-3.010
 57709\C,0,0.86059602,1.56465131,-2.67202829\H,0,1.51142156,1.60535119,
 -1.7826841\C,0,-1.91930337,4.46372304,-0.8484786\H,0,-1.1418247,4.5169
 1417,-0.07444776\C,0,0.1868263,4.05306093,-2.38643617\H,0,0.77266533,4
 .18456875,-1.46597222\H,0,0.20827898,5.01426161,-2.91359841\C,0,1.4937
 9737,0.48471723,-3.61806072\C,0,-2.54934833,2.04941708,-0.68966153\H,0
 ,-2.51298262,1.37187169,0.1680135\H,0,-3.23770716,1.60708734,-1.421231
 67\C,0,0.86232158,2.98977031,-3.27652668\H,0,0.35916719,2.98242003,-4.
 24876476\H,0,1.89391201,3.30359049,-3.4734869\C,0,-3.00374824,3.484345
 81,-0.29543878\H,0,-3.99084951,3.70759157,-0.71289891\H,0,-3.09750002,
 3.59807597,0.79005291\C,0,-0.44897834,-0.17837877,-1.36424677\H,0,-1.4
 6111356,-0.58281393,-1.24841408\C,0,-2.43587673,5.92478853,-0.99061259
 \H,0,-2.86892084,6.14115567,0.\C,0,-2.13914334,3.59742526,-3.27533776\
 H,0,-1.8447785,2.79005898,-3.95100756\H,0,-3.19407426,3.44452842,-3.03
 380105\H,0,-2.06322867,4.53074196,-3.84107575\C,0,1.28792771,-0.921273
 15,-3.03877189\C,0,3.02754549,0.75083279,-3.7238372\H,0,3.42136354,0.8
 9971595,-2.70873785\H,0,3.19606095,1.68998921,-4.26153967\C,0,0.418624
 54,-1.19233257,-2.05123175\H,0,0.3428924,-2.21204341,-1.67470063\C,0,0
 .86114452,0.52514916,-5.035846\H,0,1.13408577,1.44183383,-5.56707324\H
 ,0,1.19634635,-0.31423136,-5.65011639\H,0,-0.23045633,0.47078016,-4.98
 462814\C,0,2.11720389,-2.03938123,-3.64344117\H,0,1.96214101,-2.968910
 5,-3.08698793\H,0,1.7867102,-2.23168627,-4.67668554\C,0,3.83672212,-0.
 369311,-4.39531096\H,0,3.55012606,-0.4705895,-5.45252099\H,0,4.9038501
 2,-0.12019639,-4.38249012\C,0,-1.32987835,6.9847189,-1.20913558\H,0,-0
 .82776487,6.8051224,-2.16918011\H,0,-1.82697188,7.95982825,-1.3152389\
 C,0,3.61634576,-1.70655647,-3.68871335\H,0,3.9960667,-1.63688817,-2.66
 187596\C,0,-3.5705009,6.16634588,-2.00688712\H,0,-3.20147656,6.1945448
 3,-3.0363017\H,0,-4.04230022,7.13513,-1.80676861\H,0,-4.35537534,5.406
 37067,-1.95410602\C,0,-0.27902814,7.10925675,-0.09477068\H,0,-0.796810
 29,7.22974308,0.86659217\H,0,0.30076034,6.182692,-0.01950307\C,0,0.674
 3466,8.29323566,-0.32601335\H,0,0.07857973,9.21454563,-0.39981426\H,0,
 1.15856124,8.16784289,-1.30548953\C,0,1.77724152,8.51261294,0.73570094
 \H,0,2.34402987,9.39492565,0.40316185\C,0,2.77073894,7.34125107,0.8109
 5381\H,0,2.29573417,6.43202574,1.19710092\H,0,3.6062222,7.58118025,1.4
 7853657\H,0,3.18817674,7.10803307,-0.17573222\C,0,1.20507484,8.8409497
 6,2.12478948\H,0,0.67471881,7.98427813,2.55633302\H,0,2.0057246,9.1139
 384,2.82168286\H,0,0.5019955,9.68097743,2.07853409\\Version=EM64L-G09R
 evC.01\HF=-1198.9209176\RMSD=5.164e-07\Dipole=0.0189396,0.4299872,-0.9
 167208\Quadrupole=-6.3147873,-2.5646103,8.8793976,6.3614749,0.1141341,
 -0.7286975\PG=C01 [X(C27H46O2)]\\@


 EXPERIMENTALISTS THINK SILICON IS REALLY FUN TO USE
     ITS PLACE IN NOVEL COMPOUNDS IS CERTAIN TO AMUSE
 THEY SIT ALL DAY IN LABORATORIES MAKING ALL THIS SLUDGE
     "LOADED WITH THE SILICON THEY SAY", TO ME IT LOOKS LIKE FUDGE.
 FOR HAPPY THOUGH THEY BE WITH CRUD, I'D LIKE TO KNOW A LITTLE
      ABOUT THE PI BONDS ON THE EDGE AND SIGMAS IN THE MIDDLE.

 SO LETS DERIVE A WAVEFUNCTION.....6-31G*
     USE AN OPTIMAL GEOMETRY AND SEE WHERE ELECTRONS ARE.
 BUT WHAT OF CORRELATION?  ASKS THE WIRY LITTLE SKEPTIC.
     WE'LL THROW IN PERTURBATION AS AN ELECTRON ANTISEPTIC.
 AND WHEN THE PROGRAM GIVES US ANSWERS IN THEM WE CAN TRUST
     SINCE NOBODY CAN MAKE THE STUFF, WE HAVE NO CHOICE, WE MUST.

 SO THEORY GUYS HAVE GOT IT MADE, IN ROOMS FREE OF POLLUTION.
     INSTEAD OF PROBLEMS WITH THE REFLUX, THEY HAVE ONLY SOLUTIONS.
 AND WHEN THE FEDS ANNOUNCE THE LIST OF CARCINOGENIC TERRORS,
     THE THEORISTS SIT SAFELY AT THEIR TERMINALS FIXING ERRORS.
 IN OTHER WORDS, EXPERIMENTALISTS WILL LIKELY DIE OF CANCER
     FROM WORKING HARD YET FRUITLESSLY...TILL THEORY GIVES THE ANSWER.
          -- THOMAS A. HOLME, 1983
 Job cpu time:  0 days  0 hours 39 minutes  6.2 seconds.
 File lengths (MBytes):  RWF=    151 Int=      0 D2E=      0 Chk=     11 Scr=      1
 Normal termination of Gaussian 09 at Thu May 18 13:32:58 2017.
