 Entering Gaussian System, Link 0=/scratch/michal/g09//g09
 Input=JOB2-gau_m1-4-2.com
 Output=JOB2-gau_m1-4-2.log
 Initial command:
 /scratch/michal/g09/l1.exe /scratch/michal/gauss_scratch/Gau-5121.inp -scrdir=/scratch/michal/gauss_scratch/
 Entering Link 1 = /scratch/michal/g09/l1.exe PID=      5123.
  
 Copyright (c) 1988,1990,1992,1993,1995,1998,2003,2009,2011,
            Gaussian, Inc.  All Rights Reserved.
  
 This is part of the Gaussian(R) 09 program.  It is based on
 the Gaussian(R) 03 system (copyright 2003, Gaussian, Inc.),
 the Gaussian(R) 98 system (copyright 1998, Gaussian, Inc.),
 the Gaussian(R) 94 system (copyright 1995, Gaussian, Inc.),
 the Gaussian 92(TM) system (copyright 1992, Gaussian, Inc.),
 the Gaussian 90(TM) system (copyright 1990, Gaussian, Inc.),
 the Gaussian 88(TM) system (copyright 1988, Gaussian, Inc.),
 the Gaussian 86(TM) system (copyright 1986, Carnegie Mellon
 University), and the Gaussian 82(TM) system (copyright 1983,
 Carnegie Mellon University). Gaussian is a federally registered
 trademark of Gaussian, Inc.
  
 This software contains proprietary and confidential information,
 including trade secrets, belonging to Gaussian, Inc.
  
 This software is provided under written license and may be
 used, copied, transmitted, or stored only in accord with that
 written license.
  
 The following legend is applicable only to US Government
 contracts under FAR:
  
                    RESTRICTED RIGHTS LEGEND
  
 Use, reproduction and disclosure by the US Government is
 subject to restrictions as set forth in subparagraphs (a)
 and (c) of the Commercial Computer Software - Restricted
 Rights clause in FAR 52.227-19.
  
 Gaussian, Inc.
 340 Quinnipiac St., Bldg. 40, Wallingford CT 06492
  
  
 ---------------------------------------------------------------
 Warning -- This program may not be used in any manner that
 competes with the business of Gaussian, Inc. or will provide
 assistance to any competitor of Gaussian, Inc.  The licensee
 of this program is prohibited from giving any competitor of
 Gaussian, Inc. access to this program.  By using this program,
 the user acknowledges that Gaussian, Inc. is engaged in the
 business of creating and licensing software in the field of
 computational chemistry and represents and warrants to the
 licensee that it is not a competitor of Gaussian, Inc. and that
 it will not use this program in any manner prohibited above.
 ---------------------------------------------------------------
  

 Cite this work as:
 Gaussian 09, Revision C.01,
 M. J. Frisch, G. W. Trucks, H. B. Schlegel, G. E. Scuseria, 
 M. A. Robb, J. R. Cheeseman, G. Scalmani, V. Barone, B. Mennucci, 
 G. A. Petersson, H. Nakatsuji, M. Caricato, X. Li, H. P. Hratchian, 
 A. F. Izmaylov, J. Bloino, G. Zheng, J. L. Sonnenberg, M. Hada, 
 M. Ehara, K. Toyota, R. Fukuda, J. Hasegawa, M. Ishida, T. Nakajima, 
 Y. Honda, O. Kitao, H. Nakai, T. Vreven, J. A. Montgomery, Jr., 
 J. E. Peralta, F. Ogliaro, M. Bearpark, J. J. Heyd, E. Brothers, 
 K. N. Kudin, V. N. Staroverov, T. Keith, R. Kobayashi, J. Normand, 
 K. Raghavachari, A. Rendell, J. C. Burant, S. S. Iyengar, J. Tomasi, 
 M. Cossi, N. Rega, J. M. Millam, M. Klene, J. E. Knox, J. B. Cross, 
 V. Bakken, C. Adamo, J. Jaramillo, R. Gomperts, R. E. Stratmann, 
 O. Yazyev, A. J. Austin, R. Cammi, C. Pomelli, J. W. Ochterski, 
 R. L. Martin, K. Morokuma, V. G. Zakrzewski, G. A. Voth, 
 P. Salvador, J. J. Dannenberg, S. Dapprich, A. D. Daniels, 
 O. Farkas, J. B. Foresman, J. V. Ortiz, J. Cioslowski, 
 and D. J. Fox, Gaussian, Inc., Wallingford CT, 2010.
 
 ******************************************
 Gaussian 09:  EM64L-G09RevC.01 23-Sep-2011
                18-May-2017 
 ******************************************
 %Mem=256MB
 %NProc=48
 Will use up to   48 processors via shared memory.
 ----------------------------------------------------------------------
 #P HF/6-31G* SCF(Conver=6) NoSymm Test Pop=mk IOp(6/33=2) GFInput GFPr
 int
 ----------------------------------------------------------------------
 1/38=1/1;
 2/12=2,15=1,17=6,18=5,40=1/2;
 3/5=1,6=6,7=1,11=9,16=1,24=110,25=1,30=1/1,2,3;
 4//1;
 5/5=2,6=6,38=5/2;
 6/7=2,8=2,9=2,10=2,15=8,20=1,28=1,33=2/1,2;
 99/5=1,9=1/99;
 Leave Link    1 at Thu May 18 12:39:32 2017, MaxMem=   33554432 cpu:       5.1
 (Enter /scratch/michal/g09/l101.exe)
 ----------------------------------------------
 MEP - Input generated by R.E.D.-III.x MOLECULE
 ----------------------------------------------
 Charge =  0 Multiplicity = 1
 Symbolic Z-Matrix:
 O                     6.83648   0.78346   0. 
 H                     7.40253   0.        0. 
 O                     10.44651  -1.98371   4.93981 
 H                     10.13087  -1.87511   5.84796 
 C                     2.78806  -0.62297   0.75243 
 C                     4.08832   0.1947    0.51649 
 H                     4.59479  -0.29528  -0.32732 
 C                     5.09038   0.17221   1.67729 
 H                     4.6375    0.65937   2.55295 
 C                     5.4647   -1.28634   2.04358 
 H                     6.04501  -1.67237   1.18896 
 C                     2.03955  -0.33298  -0.59509 
 H                     2.55342  -0.93147  -1.36418 
 C                     3.22868  -2.08159   0.99229 
 H                     3.70289  -2.45978   0.07517 
 H                     2.37616  -2.73769   1.19481 
 C                     6.42245  -1.36442   3.28388 
 C                     3.59862   1.55049  -0.01035 
 H                     4.36812   2.06417  -0.5933 
 H                     3.32182   2.21654   0.81692 
 C                     4.21867  -2.19471   2.16957 
 H                     3.68179  -1.96191   3.09499 
 H                     4.53356  -3.24079   2.25995 
 C                     2.35707   1.17883  -0.86703 
 H                     1.49495   1.80323  -0.60366 
 H                     2.55042   1.35391  -1.92931 
 C                     6.35697   0.99087   1.34968 
 H                     6.09645   2.05541   1.36609 
 C                     0.5266   -0.64851  -0.71582 
 H                     0.        0.        0. 
 C                     1.96262  -0.09405   1.94821 
 H                     2.5379   -0.07831   2.87758 
 H                     1.60209   0.92462   1.7763 
 H                     1.08456  -0.72412   2.12415 
 C                     7.52404  -0.30156   3.17769 
 C                     7.09871  -2.77023   3.30457 
 H                     7.47891  -2.98361   2.29582 
 H                     6.34216  -3.53304   3.51745 
 C                     7.46957   0.73414   2.32401 
 H                     8.30069   1.43788   2.2882 
 C                     5.65373  -1.13822   4.6144 
 H                     4.9812   -1.97327   4.83229 
 H                     6.33596  -1.04528   5.46303 
 H                     5.05951  -0.2202    4.57725 
 C                     8.71454  -0.4538    4.10667 
 H                     9.47654   0.29563   3.87124 
 H                     8.40169  -0.26903   5.14674 
 C                     8.26072  -2.91738   4.29871 
 H                     7.89687  -2.82369   5.33259 
 H                     8.70437  -3.91568   4.21188 
 C                    -0.00295  -0.29648  -2.14016 
 H                     0.73677   0.30846  -2.67433 
 H                    -0.10254  -1.22305  -2.72367 
 C                     9.3344   -1.85841   4.04992 
 H                     9.76923  -2.01496   3.05501 
 C                     0.17717  -2.10913  -0.37429 
 H                     0.77849  -2.80327  -0.97451 
 H                    -0.875    -2.31785  -0.58992 
 H                     0.3466   -2.34553   0.67933 
 C                    -1.33744   0.47338  -2.18077 
 H                    -1.21235   1.41206  -1.625 
 H                    -1.53648   0.76161  -3.22317 
 C                    -2.56018  -0.2888   -1.64777 
 H                    -2.43167  -0.50871  -0.57811 
 H                    -2.61408  -1.26221  -2.15645 
 C                    -3.9106    0.43299  -1.83864 
 H                    -4.00586   0.68117  -2.90719 
 C                    -3.99712   1.74458  -1.04118 
 H                    -3.87882   1.55378   0.03358 
 H                    -4.97032   2.22719  -1.18653 
 H                    -3.22629   2.46174  -1.34007 
 C                    -5.07658  -0.49769  -1.46896 
 H                    -5.0302   -0.78031  -0.40932 
 H                    -6.04383  -0.01146  -1.63993 
 H                    -5.05525  -1.42016  -2.06055 
 
 NAtoms=     75 NQM=        0 NQMF=       0 NMMI=     75 NMMIF=      0
                NMic=       0 NMicF=      0.
                    Isotopes and Nuclear Properties:
 (Nuclear quadrupole moments (NQMom) in fm**2, nuclear magnetic moments (NMagM)
  in nuclear magnetons)

  Atom         1           2           3           4           5           6           7           8           9          10
 IAtWgt=          16           1          16           1          12          12           1          12           1          12
 AtmWgt=  15.9949146   1.0078250  15.9949146   1.0078250  12.0000000  12.0000000   1.0078250  12.0000000   1.0078250  12.0000000
 NucSpn=           0           1           0           1           0           0           1           0           1           0
 AtZEff=   0.0000000   0.0000000   0.0000000   0.0000000   0.0000000   0.0000000   0.0000000   0.0000000   0.0000000   0.0000000
 NQMom=    0.0000000   0.0000000   0.0000000   0.0000000   0.0000000   0.0000000   0.0000000   0.0000000   0.0000000   0.0000000
 NMagM=    0.0000000   2.7928460   0.0000000   2.7928460   0.0000000   0.0000000   2.7928460   0.0000000   2.7928460   0.0000000

  Atom        11          12          13          14          15          16          17          18          19          20
 IAtWgt=           1          12           1          12           1           1          12          12           1           1
 AtmWgt=   1.0078250  12.0000000   1.0078250  12.0000000   1.0078250   1.0078250  12.0000000  12.0000000   1.0078250   1.0078250
 NucSpn=           1           0           1           0           1           1           0           0           1           1
 AtZEff=   0.0000000   0.0000000   0.0000000   0.0000000   0.0000000   0.0000000   0.0000000   0.0000000   0.0000000   0.0000000
 NQMom=    0.0000000   0.0000000   0.0000000   0.0000000   0.0000000   0.0000000   0.0000000   0.0000000   0.0000000   0.0000000
 NMagM=    2.7928460   0.0000000   2.7928460   0.0000000   2.7928460   2.7928460   0.0000000   0.0000000   2.7928460   2.7928460

  Atom        21          22          23          24          25          26          27          28          29          30
 IAtWgt=          12           1           1          12           1           1          12           1          12           1
 AtmWgt=  12.0000000   1.0078250   1.0078250  12.0000000   1.0078250   1.0078250  12.0000000   1.0078250  12.0000000   1.0078250
 NucSpn=           0           1           1           0           1           1           0           1           0           1
 AtZEff=   0.0000000   0.0000000   0.0000000   0.0000000   0.0000000   0.0000000   0.0000000   0.0000000   0.0000000   0.0000000
 NQMom=    0.0000000   0.0000000   0.0000000   0.0000000   0.0000000   0.0000000   0.0000000   0.0000000   0.0000000   0.0000000
 NMagM=    0.0000000   2.7928460   2.7928460   0.0000000   2.7928460   2.7928460   0.0000000   2.7928460   0.0000000   2.7928460

  Atom        31          32          33          34          35          36          37          38          39          40
 IAtWgt=          12           1           1           1          12          12           1           1          12           1
 AtmWgt=  12.0000000   1.0078250   1.0078250   1.0078250  12.0000000  12.0000000   1.0078250   1.0078250  12.0000000   1.0078250
 NucSpn=           0           1           1           1           0           0           1           1           0           1
 AtZEff=   0.0000000   0.0000000   0.0000000   0.0000000   0.0000000   0.0000000   0.0000000   0.0000000   0.0000000   0.0000000
 NQMom=    0.0000000   0.0000000   0.0000000   0.0000000   0.0000000   0.0000000   0.0000000   0.0000000   0.0000000   0.0000000
 NMagM=    0.0000000   2.7928460   2.7928460   2.7928460   0.0000000   0.0000000   2.7928460   2.7928460   0.0000000   2.7928460

  Atom        41          42          43          44          45          46          47          48          49          50
 IAtWgt=          12           1           1           1          12           1           1          12           1           1
 AtmWgt=  12.0000000   1.0078250   1.0078250   1.0078250  12.0000000   1.0078250   1.0078250  12.0000000   1.0078250   1.0078250
 NucSpn=           0           1           1           1           0           1           1           0           1           1
 AtZEff=   0.0000000   0.0000000   0.0000000   0.0000000   0.0000000   0.0000000   0.0000000   0.0000000   0.0000000   0.0000000
 NQMom=    0.0000000   0.0000000   0.0000000   0.0000000   0.0000000   0.0000000   0.0000000   0.0000000   0.0000000   0.0000000
 NMagM=    0.0000000   2.7928460   2.7928460   2.7928460   0.0000000   2.7928460   2.7928460   0.0000000   2.7928460   2.7928460

  Atom        51          52          53          54          55          56          57          58          59          60
 IAtWgt=          12           1           1          12           1          12           1           1           1          12
 AtmWgt=  12.0000000   1.0078250   1.0078250  12.0000000   1.0078250  12.0000000   1.0078250   1.0078250   1.0078250  12.0000000
 NucSpn=           0           1           1           0           1           0           1           1           1           0
 AtZEff=   0.0000000   0.0000000   0.0000000   0.0000000   0.0000000   0.0000000   0.0000000   0.0000000   0.0000000   0.0000000
 NQMom=    0.0000000   0.0000000   0.0000000   0.0000000   0.0000000   0.0000000   0.0000000   0.0000000   0.0000000   0.0000000
 NMagM=    0.0000000   2.7928460   2.7928460   0.0000000   2.7928460   0.0000000   2.7928460   2.7928460   2.7928460   0.0000000

  Atom        61          62          63          64          65          66          67          68          69          70
 IAtWgt=           1           1          12           1           1          12           1          12           1           1
 AtmWgt=   1.0078250   1.0078250  12.0000000   1.0078250   1.0078250  12.0000000   1.0078250  12.0000000   1.0078250   1.0078250
 NucSpn=           1           1           0           1           1           0           1           0           1           1
 AtZEff=   0.0000000   0.0000000   0.0000000   0.0000000   0.0000000   0.0000000   0.0000000   0.0000000   0.0000000   0.0000000
 NQMom=    0.0000000   0.0000000   0.0000000   0.0000000   0.0000000   0.0000000   0.0000000   0.0000000   0.0000000   0.0000000
 NMagM=    2.7928460   2.7928460   0.0000000   2.7928460   2.7928460   0.0000000   2.7928460   0.0000000   2.7928460   2.7928460

  Atom        71          72          73          74          75
 IAtWgt=           1          12           1           1           1
 AtmWgt=   1.0078250  12.0000000   1.0078250   1.0078250   1.0078250
 NucSpn=           1           0           1           1           1
 AtZEff=   0.0000000   0.0000000   0.0000000   0.0000000   0.0000000
 NQMom=    0.0000000   0.0000000   0.0000000   0.0000000   0.0000000
 NMagM=    2.7928460   0.0000000   2.7928460   2.7928460   2.7928460
 Leave Link  101 at Thu May 18 12:39:33 2017, MaxMem=   33554432 cpu:       7.2
 (Enter /scratch/michal/g09/l202.exe)
 Symmetry turned off by external request.
 Stoichiometry    C27H46O2
 Framework group  C1[X(C27H46O2)]
 Deg. of freedom   219
 Full point group                 C1      NOp   1
                          Input orientation:                          
 ---------------------------------------------------------------------
 Center     Atomic      Atomic             Coordinates (Angstroms)
 Number     Number       Type             X           Y           Z
 ---------------------------------------------------------------------
      1          8           0        6.836479    0.783465    0.000000
      2          1           0        7.402529    0.000000    0.000000
      3          8           0       10.446507   -1.983706    4.939810
      4          1           0       10.130870   -1.875114    5.847965
      5          6           0        2.788063   -0.622973    0.752430
      6          6           0        4.088324    0.194702    0.516490
      7          1           0        4.594788   -0.295282   -0.327322
      8          6           0        5.090376    0.172212    1.677291
      9          1           0        4.637501    0.659366    2.552951
     10          6           0        5.464703   -1.286340    2.043576
     11          1           0        6.045010   -1.672366    1.188962
     12          6           0        2.039545   -0.332978   -0.595089
     13          1           0        2.553424   -0.931474   -1.364181
     14          6           0        3.228677   -2.081588    0.992293
     15          1           0        3.702887   -2.459781    0.075168
     16          1           0        2.376159   -2.737686    1.194809
     17          6           0        6.422446   -1.364423    3.283882
     18          6           0        3.598619    1.550492   -0.010353
     19          1           0        4.368125    2.064168   -0.593297
     20          1           0        3.321818    2.216542    0.816922
     21          6           0        4.218674   -2.194712    2.169573
     22          1           0        3.681789   -1.961909    3.094993
     23          1           0        4.533560   -3.240785    2.259951
     24          6           0        2.357069    1.178830   -0.867028
     25          1           0        1.494947    1.803234   -0.603662
     26          1           0        2.550421    1.353912   -1.929312
     27          6           0        6.356971    0.990869    1.349679
     28          1           0        6.096449    2.055406    1.366086
     29          6           0        0.526599   -0.648507   -0.715818
     30          1           0        0.000000    0.000000    0.000000
     31          6           0        1.962625   -0.094051    1.948213
     32          1           0        2.537901   -0.078308    2.877577
     33          1           0        1.602090    0.924616    1.776304
     34          1           0        1.084564   -0.724117    2.124149
     35          6           0        7.524041   -0.301556    3.177693
     36          6           0        7.098710   -2.770228    3.304567
     37          1           0        7.478910   -2.983613    2.295815
     38          1           0        6.342156   -3.533039    3.517451
     39          6           0        7.469565    0.734138    2.324010
     40          1           0        8.300688    1.437882    2.288205
     41          6           0        5.653730   -1.138217    4.614404
     42          1           0        4.981203   -1.973267    4.832286
     43          1           0        6.335962   -1.045277    5.463027
     44          1           0        5.059509   -0.220200    4.577248
     45          6           0        8.714536   -0.453805    4.106671
     46          1           0        9.476536    0.295629    3.871237
     47          1           0        8.401691   -0.269029    5.146742
     48          6           0        8.260718   -2.917377    4.298712
     49          1           0        7.896868   -2.823687    5.332593
     50          1           0        8.704374   -3.915681    4.211884
     51          6           0       -0.002953   -0.296482   -2.140164
     52          1           0        0.736770    0.308460   -2.674330
     53          1           0       -0.102537   -1.223054   -2.723668
     54          6           0        9.334404   -1.858409    4.049921
     55          1           0        9.769233   -2.014964    3.055009
     56          6           0        0.177165   -2.109127   -0.374290
     57          1           0        0.778491   -2.803271   -0.974512
     58          1           0       -0.874999   -2.317850   -0.589925
     59          1           0        0.346598   -2.345531    0.679333
     60          6           0       -1.337439    0.473382   -2.180772
     61          1           0       -1.212351    1.412058   -1.624999
     62          1           0       -1.536484    0.761615   -3.223169
     63          6           0       -2.560175   -0.288801   -1.647769
     64          1           0       -2.431669   -0.508712   -0.578112
     65          1           0       -2.614080   -1.262208   -2.156454
     66          6           0       -3.910595    0.432987   -1.838639
     67          1           0       -4.005856    0.681166   -2.907192
     68          6           0       -3.997119    1.744578   -1.041175
     69          1           0       -3.878816    1.553783    0.033581
     70          1           0       -4.970320    2.227188   -1.186530
     71          1           0       -3.226291    2.461737   -1.340074
     72          6           0       -5.076575   -0.497692   -1.468964
     73          1           0       -5.030204   -0.780307   -0.409316
     74          1           0       -6.043833   -0.011461   -1.639930
     75          1           0       -5.055249   -1.420159   -2.060549
 ---------------------------------------------------------------------
 Rotational constants (GHZ):      0.4851067      0.0551242      0.0526059
 Leave Link  202 at Thu May 18 12:39:33 2017, MaxMem=   33554432 cpu:       0.2
 (Enter /scratch/michal/g09/l301.exe)
 Standard basis: 6-31G(d) (6D, 7F)
 Ernie: Thresh=  0.10000D-02 Tol=  0.10000D-05 Strict=F.
 AO basis set in the form of general basis input (Overlap normalization):
      1 0
 S   6 1.00       0.000000000000
      0.5484671660D+04  0.1831074430D-02
      0.8252349460D+03  0.1395017220D-01
      0.1880469580D+03  0.6844507810D-01
      0.5296450000D+02  0.2327143360D+00
      0.1689757040D+02  0.4701928980D+00
      0.5799635340D+01  0.3585208530D+00
 SP   3 1.00       0.000000000000
      0.1553961625D+02 -0.1107775495D+00  0.7087426823D-01
      0.3599933586D+01 -0.1480262627D+00  0.3397528391D+00
      0.1013761750D+01  0.1130767015D+01  0.7271585773D+00
 SP   1 1.00       0.000000000000
      0.2700058226D+00  0.1000000000D+01  0.1000000000D+01
 D   1 1.00       0.000000000000
      0.8000000000D+00  0.1000000000D+01
 ****
      2 0
 S   3 1.00       0.000000000000
      0.1873113696D+02  0.3349460434D-01
      0.2825394365D+01  0.2347269535D+00
      0.6401216923D+00  0.8137573261D+00
 S   1 1.00       0.000000000000
      0.1612777588D+00  0.1000000000D+01
 ****
      3 0
 S   6 1.00       0.000000000000
      0.5484671660D+04  0.1831074430D-02
      0.8252349460D+03  0.1395017220D-01
      0.1880469580D+03  0.6844507810D-01
      0.5296450000D+02  0.2327143360D+00
      0.1689757040D+02  0.4701928980D+00
      0.5799635340D+01  0.3585208530D+00
 SP   3 1.00       0.000000000000
      0.1553961625D+02 -0.1107775495D+00  0.7087426823D-01
      0.3599933586D+01 -0.1480262627D+00  0.3397528391D+00
      0.1013761750D+01  0.1130767015D+01  0.7271585773D+00
 SP   1 1.00       0.000000000000
      0.2700058226D+00  0.1000000000D+01  0.1000000000D+01
 D   1 1.00       0.000000000000
      0.8000000000D+00  0.1000000000D+01
 ****
      4 0
 S   3 1.00       0.000000000000
      0.1873113696D+02  0.3349460434D-01
      0.2825394365D+01  0.2347269535D+00
      0.6401216923D+00  0.8137573261D+00
 S   1 1.00       0.000000000000
      0.1612777588D+00  0.1000000000D+01
 ****
      5 0
 S   6 1.00       0.000000000000
      0.3047524880D+04  0.1834737132D-02
      0.4573695180D+03  0.1403732281D-01
      0.1039486850D+03  0.6884262226D-01
      0.2921015530D+02  0.2321844432D+00
      0.9286662960D+01  0.4679413484D+00
      0.3163926960D+01  0.3623119853D+00
 SP   3 1.00       0.000000000000
      0.7868272350D+01 -0.1193324198D+00  0.6899906659D-01
      0.1881288540D+01 -0.1608541517D+00  0.3164239610D+00
      0.5442492580D+00  0.1143456438D+01  0.7443082909D+00
 SP   1 1.00       0.000000000000
      0.1687144782D+00  0.1000000000D+01  0.1000000000D+01
 D   1 1.00       0.000000000000
      0.8000000000D+00  0.1000000000D+01
 ****
      6 0
 S   6 1.00       0.000000000000
      0.3047524880D+04  0.1834737132D-02
      0.4573695180D+03  0.1403732281D-01
      0.1039486850D+03  0.6884262226D-01
      0.2921015530D+02  0.2321844432D+00
      0.9286662960D+01  0.4679413484D+00
      0.3163926960D+01  0.3623119853D+00
 SP   3 1.00       0.000000000000
      0.7868272350D+01 -0.1193324198D+00  0.6899906659D-01
      0.1881288540D+01 -0.1608541517D+00  0.3164239610D+00
      0.5442492580D+00  0.1143456438D+01  0.7443082909D+00
 SP   1 1.00       0.000000000000
      0.1687144782D+00  0.1000000000D+01  0.1000000000D+01
 D   1 1.00       0.000000000000
      0.8000000000D+00  0.1000000000D+01
 ****
      7 0
 S   3 1.00       0.000000000000
      0.1873113696D+02  0.3349460434D-01
      0.2825394365D+01  0.2347269535D+00
      0.6401216923D+00  0.8137573261D+00
 S   1 1.00       0.000000000000
      0.1612777588D+00  0.1000000000D+01
 ****
      8 0
 S   6 1.00       0.000000000000
      0.3047524880D+04  0.1834737132D-02
      0.4573695180D+03  0.1403732281D-01
      0.1039486850D+03  0.6884262226D-01
      0.2921015530D+02  0.2321844432D+00
      0.9286662960D+01  0.4679413484D+00
      0.3163926960D+01  0.3623119853D+00
 SP   3 1.00       0.000000000000
      0.7868272350D+01 -0.1193324198D+00  0.6899906659D-01
      0.1881288540D+01 -0.1608541517D+00  0.3164239610D+00
      0.5442492580D+00  0.1143456438D+01  0.7443082909D+00
 SP   1 1.00       0.000000000000
      0.1687144782D+00  0.1000000000D+01  0.1000000000D+01
 D   1 1.00       0.000000000000
      0.8000000000D+00  0.1000000000D+01
 ****
      9 0
 S   3 1.00       0.000000000000
      0.1873113696D+02  0.3349460434D-01
      0.2825394365D+01  0.2347269535D+00
      0.6401216923D+00  0.8137573261D+00
 S   1 1.00       0.000000000000
      0.1612777588D+00  0.1000000000D+01
 ****
     10 0
 S   6 1.00       0.000000000000
      0.3047524880D+04  0.1834737132D-02
      0.4573695180D+03  0.1403732281D-01
      0.1039486850D+03  0.6884262226D-01
      0.2921015530D+02  0.2321844432D+00
      0.9286662960D+01  0.4679413484D+00
      0.3163926960D+01  0.3623119853D+00
 SP   3 1.00       0.000000000000
      0.7868272350D+01 -0.1193324198D+00  0.6899906659D-01
      0.1881288540D+01 -0.1608541517D+00  0.3164239610D+00
      0.5442492580D+00  0.1143456438D+01  0.7443082909D+00
 SP   1 1.00       0.000000000000
      0.1687144782D+00  0.1000000000D+01  0.1000000000D+01
 D   1 1.00       0.000000000000
      0.8000000000D+00  0.1000000000D+01
 ****
     11 0
 S   3 1.00       0.000000000000
      0.1873113696D+02  0.3349460434D-01
      0.2825394365D+01  0.2347269535D+00
      0.6401216923D+00  0.8137573261D+00
 S   1 1.00       0.000000000000
      0.1612777588D+00  0.1000000000D+01
 ****
     12 0
 S   6 1.00       0.000000000000
      0.3047524880D+04  0.1834737132D-02
      0.4573695180D+03  0.1403732281D-01
      0.1039486850D+03  0.6884262226D-01
      0.2921015530D+02  0.2321844432D+00
      0.9286662960D+01  0.4679413484D+00
      0.3163926960D+01  0.3623119853D+00
 SP   3 1.00       0.000000000000
      0.7868272350D+01 -0.1193324198D+00  0.6899906659D-01
      0.1881288540D+01 -0.1608541517D+00  0.3164239610D+00
      0.5442492580D+00  0.1143456438D+01  0.7443082909D+00
 SP   1 1.00       0.000000000000
      0.1687144782D+00  0.1000000000D+01  0.1000000000D+01
 D   1 1.00       0.000000000000
      0.8000000000D+00  0.1000000000D+01
 ****
     13 0
 S   3 1.00       0.000000000000
      0.1873113696D+02  0.3349460434D-01
      0.2825394365D+01  0.2347269535D+00
      0.6401216923D+00  0.8137573261D+00
 S   1 1.00       0.000000000000
      0.1612777588D+00  0.1000000000D+01
 ****
     14 0
 S   6 1.00       0.000000000000
      0.3047524880D+04  0.1834737132D-02
      0.4573695180D+03  0.1403732281D-01
      0.1039486850D+03  0.6884262226D-01
      0.2921015530D+02  0.2321844432D+00
      0.9286662960D+01  0.4679413484D+00
      0.3163926960D+01  0.3623119853D+00
 SP   3 1.00       0.000000000000
      0.7868272350D+01 -0.1193324198D+00  0.6899906659D-01
      0.1881288540D+01 -0.1608541517D+00  0.3164239610D+00
      0.5442492580D+00  0.1143456438D+01  0.7443082909D+00
 SP   1 1.00       0.000000000000
      0.1687144782D+00  0.1000000000D+01  0.1000000000D+01
 D   1 1.00       0.000000000000
      0.8000000000D+00  0.1000000000D+01
 ****
     15 0
 S   3 1.00       0.000000000000
      0.1873113696D+02  0.3349460434D-01
      0.2825394365D+01  0.2347269535D+00
      0.6401216923D+00  0.8137573261D+00
 S   1 1.00       0.000000000000
      0.1612777588D+00  0.1000000000D+01
 ****
     16 0
 S   3 1.00       0.000000000000
      0.1873113696D+02  0.3349460434D-01
      0.2825394365D+01  0.2347269535D+00
      0.6401216923D+00  0.8137573261D+00
 S   1 1.00       0.000000000000
      0.1612777588D+00  0.1000000000D+01
 ****
     17 0
 S   6 1.00       0.000000000000
      0.3047524880D+04  0.1834737132D-02
      0.4573695180D+03  0.1403732281D-01
      0.1039486850D+03  0.6884262226D-01
      0.2921015530D+02  0.2321844432D+00
      0.9286662960D+01  0.4679413484D+00
      0.3163926960D+01  0.3623119853D+00
 SP   3 1.00       0.000000000000
      0.7868272350D+01 -0.1193324198D+00  0.6899906659D-01
      0.1881288540D+01 -0.1608541517D+00  0.3164239610D+00
      0.5442492580D+00  0.1143456438D+01  0.7443082909D+00
 SP   1 1.00       0.000000000000
      0.1687144782D+00  0.1000000000D+01  0.1000000000D+01
 D   1 1.00       0.000000000000
      0.8000000000D+00  0.1000000000D+01
 ****
     18 0
 S   6 1.00       0.000000000000
      0.3047524880D+04  0.1834737132D-02
      0.4573695180D+03  0.1403732281D-01
      0.1039486850D+03  0.6884262226D-01
      0.2921015530D+02  0.2321844432D+00
      0.9286662960D+01  0.4679413484D+00
      0.3163926960D+01  0.3623119853D+00
 SP   3 1.00       0.000000000000
      0.7868272350D+01 -0.1193324198D+00  0.6899906659D-01
      0.1881288540D+01 -0.1608541517D+00  0.3164239610D+00
      0.5442492580D+00  0.1143456438D+01  0.7443082909D+00
 SP   1 1.00       0.000000000000
      0.1687144782D+00  0.1000000000D+01  0.1000000000D+01
 D   1 1.00       0.000000000000
      0.8000000000D+00  0.1000000000D+01
 ****
     19 0
 S   3 1.00       0.000000000000
      0.1873113696D+02  0.3349460434D-01
      0.2825394365D+01  0.2347269535D+00
      0.6401216923D+00  0.8137573261D+00
 S   1 1.00       0.000000000000
      0.1612777588D+00  0.1000000000D+01
 ****
     20 0
 S   3 1.00       0.000000000000
      0.1873113696D+02  0.3349460434D-01
      0.2825394365D+01  0.2347269535D+00
      0.6401216923D+00  0.8137573261D+00
 S   1 1.00       0.000000000000
      0.1612777588D+00  0.1000000000D+01
 ****
     21 0
 S   6 1.00       0.000000000000
      0.3047524880D+04  0.1834737132D-02
      0.4573695180D+03  0.1403732281D-01
      0.1039486850D+03  0.6884262226D-01
      0.2921015530D+02  0.2321844432D+00
      0.9286662960D+01  0.4679413484D+00
      0.3163926960D+01  0.3623119853D+00
 SP   3 1.00       0.000000000000
      0.7868272350D+01 -0.1193324198D+00  0.6899906659D-01
      0.1881288540D+01 -0.1608541517D+00  0.3164239610D+00
      0.5442492580D+00  0.1143456438D+01  0.7443082909D+00
 SP   1 1.00       0.000000000000
      0.1687144782D+00  0.1000000000D+01  0.1000000000D+01
 D   1 1.00       0.000000000000
      0.8000000000D+00  0.1000000000D+01
 ****
     22 0
 S   3 1.00       0.000000000000
      0.1873113696D+02  0.3349460434D-01
      0.2825394365D+01  0.2347269535D+00
      0.6401216923D+00  0.8137573261D+00
 S   1 1.00       0.000000000000
      0.1612777588D+00  0.1000000000D+01
 ****
     23 0
 S   3 1.00       0.000000000000
      0.1873113696D+02  0.3349460434D-01
      0.2825394365D+01  0.2347269535D+00
      0.6401216923D+00  0.8137573261D+00
 S   1 1.00       0.000000000000
      0.1612777588D+00  0.1000000000D+01
 ****
     24 0
 S   6 1.00       0.000000000000
      0.3047524880D+04  0.1834737132D-02
      0.4573695180D+03  0.1403732281D-01
      0.1039486850D+03  0.6884262226D-01
      0.2921015530D+02  0.2321844432D+00
      0.9286662960D+01  0.4679413484D+00
      0.3163926960D+01  0.3623119853D+00
 SP   3 1.00       0.000000000000
      0.7868272350D+01 -0.1193324198D+00  0.6899906659D-01
      0.1881288540D+01 -0.1608541517D+00  0.3164239610D+00
      0.5442492580D+00  0.1143456438D+01  0.7443082909D+00
 SP   1 1.00       0.000000000000
      0.1687144782D+00  0.1000000000D+01  0.1000000000D+01
 D   1 1.00       0.000000000000
      0.8000000000D+00  0.1000000000D+01
 ****
     25 0
 S   3 1.00       0.000000000000
      0.1873113696D+02  0.3349460434D-01
      0.2825394365D+01  0.2347269535D+00
      0.6401216923D+00  0.8137573261D+00
 S   1 1.00       0.000000000000
      0.1612777588D+00  0.1000000000D+01
 ****
     26 0
 S   3 1.00       0.000000000000
      0.1873113696D+02  0.3349460434D-01
      0.2825394365D+01  0.2347269535D+00
      0.6401216923D+00  0.8137573261D+00
 S   1 1.00       0.000000000000
      0.1612777588D+00  0.1000000000D+01
 ****
     27 0
 S   6 1.00       0.000000000000
      0.3047524880D+04  0.1834737132D-02
      0.4573695180D+03  0.1403732281D-01
      0.1039486850D+03  0.6884262226D-01
      0.2921015530D+02  0.2321844432D+00
      0.9286662960D+01  0.4679413484D+00
      0.3163926960D+01  0.3623119853D+00
 SP   3 1.00       0.000000000000
      0.7868272350D+01 -0.1193324198D+00  0.6899906659D-01
      0.1881288540D+01 -0.1608541517D+00  0.3164239610D+00
      0.5442492580D+00  0.1143456438D+01  0.7443082909D+00
 SP   1 1.00       0.000000000000
      0.1687144782D+00  0.1000000000D+01  0.1000000000D+01
 D   1 1.00       0.000000000000
      0.8000000000D+00  0.1000000000D+01
 ****
     28 0
 S   3 1.00       0.000000000000
      0.1873113696D+02  0.3349460434D-01
      0.2825394365D+01  0.2347269535D+00
      0.6401216923D+00  0.8137573261D+00
 S   1 1.00       0.000000000000
      0.1612777588D+00  0.1000000000D+01
 ****
     29 0
 S   6 1.00       0.000000000000
      0.3047524880D+04  0.1834737132D-02
      0.4573695180D+03  0.1403732281D-01
      0.1039486850D+03  0.6884262226D-01
      0.2921015530D+02  0.2321844432D+00
      0.9286662960D+01  0.4679413484D+00
      0.3163926960D+01  0.3623119853D+00
 SP   3 1.00       0.000000000000
      0.7868272350D+01 -0.1193324198D+00  0.6899906659D-01
      0.1881288540D+01 -0.1608541517D+00  0.3164239610D+00
      0.5442492580D+00  0.1143456438D+01  0.7443082909D+00
 SP   1 1.00       0.000000000000
      0.1687144782D+00  0.1000000000D+01  0.1000000000D+01
 D   1 1.00       0.000000000000
      0.8000000000D+00  0.1000000000D+01
 ****
     30 0
 S   3 1.00       0.000000000000
      0.1873113696D+02  0.3349460434D-01
      0.2825394365D+01  0.2347269535D+00
      0.6401216923D+00  0.8137573261D+00
 S   1 1.00       0.000000000000
      0.1612777588D+00  0.1000000000D+01
 ****
     31 0
 S   6 1.00       0.000000000000
      0.3047524880D+04  0.1834737132D-02
      0.4573695180D+03  0.1403732281D-01
      0.1039486850D+03  0.6884262226D-01
      0.2921015530D+02  0.2321844432D+00
      0.9286662960D+01  0.4679413484D+00
      0.3163926960D+01  0.3623119853D+00
 SP   3 1.00       0.000000000000
      0.7868272350D+01 -0.1193324198D+00  0.6899906659D-01
      0.1881288540D+01 -0.1608541517D+00  0.3164239610D+00
      0.5442492580D+00  0.1143456438D+01  0.7443082909D+00
 SP   1 1.00       0.000000000000
      0.1687144782D+00  0.1000000000D+01  0.1000000000D+01
 D   1 1.00       0.000000000000
      0.8000000000D+00  0.1000000000D+01
 ****
     32 0
 S   3 1.00       0.000000000000
      0.1873113696D+02  0.3349460434D-01
      0.2825394365D+01  0.2347269535D+00
      0.6401216923D+00  0.8137573261D+00
 S   1 1.00       0.000000000000
      0.1612777588D+00  0.1000000000D+01
 ****
     33 0
 S   3 1.00       0.000000000000
      0.1873113696D+02  0.3349460434D-01
      0.2825394365D+01  0.2347269535D+00
      0.6401216923D+00  0.8137573261D+00
 S   1 1.00       0.000000000000
      0.1612777588D+00  0.1000000000D+01
 ****
     34 0
 S   3 1.00       0.000000000000
      0.1873113696D+02  0.3349460434D-01
      0.2825394365D+01  0.2347269535D+00
      0.6401216923D+00  0.8137573261D+00
 S   1 1.00       0.000000000000
      0.1612777588D+00  0.1000000000D+01
 ****
     35 0
 S   6 1.00       0.000000000000
      0.3047524880D+04  0.1834737132D-02
      0.4573695180D+03  0.1403732281D-01
      0.1039486850D+03  0.6884262226D-01
      0.2921015530D+02  0.2321844432D+00
      0.9286662960D+01  0.4679413484D+00
      0.3163926960D+01  0.3623119853D+00
 SP   3 1.00       0.000000000000
      0.7868272350D+01 -0.1193324198D+00  0.6899906659D-01
      0.1881288540D+01 -0.1608541517D+00  0.3164239610D+00
      0.5442492580D+00  0.1143456438D+01  0.7443082909D+00
 SP   1 1.00       0.000000000000
      0.1687144782D+00  0.1000000000D+01  0.1000000000D+01
 D   1 1.00       0.000000000000
      0.8000000000D+00  0.1000000000D+01
 ****
     36 0
 S   6 1.00       0.000000000000
      0.3047524880D+04  0.1834737132D-02
      0.4573695180D+03  0.1403732281D-01
      0.1039486850D+03  0.6884262226D-01
      0.2921015530D+02  0.2321844432D+00
      0.9286662960D+01  0.4679413484D+00
      0.3163926960D+01  0.3623119853D+00
 SP   3 1.00       0.000000000000
      0.7868272350D+01 -0.1193324198D+00  0.6899906659D-01
      0.1881288540D+01 -0.1608541517D+00  0.3164239610D+00
      0.5442492580D+00  0.1143456438D+01  0.7443082909D+00
 SP   1 1.00       0.000000000000
      0.1687144782D+00  0.1000000000D+01  0.1000000000D+01
 D   1 1.00       0.000000000000
      0.8000000000D+00  0.1000000000D+01
 ****
     37 0
 S   3 1.00       0.000000000000
      0.1873113696D+02  0.3349460434D-01
      0.2825394365D+01  0.2347269535D+00
      0.6401216923D+00  0.8137573261D+00
 S   1 1.00       0.000000000000
      0.1612777588D+00  0.1000000000D+01
 ****
     38 0
 S   3 1.00       0.000000000000
      0.1873113696D+02  0.3349460434D-01
      0.2825394365D+01  0.2347269535D+00
      0.6401216923D+00  0.8137573261D+00
 S   1 1.00       0.000000000000
      0.1612777588D+00  0.1000000000D+01
 ****
     39 0
 S   6 1.00       0.000000000000
      0.3047524880D+04  0.1834737132D-02
      0.4573695180D+03  0.1403732281D-01
      0.1039486850D+03  0.6884262226D-01
      0.2921015530D+02  0.2321844432D+00
      0.9286662960D+01  0.4679413484D+00
      0.3163926960D+01  0.3623119853D+00
 SP   3 1.00       0.000000000000
      0.7868272350D+01 -0.1193324198D+00  0.6899906659D-01
      0.1881288540D+01 -0.1608541517D+00  0.3164239610D+00
      0.5442492580D+00  0.1143456438D+01  0.7443082909D+00
 SP   1 1.00       0.000000000000
      0.1687144782D+00  0.1000000000D+01  0.1000000000D+01
 D   1 1.00       0.000000000000
      0.8000000000D+00  0.1000000000D+01
 ****
     40 0
 S   3 1.00       0.000000000000
      0.1873113696D+02  0.3349460434D-01
      0.2825394365D+01  0.2347269535D+00
      0.6401216923D+00  0.8137573261D+00
 S   1 1.00       0.000000000000
      0.1612777588D+00  0.1000000000D+01
 ****
     41 0
 S   6 1.00       0.000000000000
      0.3047524880D+04  0.1834737132D-02
      0.4573695180D+03  0.1403732281D-01
      0.1039486850D+03  0.6884262226D-01
      0.2921015530D+02  0.2321844432D+00
      0.9286662960D+01  0.4679413484D+00
      0.3163926960D+01  0.3623119853D+00
 SP   3 1.00       0.000000000000
      0.7868272350D+01 -0.1193324198D+00  0.6899906659D-01
      0.1881288540D+01 -0.1608541517D+00  0.3164239610D+00
      0.5442492580D+00  0.1143456438D+01  0.7443082909D+00
 SP   1 1.00       0.000000000000
      0.1687144782D+00  0.1000000000D+01  0.1000000000D+01
 D   1 1.00       0.000000000000
      0.8000000000D+00  0.1000000000D+01
 ****
     42 0
 S   3 1.00       0.000000000000
      0.1873113696D+02  0.3349460434D-01
      0.2825394365D+01  0.2347269535D+00
      0.6401216923D+00  0.8137573261D+00
 S   1 1.00       0.000000000000
      0.1612777588D+00  0.1000000000D+01
 ****
     43 0
 S   3 1.00       0.000000000000
      0.1873113696D+02  0.3349460434D-01
      0.2825394365D+01  0.2347269535D+00
      0.6401216923D+00  0.8137573261D+00
 S   1 1.00       0.000000000000
      0.1612777588D+00  0.1000000000D+01
 ****
     44 0
 S   3 1.00       0.000000000000
      0.1873113696D+02  0.3349460434D-01
      0.2825394365D+01  0.2347269535D+00
      0.6401216923D+00  0.8137573261D+00
 S   1 1.00       0.000000000000
      0.1612777588D+00  0.1000000000D+01
 ****
     45 0
 S   6 1.00       0.000000000000
      0.3047524880D+04  0.1834737132D-02
      0.4573695180D+03  0.1403732281D-01
      0.1039486850D+03  0.6884262226D-01
      0.2921015530D+02  0.2321844432D+00
      0.9286662960D+01  0.4679413484D+00
      0.3163926960D+01  0.3623119853D+00
 SP   3 1.00       0.000000000000
      0.7868272350D+01 -0.1193324198D+00  0.6899906659D-01
      0.1881288540D+01 -0.1608541517D+00  0.3164239610D+00
      0.5442492580D+00  0.1143456438D+01  0.7443082909D+00
 SP   1 1.00       0.000000000000
      0.1687144782D+00  0.1000000000D+01  0.1000000000D+01
 D   1 1.00       0.000000000000
      0.8000000000D+00  0.1000000000D+01
 ****
     46 0
 S   3 1.00       0.000000000000
      0.1873113696D+02  0.3349460434D-01
      0.2825394365D+01  0.2347269535D+00
      0.6401216923D+00  0.8137573261D+00
 S   1 1.00       0.000000000000
      0.1612777588D+00  0.1000000000D+01
 ****
     47 0
 S   3 1.00       0.000000000000
      0.1873113696D+02  0.3349460434D-01
      0.2825394365D+01  0.2347269535D+00
      0.6401216923D+00  0.8137573261D+00
 S   1 1.00       0.000000000000
      0.1612777588D+00  0.1000000000D+01
 ****
     48 0
 S   6 1.00       0.000000000000
      0.3047524880D+04  0.1834737132D-02
      0.4573695180D+03  0.1403732281D-01
      0.1039486850D+03  0.6884262226D-01
      0.2921015530D+02  0.2321844432D+00
      0.9286662960D+01  0.4679413484D+00
      0.3163926960D+01  0.3623119853D+00
 SP   3 1.00       0.000000000000
      0.7868272350D+01 -0.1193324198D+00  0.6899906659D-01
      0.1881288540D+01 -0.1608541517D+00  0.3164239610D+00
      0.5442492580D+00  0.1143456438D+01  0.7443082909D+00
 SP   1 1.00       0.000000000000
      0.1687144782D+00  0.1000000000D+01  0.1000000000D+01
 D   1 1.00       0.000000000000
      0.8000000000D+00  0.1000000000D+01
 ****
     49 0
 S   3 1.00       0.000000000000
      0.1873113696D+02  0.3349460434D-01
      0.2825394365D+01  0.2347269535D+00
      0.6401216923D+00  0.8137573261D+00
 S   1 1.00       0.000000000000
      0.1612777588D+00  0.1000000000D+01
 ****
     50 0
 S   3 1.00       0.000000000000
      0.1873113696D+02  0.3349460434D-01
      0.2825394365D+01  0.2347269535D+00
      0.6401216923D+00  0.8137573261D+00
 S   1 1.00       0.000000000000
      0.1612777588D+00  0.1000000000D+01
 ****
     51 0
 S   6 1.00       0.000000000000
      0.3047524880D+04  0.1834737132D-02
      0.4573695180D+03  0.1403732281D-01
      0.1039486850D+03  0.6884262226D-01
      0.2921015530D+02  0.2321844432D+00
      0.9286662960D+01  0.4679413484D+00
      0.3163926960D+01  0.3623119853D+00
 SP   3 1.00       0.000000000000
      0.7868272350D+01 -0.1193324198D+00  0.6899906659D-01
      0.1881288540D+01 -0.1608541517D+00  0.3164239610D+00
      0.5442492580D+00  0.1143456438D+01  0.7443082909D+00
 SP   1 1.00       0.000000000000
      0.1687144782D+00  0.1000000000D+01  0.1000000000D+01
 D   1 1.00       0.000000000000
      0.8000000000D+00  0.1000000000D+01
 ****
     52 0
 S   3 1.00       0.000000000000
      0.1873113696D+02  0.3349460434D-01
      0.2825394365D+01  0.2347269535D+00
      0.6401216923D+00  0.8137573261D+00
 S   1 1.00       0.000000000000
      0.1612777588D+00  0.1000000000D+01
 ****
     53 0
 S   3 1.00       0.000000000000
      0.1873113696D+02  0.3349460434D-01
      0.2825394365D+01  0.2347269535D+00
      0.6401216923D+00  0.8137573261D+00
 S   1 1.00       0.000000000000
      0.1612777588D+00  0.1000000000D+01
 ****
     54 0
 S   6 1.00       0.000000000000
      0.3047524880D+04  0.1834737132D-02
      0.4573695180D+03  0.1403732281D-01
      0.1039486850D+03  0.6884262226D-01
      0.2921015530D+02  0.2321844432D+00
      0.9286662960D+01  0.4679413484D+00
      0.3163926960D+01  0.3623119853D+00
 SP   3 1.00       0.000000000000
      0.7868272350D+01 -0.1193324198D+00  0.6899906659D-01
      0.1881288540D+01 -0.1608541517D+00  0.3164239610D+00
      0.5442492580D+00  0.1143456438D+01  0.7443082909D+00
 SP   1 1.00       0.000000000000
      0.1687144782D+00  0.1000000000D+01  0.1000000000D+01
 D   1 1.00       0.000000000000
      0.8000000000D+00  0.1000000000D+01
 ****
     55 0
 S   3 1.00       0.000000000000
      0.1873113696D+02  0.3349460434D-01
      0.2825394365D+01  0.2347269535D+00
      0.6401216923D+00  0.8137573261D+00
 S   1 1.00       0.000000000000
      0.1612777588D+00  0.1000000000D+01
 ****
     56 0
 S   6 1.00       0.000000000000
      0.3047524880D+04  0.1834737132D-02
      0.4573695180D+03  0.1403732281D-01
      0.1039486850D+03  0.6884262226D-01
      0.2921015530D+02  0.2321844432D+00
      0.9286662960D+01  0.4679413484D+00
      0.3163926960D+01  0.3623119853D+00
 SP   3 1.00       0.000000000000
      0.7868272350D+01 -0.1193324198D+00  0.6899906659D-01
      0.1881288540D+01 -0.1608541517D+00  0.3164239610D+00
      0.5442492580D+00  0.1143456438D+01  0.7443082909D+00
 SP   1 1.00       0.000000000000
      0.1687144782D+00  0.1000000000D+01  0.1000000000D+01
 D   1 1.00       0.000000000000
      0.8000000000D+00  0.1000000000D+01
 ****
     57 0
 S   3 1.00       0.000000000000
      0.1873113696D+02  0.3349460434D-01
      0.2825394365D+01  0.2347269535D+00
      0.6401216923D+00  0.8137573261D+00
 S   1 1.00       0.000000000000
      0.1612777588D+00  0.1000000000D+01
 ****
     58 0
 S   3 1.00       0.000000000000
      0.1873113696D+02  0.3349460434D-01
      0.2825394365D+01  0.2347269535D+00
      0.6401216923D+00  0.8137573261D+00
 S   1 1.00       0.000000000000
      0.1612777588D+00  0.1000000000D+01
 ****
     59 0
 S   3 1.00       0.000000000000
      0.1873113696D+02  0.3349460434D-01
      0.2825394365D+01  0.2347269535D+00
      0.6401216923D+00  0.8137573261D+00
 S   1 1.00       0.000000000000
      0.1612777588D+00  0.1000000000D+01
 ****
     60 0
 S   6 1.00       0.000000000000
      0.3047524880D+04  0.1834737132D-02
      0.4573695180D+03  0.1403732281D-01
      0.1039486850D+03  0.6884262226D-01
      0.2921015530D+02  0.2321844432D+00
      0.9286662960D+01  0.4679413484D+00
      0.3163926960D+01  0.3623119853D+00
 SP   3 1.00       0.000000000000
      0.7868272350D+01 -0.1193324198D+00  0.6899906659D-01
      0.1881288540D+01 -0.1608541517D+00  0.3164239610D+00
      0.5442492580D+00  0.1143456438D+01  0.7443082909D+00
 SP   1 1.00       0.000000000000
      0.1687144782D+00  0.1000000000D+01  0.1000000000D+01
 D   1 1.00       0.000000000000
      0.8000000000D+00  0.1000000000D+01
 ****
     61 0
 S   3 1.00       0.000000000000
      0.1873113696D+02  0.3349460434D-01
      0.2825394365D+01  0.2347269535D+00
      0.6401216923D+00  0.8137573261D+00
 S   1 1.00       0.000000000000
      0.1612777588D+00  0.1000000000D+01
 ****
     62 0
 S   3 1.00       0.000000000000
      0.1873113696D+02  0.3349460434D-01
      0.2825394365D+01  0.2347269535D+00
      0.6401216923D+00  0.8137573261D+00
 S   1 1.00       0.000000000000
      0.1612777588D+00  0.1000000000D+01
 ****
     63 0
 S   6 1.00       0.000000000000
      0.3047524880D+04  0.1834737132D-02
      0.4573695180D+03  0.1403732281D-01
      0.1039486850D+03  0.6884262226D-01
      0.2921015530D+02  0.2321844432D+00
      0.9286662960D+01  0.4679413484D+00
      0.3163926960D+01  0.3623119853D+00
 SP   3 1.00       0.000000000000
      0.7868272350D+01 -0.1193324198D+00  0.6899906659D-01
      0.1881288540D+01 -0.1608541517D+00  0.3164239610D+00
      0.5442492580D+00  0.1143456438D+01  0.7443082909D+00
 SP   1 1.00       0.000000000000
      0.1687144782D+00  0.1000000000D+01  0.1000000000D+01
 D   1 1.00       0.000000000000
      0.8000000000D+00  0.1000000000D+01
 ****
     64 0
 S   3 1.00       0.000000000000
      0.1873113696D+02  0.3349460434D-01
      0.2825394365D+01  0.2347269535D+00
      0.6401216923D+00  0.8137573261D+00
 S   1 1.00       0.000000000000
      0.1612777588D+00  0.1000000000D+01
 ****
     65 0
 S   3 1.00       0.000000000000
      0.1873113696D+02  0.3349460434D-01
      0.2825394365D+01  0.2347269535D+00
      0.6401216923D+00  0.8137573261D+00
 S   1 1.00       0.000000000000
      0.1612777588D+00  0.1000000000D+01
 ****
     66 0
 S   6 1.00       0.000000000000
      0.3047524880D+04  0.1834737132D-02
      0.4573695180D+03  0.1403732281D-01
      0.1039486850D+03  0.6884262226D-01
      0.2921015530D+02  0.2321844432D+00
      0.9286662960D+01  0.4679413484D+00
      0.3163926960D+01  0.3623119853D+00
 SP   3 1.00       0.000000000000
      0.7868272350D+01 -0.1193324198D+00  0.6899906659D-01
      0.1881288540D+01 -0.1608541517D+00  0.3164239610D+00
      0.5442492580D+00  0.1143456438D+01  0.7443082909D+00
 SP   1 1.00       0.000000000000
      0.1687144782D+00  0.1000000000D+01  0.1000000000D+01
 D   1 1.00       0.000000000000
      0.8000000000D+00  0.1000000000D+01
 ****
     67 0
 S   3 1.00       0.000000000000
      0.1873113696D+02  0.3349460434D-01
      0.2825394365D+01  0.2347269535D+00
      0.6401216923D+00  0.8137573261D+00
 S   1 1.00       0.000000000000
      0.1612777588D+00  0.1000000000D+01
 ****
     68 0
 S   6 1.00       0.000000000000
      0.3047524880D+04  0.1834737132D-02
      0.4573695180D+03  0.1403732281D-01
      0.1039486850D+03  0.6884262226D-01
      0.2921015530D+02  0.2321844432D+00
      0.9286662960D+01  0.4679413484D+00
      0.3163926960D+01  0.3623119853D+00
 SP   3 1.00       0.000000000000
      0.7868272350D+01 -0.1193324198D+00  0.6899906659D-01
      0.1881288540D+01 -0.1608541517D+00  0.3164239610D+00
      0.5442492580D+00  0.1143456438D+01  0.7443082909D+00
 SP   1 1.00       0.000000000000
      0.1687144782D+00  0.1000000000D+01  0.1000000000D+01
 D   1 1.00       0.000000000000
      0.8000000000D+00  0.1000000000D+01
 ****
     69 0
 S   3 1.00       0.000000000000
      0.1873113696D+02  0.3349460434D-01
      0.2825394365D+01  0.2347269535D+00
      0.6401216923D+00  0.8137573261D+00
 S   1 1.00       0.000000000000
      0.1612777588D+00  0.1000000000D+01
 ****
     70 0
 S   3 1.00       0.000000000000
      0.1873113696D+02  0.3349460434D-01
      0.2825394365D+01  0.2347269535D+00
      0.6401216923D+00  0.8137573261D+00
 S   1 1.00       0.000000000000
      0.1612777588D+00  0.1000000000D+01
 ****
     71 0
 S   3 1.00       0.000000000000
      0.1873113696D+02  0.3349460434D-01
      0.2825394365D+01  0.2347269535D+00
      0.6401216923D+00  0.8137573261D+00
 S   1 1.00       0.000000000000
      0.1612777588D+00  0.1000000000D+01
 ****
     72 0
 S   6 1.00       0.000000000000
      0.3047524880D+04  0.1834737132D-02
      0.4573695180D+03  0.1403732281D-01
      0.1039486850D+03  0.6884262226D-01
      0.2921015530D+02  0.2321844432D+00
      0.9286662960D+01  0.4679413484D+00
      0.3163926960D+01  0.3623119853D+00
 SP   3 1.00       0.000000000000
      0.7868272350D+01 -0.1193324198D+00  0.6899906659D-01
      0.1881288540D+01 -0.1608541517D+00  0.3164239610D+00
      0.5442492580D+00  0.1143456438D+01  0.7443082909D+00
 SP   1 1.00       0.000000000000
      0.1687144782D+00  0.1000000000D+01  0.1000000000D+01
 D   1 1.00       0.000000000000
      0.8000000000D+00  0.1000000000D+01
 ****
     73 0
 S   3 1.00       0.000000000000
      0.1873113696D+02  0.3349460434D-01
      0.2825394365D+01  0.2347269535D+00
      0.6401216923D+00  0.8137573261D+00
 S   1 1.00       0.000000000000
      0.1612777588D+00  0.1000000000D+01
 ****
     74 0
 S   3 1.00       0.000000000000
      0.1873113696D+02  0.3349460434D-01
      0.2825394365D+01  0.2347269535D+00
      0.6401216923D+00  0.8137573261D+00
 S   1 1.00       0.000000000000
      0.1612777588D+00  0.1000000000D+01
 ****
     75 0
 S   3 1.00       0.000000000000
      0.1873113696D+02  0.3349460434D-01
      0.2825394365D+01  0.2347269535D+00
      0.6401216923D+00  0.8137573261D+00
 S   1 1.00       0.000000000000
      0.1612777588D+00  0.1000000000D+01
 ****

 AO basis set (Overlap normalization):
 Atom O1       Shell     1 S   6     bf    1 -     1         12.919073665731          1.480533434324          0.000000000000
      0.5484671660D+04  0.1831074430D-02
      0.8252349460D+03  0.1395017220D-01
      0.1880469580D+03  0.6844507810D-01
      0.5296450000D+02  0.2327143360D+00
      0.1689757040D+02  0.4701928980D+00
      0.5799635340D+01  0.3585208530D+00
 Atom O1       Shell     2 SP   3    bf    2 -     5         12.919073665731          1.480533434324          0.000000000000
      0.1553961625D+02 -0.1107775495D+00  0.7087426823D-01
      0.3599933586D+01 -0.1480262627D+00  0.3397528391D+00
      0.1013761750D+01  0.1130767015D+01  0.7271585773D+00
 Atom O1       Shell     3 SP   1    bf    6 -     9         12.919073665731          1.480533434324          0.000000000000
      0.2700058226D+00  0.1000000000D+01  0.1000000000D+01
 Atom O1       Shell     4 D   1     bf   10 -    15         12.919073665731          1.480533434324          0.000000000000
      0.8000000000D+00  0.1000000000D+01
 Atom H2       Shell     5 S   3     bf   16 -    16         13.988752954278          0.000000000000          0.000000000000
      0.1873113696D+02  0.3349460434D-01
      0.2825394365D+01  0.2347269535D+00
      0.6401216923D+00  0.8137573261D+00
 Atom H2       Shell     6 S   1     bf   17 -    17         13.988752954278          0.000000000000          0.000000000000
      0.1612777588D+00  0.1000000000D+01
 Atom O3       Shell     7 S   6     bf   18 -    18         19.741036557177         -3.748661087059          9.334888804380
      0.5484671660D+04  0.1831074430D-02
      0.8252349460D+03  0.1395017220D-01
      0.1880469580D+03  0.6844507810D-01
      0.5296450000D+02  0.2327143360D+00
      0.1689757040D+02  0.4701928980D+00
      0.5799635340D+01  0.3585208530D+00
 Atom O3       Shell     8 SP   3    bf   19 -    22         19.741036557177         -3.748661087059          9.334888804380
      0.1553961625D+02 -0.1107775495D+00  0.7087426823D-01
      0.3599933586D+01 -0.1480262627D+00  0.3397528391D+00
      0.1013761750D+01  0.1130767015D+01  0.7271585773D+00
 Atom O3       Shell     9 SP   1    bf   23 -    26         19.741036557177         -3.748661087059          9.334888804380
      0.2700058226D+00  0.1000000000D+01  0.1000000000D+01
 Atom O3       Shell    10 D   1     bf   27 -    32         19.741036557177         -3.748661087059          9.334888804380
      0.8000000000D+00  0.1000000000D+01
 Atom H4       Shell    11 S   3     bf   33 -    33         19.144569579997         -3.543452608241         11.051052228009
      0.1873113696D+02  0.3349460434D-01
      0.2825394365D+01  0.2347269535D+00
      0.6401216923D+00  0.8137573261D+00
 Atom H4       Shell    12 S   1     bf   34 -    34         19.144569579997         -3.543452608241         11.051052228009
      0.1612777588D+00  0.1000000000D+01
 Atom C5       Shell    13 S   6     bf   35 -    35          5.268674566368         -1.177247413319          1.421885821585
      0.3047524880D+04  0.1834737132D-02
      0.4573695180D+03  0.1403732281D-01
      0.1039486850D+03  0.6884262226D-01
      0.2921015530D+02  0.2321844432D+00
      0.9286662960D+01  0.4679413484D+00
      0.3163926960D+01  0.3623119853D+00
 Atom C5       Shell    14 SP   3    bf   36 -    39          5.268674566368         -1.177247413319          1.421885821585
      0.7868272350D+01 -0.1193324198D+00  0.6899906659D-01
      0.1881288540D+01 -0.1608541517D+00  0.3164239610D+00
      0.5442492580D+00  0.1143456438D+01  0.7443082909D+00
 Atom C5       Shell    15 SP   1    bf   40 -    43          5.268674566368         -1.177247413319          1.421885821585
      0.1687144782D+00  0.1000000000D+01  0.1000000000D+01
 Atom C5       Shell    16 D   1     bf   44 -    49          5.268674566368         -1.177247413319          1.421885821585
      0.8000000000D+00  0.1000000000D+01
 Atom C6       Shell    17 S   6     bf   50 -    50          7.725813174935          0.367933816573          0.976023951175
      0.3047524880D+04  0.1834737132D-02
      0.4573695180D+03  0.1403732281D-01
      0.1039486850D+03  0.6884262226D-01
      0.2921015530D+02  0.2321844432D+00
      0.9286662960D+01  0.4679413484D+00
      0.3163926960D+01  0.3623119853D+00
 Atom C6       Shell    18 SP   3    bf   51 -    54          7.725813174935          0.367933816573          0.976023951175
      0.7868272350D+01 -0.1193324198D+00  0.6899906659D-01
      0.1881288540D+01 -0.1608541517D+00  0.3164239610D+00
      0.5442492580D+00  0.1143456438D+01  0.7443082909D+00
 Atom C6       Shell    19 SP   1    bf   55 -    58          7.725813174935          0.367933816573          0.976023951175
      0.1687144782D+00  0.1000000000D+01  0.1000000000D+01
 Atom C6       Shell    20 D   1     bf   59 -    64          7.725813174935          0.367933816573          0.976023951175
      0.8000000000D+00  0.1000000000D+01
 Atom H7       Shell    21 S   3     bf   65 -    65          8.682890524032         -0.558002074176         -0.618549088446
      0.1873113696D+02  0.3349460434D-01
      0.2825394365D+01  0.2347269535D+00
      0.6401216923D+00  0.8137573261D+00
 Atom H7       Shell    22 S   1     bf   66 -    66          8.682890524032         -0.558002074176         -0.618549088446
      0.1612777588D+00  0.1000000000D+01
 Atom C8       Shell    23 S   6     bf   67 -    67          9.619416458928          0.325433743564          3.169619898161
      0.3047524880D+04  0.1834737132D-02
      0.4573695180D+03  0.1403732281D-01
      0.1039486850D+03  0.6884262226D-01
      0.2921015530D+02  0.2321844432D+00
      0.9286662960D+01  0.4679413484D+00
      0.3163926960D+01  0.3623119853D+00
 Atom C8       Shell    24 SP   3    bf   68 -    71          9.619416458928          0.325433743564          3.169619898161
      0.7868272350D+01 -0.1193324198D+00  0.6899906659D-01
      0.1881288540D+01 -0.1608541517D+00  0.3164239610D+00
      0.5442492580D+00  0.1143456438D+01  0.7443082909D+00
 Atom C8       Shell    25 SP   1    bf   72 -    75          9.619416458928          0.325433743564          3.169619898161
      0.1687144782D+00  0.1000000000D+01  0.1000000000D+01
 Atom C8       Shell    26 D   1     bf   76 -    81          9.619416458928          0.325433743564          3.169619898161
      0.8000000000D+00  0.1000000000D+01
 Atom H9       Shell    27 S   3     bf   82 -    82          8.763606056196          1.246020405446          4.824377389197
      0.1873113696D+02  0.3349460434D-01
      0.2825394365D+01  0.2347269535D+00
      0.6401216923D+00  0.8137573261D+00
 Atom H9       Shell    28 S   1     bf   83 -    83          8.763606056196          1.246020405446          4.824377389197
      0.1612777588D+00  0.1000000000D+01
 Atom C10      Shell    29 S   6     bf   84 -    84         10.326792199839         -2.430829784653          3.861798858354
      0.3047524880D+04  0.1834737132D-02
      0.4573695180D+03  0.1403732281D-01
      0.1039486850D+03  0.6884262226D-01
      0.2921015530D+02  0.2321844432D+00
      0.9286662960D+01  0.4679413484D+00
      0.3163926960D+01  0.3623119853D+00
 Atom C10      Shell    30 SP   3    bf   85 -    88         10.326792199839         -2.430829784653          3.861798858354
      0.7868272350D+01 -0.1193324198D+00  0.6899906659D-01
      0.1881288540D+01 -0.1608541517D+00  0.3164239610D+00
      0.5442492580D+00  0.1143456438D+01  0.7443082909D+00
 Atom C10      Shell    31 SP   1    bf   89 -    92         10.326792199839         -2.430829784653          3.861798858354
      0.1687144782D+00  0.1000000000D+01  0.1000000000D+01
 Atom C10      Shell    32 D   1     bf   93 -    98         10.326792199839         -2.430829784653          3.861798858354
      0.8000000000D+00  0.1000000000D+01
 Atom H11      Shell    33 S   3     bf   99 -    99         11.423414088651         -3.160313185929          2.246811655339
      0.1873113696D+02  0.3349460434D-01
      0.2825394365D+01  0.2347269535D+00
      0.6401216923D+00  0.8137573261D+00
 Atom H11      Shell    34 S   1     bf  100 -   100         11.423414088651         -3.160313185929          2.246811655339
      0.1612777588D+00  0.1000000000D+01
 Atom C12      Shell    35 S   6     bf  101 -   101          3.854182241587         -0.629236359002         -1.124555858302
      0.3047524880D+04  0.1834737132D-02
      0.4573695180D+03  0.1403732281D-01
      0.1039486850D+03  0.6884262226D-01
      0.2921015530D+02  0.2321844432D+00
      0.9286662960D+01  0.4679413484D+00
      0.3163926960D+01  0.3623119853D+00
 Atom C12      Shell    36 SP   3    bf  102 -   105          3.854182241587         -0.629236359002         -1.124555858302
      0.7868272350D+01 -0.1193324198D+00  0.6899906659D-01
      0.1881288540D+01 -0.1608541517D+00  0.3164239610D+00
      0.5442492580D+00  0.1143456438D+01  0.7443082909D+00
 Atom C12      Shell    37 SP   1    bf  106 -   109          3.854182241587         -0.629236359002         -1.124555858302
      0.1687144782D+00  0.1000000000D+01  0.1000000000D+01
 Atom C12      Shell    38 D   1     bf  110 -   115          3.854182241587         -0.629236359002         -1.124555858302
      0.8000000000D+00  0.1000000000D+01
 Atom H13      Shell    39 S   3     bf  116 -   116          4.825272646952         -1.760229966219         -2.577928315611
      0.1873113696D+02  0.3349460434D-01
      0.2825394365D+01  0.2347269535D+00
      0.6401216923D+00  0.8137573261D+00
 Atom H13      Shell    40 S   1     bf  117 -   117          4.825272646952         -1.760229966219         -2.577928315611
      0.1612777588D+00  0.1000000000D+01
 Atom C14      Shell    41 S   6     bf  118 -   118          6.101314961396         -3.933631109220          1.875162599395
      0.3047524880D+04  0.1834737132D-02
      0.4573695180D+03  0.1403732281D-01
      0.1039486850D+03  0.6884262226D-01
      0.2921015530D+02  0.2321844432D+00
      0.9286662960D+01  0.4679413484D+00
      0.3163926960D+01  0.3623119853D+00
 Atom C14      Shell    42 SP   3    bf  119 -   122          6.101314961396         -3.933631109220          1.875162599395
      0.7868272350D+01 -0.1193324198D+00  0.6899906659D-01
      0.1881288540D+01 -0.1608541517D+00  0.3164239610D+00
      0.5442492580D+00  0.1143456438D+01  0.7443082909D+00
 Atom C14      Shell    43 SP   1    bf  123 -   126          6.101314961396         -3.933631109220          1.875162599395
      0.1687144782D+00  0.1000000000D+01  0.1000000000D+01
 Atom C14      Shell    44 D   1     bf  127 -   132          6.101314961396         -3.933631109220          1.875162599395
      0.8000000000D+00  0.1000000000D+01
 Atom H15      Shell    45 S   3     bf  133 -   133          6.997441405057         -4.648312947102          0.142046537114
      0.1873113696D+02  0.3349460434D-01
      0.2825394365D+01  0.2347269535D+00
      0.6401216923D+00  0.8137573261D+00
 Atom H15      Shell    46 S   1     bf  134 -   134          6.997441405057         -4.648312947102          0.142046537114
      0.1612777588D+00  0.1000000000D+01
 Atom H16      Shell    47 S   3     bf  135 -   135          4.490289002301         -5.173476626657          2.257860846244
      0.1873113696D+02  0.3349460434D-01
      0.2825394365D+01  0.2347269535D+00
      0.6401216923D+00  0.8137573261D+00
 Atom H16      Shell    48 S   1     bf  136 -   136          4.490289002301         -5.173476626657          2.257860846244
      0.1612777588D+00  0.1000000000D+01
 Atom C17      Shell    49 S   6     bf  137 -   137         12.136663325151         -2.578385251390          6.205636782336
      0.3047524880D+04  0.1834737132D-02
      0.4573695180D+03  0.1403732281D-01
      0.1039486850D+03  0.6884262226D-01
      0.2921015530D+02  0.2321844432D+00
      0.9286662960D+01  0.4679413484D+00
      0.3163926960D+01  0.3623119853D+00
 Atom C17      Shell    50 SP   3    bf  138 -   141         12.136663325151         -2.578385251390          6.205636782336
      0.7868272350D+01 -0.1193324198D+00  0.6899906659D-01
      0.1881288540D+01 -0.1608541517D+00  0.3164239610D+00
      0.5442492580D+00  0.1143456438D+01  0.7443082909D+00
 Atom C17      Shell    51 SP   1    bf  142 -   145         12.136663325151         -2.578385251390          6.205636782336
      0.1687144782D+00  0.1000000000D+01  0.1000000000D+01
 Atom C17      Shell    52 D   1     bf  146 -   151         12.136663325151         -2.578385251390          6.205636782336
      0.8000000000D+00  0.1000000000D+01
 Atom C18      Shell    53 S   6     bf  152 -   152          6.800404857928          2.930004570929         -0.019565052750
      0.3047524880D+04  0.1834737132D-02
      0.4573695180D+03  0.1403732281D-01
      0.1039486850D+03  0.6884262226D-01
      0.2921015530D+02  0.2321844432D+00
      0.9286662960D+01  0.4679413484D+00
      0.3163926960D+01  0.3623119853D+00
 Atom C18      Shell    54 SP   3    bf  153 -   156          6.800404857928          2.930004570929         -0.019565052750
      0.7868272350D+01 -0.1193324198D+00  0.6899906659D-01
      0.1881288540D+01 -0.1608541517D+00  0.3164239610D+00
      0.5442492580D+00  0.1143456438D+01  0.7443082909D+00
 Atom C18      Shell    55 SP   1    bf  157 -   160          6.800404857928          2.930004570929         -0.019565052750
      0.1687144782D+00  0.1000000000D+01  0.1000000000D+01
 Atom C18      Shell    56 D   1     bf  161 -   166          6.800404857928          2.930004570929         -0.019565052750
      0.8000000000D+00  0.1000000000D+01
 Atom H19      Shell    57 S   3     bf  167 -   167          8.254559283910          3.900712061088         -1.121169506867
      0.1873113696D+02  0.3349460434D-01
      0.2825394365D+01  0.2347269535D+00
      0.6401216923D+00  0.8137573261D+00
 Atom H19      Shell    58 S   1     bf  168 -   168          8.254559283910          3.900712061088         -1.121169506867
      0.1612777588D+00  0.1000000000D+01
 Atom H20      Shell    59 S   3     bf  169 -   169          6.277325414016          4.188657549908          1.543759740100
      0.1873113696D+02  0.3349460434D-01
      0.2825394365D+01  0.2347269535D+00
      0.6401216923D+00  0.8137573261D+00
 Atom H20      Shell    60 S   1     bf  170 -   170          6.277325414016          4.188657549908          1.543759740100
      0.1612777588D+00  0.1000000000D+01
 Atom C21      Shell    61 S   6     bf  171 -   171          7.972138220466         -4.147403826873          4.099899211043
      0.3047524880D+04  0.1834737132D-02
      0.4573695180D+03  0.1403732281D-01
      0.1039486850D+03  0.6884262226D-01
      0.2921015530D+02  0.2321844432D+00
      0.9286662960D+01  0.4679413484D+00
      0.3163926960D+01  0.3623119853D+00
 Atom C21      Shell    62 SP   3    bf  172 -   175          7.972138220466         -4.147403826873          4.099899211043
      0.7868272350D+01 -0.1193324198D+00  0.6899906659D-01
      0.1881288540D+01 -0.1608541517D+00  0.3164239610D+00
      0.5442492580D+00  0.1143456438D+01  0.7443082909D+00
 Atom C21      Shell    63 SP   1    bf  176 -   179          7.972138220466         -4.147403826873          4.099899211043
      0.1687144782D+00  0.1000000000D+01  0.1000000000D+01
 Atom C21      Shell    64 D   1     bf  180 -   185          7.972138220466         -4.147403826873          4.099899211043
      0.8000000000D+00  0.1000000000D+01
 Atom H22      Shell    65 S   3     bf  186 -   186          6.957572548920         -3.707469951753          5.848689852397
      0.1873113696D+02  0.3349460434D-01
      0.2825394365D+01  0.2347269535D+00
      0.6401216923D+00  0.8137573261D+00
 Atom H22      Shell    66 S   1     bf  187 -   187          6.957572548920         -3.707469951753          5.848689852397
      0.1612777588D+00  0.1000000000D+01
 Atom H23      Shell    67 S   3     bf  188 -   188          8.567186599135         -6.124196464612          4.270688444844
      0.1873113696D+02  0.3349460434D-01
      0.2825394365D+01  0.2347269535D+00
      0.6401216923D+00  0.8137573261D+00
 Atom H23      Shell    68 S   1     bf  189 -   189          8.567186599135         -6.124196464612          4.270688444844
      0.1612777588D+00  0.1000000000D+01
 Atom C24      Shell    69 S   6     bf  190 -   190          4.454214829623          2.227666386353         -1.638446301023
      0.3047524880D+04  0.1834737132D-02
      0.4573695180D+03  0.1403732281D-01
      0.1039486850D+03  0.6884262226D-01
      0.2921015530D+02  0.2321844432D+00
      0.9286662960D+01  0.4679413484D+00
      0.3163926960D+01  0.3623119853D+00
 Atom C24      Shell    70 SP   3    bf  191 -   194          4.454214829623          2.227666386353         -1.638446301023
      0.7868272350D+01 -0.1193324198D+00  0.6899906659D-01
      0.1881288540D+01 -0.1608541517D+00  0.3164239610D+00
      0.5442492580D+00  0.1143456438D+01  0.7443082909D+00
 Atom C24      Shell    71 SP   1    bf  195 -   198          4.454214829623          2.227666386353         -1.638446301023
      0.1687144782D+00  0.1000000000D+01  0.1000000000D+01
 Atom C24      Shell    72 D   1     bf  199 -   204          4.454214829623          2.227666386353         -1.638446301023
      0.8000000000D+00  0.1000000000D+01
 Atom H25      Shell    73 S   3     bf  205 -   205          2.825040715535          3.407617676515         -1.140755082042
      0.1873113696D+02  0.3349460434D-01
      0.2825394365D+01  0.2347269535D+00
      0.6401216923D+00  0.8137573261D+00
 Atom H25      Shell    74 S   1     bf  206 -   206          2.825040715535          3.407617676515         -1.140755082042
      0.1612777588D+00  0.1000000000D+01
 Atom H26      Shell    75 S   3     bf  207 -   207          4.819597478122          2.558522094342         -3.645871040328
      0.1873113696D+02  0.3349460434D-01
      0.2825394365D+01  0.2347269535D+00
      0.6401216923D+00  0.8137573261D+00
 Atom H26      Shell    76 S   1     bf  208 -   208          4.819597478122          2.558522094342         -3.645871040328
      0.1612777588D+00  0.1000000000D+01
 Atom C27      Shell    77 S   6     bf  209 -   209         12.012934243593          1.872470306573          2.550524395403
      0.3047524880D+04  0.1834737132D-02
      0.4573695180D+03  0.1403732281D-01
      0.1039486850D+03  0.6884262226D-01
      0.2921015530D+02  0.2321844432D+00
      0.9286662960D+01  0.4679413484D+00
      0.3163926960D+01  0.3623119853D+00
 Atom C27      Shell    78 SP   3    bf  210 -   213         12.012934243593          1.872470306573          2.550524395403
      0.7868272350D+01 -0.1193324198D+00  0.6899906659D-01
      0.1881288540D+01 -0.1608541517D+00  0.3164239610D+00
      0.5442492580D+00  0.1143456438D+01  0.7443082909D+00
 Atom C27      Shell    79 SP   1    bf  214 -   217         12.012934243593          1.872470306573          2.550524395403
      0.1687144782D+00  0.1000000000D+01  0.1000000000D+01
 Atom C27      Shell    80 D   1     bf  218 -   223         12.012934243593          1.872470306573          2.550524395403
      0.8000000000D+00  0.1000000000D+01
 Atom H28      Shell    81 S   3     bf  224 -   224         11.520618539570          3.884153487027          2.581529245449
      0.1873113696D+02  0.3349460434D-01
      0.2825394365D+01  0.2347269535D+00
      0.6401216923D+00  0.8137573261D+00
 Atom H28      Shell    82 S   1     bf  225 -   225         11.520618539570          3.884153487027          2.581529245449
      0.1612777588D+00  0.1000000000D+01
 Atom C29      Shell    83 S   6     bf  226 -   226          0.995126984783         -1.225500946513         -1.352699697531
      0.3047524880D+04  0.1834737132D-02
      0.4573695180D+03  0.1403732281D-01
      0.1039486850D+03  0.6884262226D-01
      0.2921015530D+02  0.2321844432D+00
      0.9286662960D+01  0.4679413484D+00
      0.3163926960D+01  0.3623119853D+00
 Atom C29      Shell    84 SP   3    bf  227 -   230          0.995126984783         -1.225500946513         -1.352699697531
      0.7868272350D+01 -0.1193324198D+00  0.6899906659D-01
      0.1881288540D+01 -0.1608541517D+00  0.3164239610D+00
      0.5442492580D+00  0.1143456438D+01  0.7443082909D+00
 Atom C29      Shell    85 SP   1    bf  231 -   234          0.995126984783         -1.225500946513         -1.352699697531
      0.1687144782D+00  0.1000000000D+01  0.1000000000D+01
 Atom C29      Shell    86 D   1     bf  235 -   240          0.995126984783         -1.225500946513         -1.352699697531
      0.8000000000D+00  0.1000000000D+01
 Atom H30      Shell    87 S   3     bf  241 -   241          0.000000000000          0.000000000000          0.000000000000
      0.1873113696D+02  0.3349460434D-01
      0.2825394365D+01  0.2347269535D+00
      0.6401216923D+00  0.8137573261D+00
 Atom H30      Shell    88 S   1     bf  242 -   242          0.000000000000          0.000000000000          0.000000000000
      0.1612777588D+00  0.1000000000D+01
 Atom C31      Shell    89 S   6     bf  243 -   243          3.708823581479         -0.177730821497          3.681588489404
      0.3047524880D+04  0.1834737132D-02
      0.4573695180D+03  0.1403732281D-01
      0.1039486850D+03  0.6884262226D-01
      0.2921015530D+02  0.2321844432D+00
      0.9286662960D+01  0.4679413484D+00
      0.3163926960D+01  0.3623119853D+00
 Atom C31      Shell    90 SP   3    bf  244 -   247          3.708823581479         -0.177730821497          3.681588489404
      0.7868272350D+01 -0.1193324198D+00  0.6899906659D-01
      0.1881288540D+01 -0.1608541517D+00  0.3164239610D+00
      0.5442492580D+00  0.1143456438D+01  0.7443082909D+00
 Atom C31      Shell    91 SP   1    bf  248 -   251          3.708823581479         -0.177730821497          3.681588489404
      0.1687144782D+00  0.1000000000D+01  0.1000000000D+01
 Atom C31      Shell    92 D   1     bf  252 -   257          3.708823581479         -0.177730821497          3.681588489404
      0.8000000000D+00  0.1000000000D+01
 Atom H32      Shell    93 S   3     bf  258 -   258          4.795937010897         -0.147980730706          5.437832191729
      0.1873113696D+02  0.3349460434D-01
      0.2825394365D+01  0.2347269535D+00
      0.6401216923D+00  0.8137573261D+00
 Atom H32      Shell    94 S   1     bf  259 -   259          4.795937010897         -0.147980730706          5.437832191729
      0.1612777588D+00  0.1000000000D+01
 Atom H33      Shell    95 S   3     bf  260 -   260          3.027510508755          1.747271339338          3.356728315516
      0.1873113696D+02  0.3349460434D-01
      0.2825394365D+01  0.2347269535D+00
      0.6401216923D+00  0.8137573261D+00
 Atom H33      Shell    96 S   1     bf  261 -   261          3.027510508755          1.747271339338          3.356728315516
      0.1612777588D+00  0.1000000000D+01
 Atom H34      Shell    97 S   3     bf  262 -   262          2.049528631231         -1.368382610297          4.014059006169
      0.1873113696D+02  0.3349460434D-01
      0.2825394365D+01  0.2347269535D+00
      0.6401216923D+00  0.8137573261D+00
 Atom H34      Shell    98 S   1     bf  263 -   263          2.049528631231         -1.368382610297          4.014059006169
      0.1612777588D+00  0.1000000000D+01
 Atom C35      Shell    99 S   6     bf  264 -   264         14.218376638041         -0.569857516735          6.004968616216
      0.3047524880D+04  0.1834737132D-02
      0.4573695180D+03  0.1403732281D-01
      0.1039486850D+03  0.6884262226D-01
      0.2921015530D+02  0.2321844432D+00
      0.9286662960D+01  0.4679413484D+00
      0.3163926960D+01  0.3623119853D+00
 Atom C35      Shell   100 SP   3    bf  265 -   268         14.218376638041         -0.569857516735          6.004968616216
      0.7868272350D+01 -0.1193324198D+00  0.6899906659D-01
      0.1881288540D+01 -0.1608541517D+00  0.3164239610D+00
      0.5442492580D+00  0.1143456438D+01  0.7443082909D+00
 Atom C35      Shell   101 SP   1    bf  269 -   272         14.218376638041         -0.569857516735          6.004968616216
      0.1687144782D+00  0.1000000000D+01  0.1000000000D+01
 Atom C35      Shell   102 D   1     bf  273 -   278         14.218376638041         -0.569857516735          6.004968616216
      0.8000000000D+00  0.1000000000D+01
 Atom C36      Shell   103 S   6     bf  279 -   279         13.414618118030         -5.234972529110          6.244725842984
      0.3047524880D+04  0.1834737132D-02
      0.4573695180D+03  0.1403732281D-01
      0.1039486850D+03  0.6884262226D-01
      0.2921015530D+02  0.2321844432D+00
      0.9286662960D+01  0.4679413484D+00
      0.3163926960D+01  0.3623119853D+00
 Atom C36      Shell   104 SP   3    bf  280 -   283         13.414618118030         -5.234972529110          6.244725842984
      0.7868272350D+01 -0.1193324198D+00  0.6899906659D-01
      0.1881288540D+01 -0.1608541517D+00  0.3164239610D+00
      0.5442492580D+00  0.1143456438D+01  0.7443082909D+00
 Atom C36      Shell   105 SP   1    bf  284 -   287         13.414618118030         -5.234972529110          6.244725842984
      0.1687144782D+00  0.1000000000D+01  0.1000000000D+01
 Atom C36      Shell   106 D   1     bf  288 -   293         13.414618118030         -5.234972529110          6.244725842984
      0.8000000000D+00  0.1000000000D+01
 Atom H37      Shell   107 S   3     bf  294 -   294         14.133092447287         -5.638210814010          4.338462452148
      0.1873113696D+02  0.3349460434D-01
      0.2825394365D+01  0.2347269535D+00
      0.6401216923D+00  0.8137573261D+00
 Atom H37      Shell   108 S   1     bf  295 -   295         14.133092447287         -5.638210814010          4.338462452148
      0.1612777588D+00  0.1000000000D+01
 Atom H38      Shell   109 S   3     bf  296 -   296         11.984938631236         -6.676476769311          6.647019623865
      0.1873113696D+02  0.3349460434D-01
      0.2825394365D+01  0.2347269535D+00
      0.6401216923D+00  0.8137573261D+00
 Atom H38      Shell   110 S   1     bf  297 -   297         11.984938631236         -6.676476769311          6.647019623865
      0.1612777588D+00  0.1000000000D+01
 Atom C39      Shell   111 S   6     bf  298 -   298         14.115432540836          1.387319064546          4.391741995451
      0.3047524880D+04  0.1834737132D-02
      0.4573695180D+03  0.1403732281D-01
      0.1039486850D+03  0.6884262226D-01
      0.2921015530D+02  0.2321844432D+00
      0.9286662960D+01  0.4679413484D+00
      0.3163926960D+01  0.3623119853D+00
 Atom C39      Shell   112 SP   3    bf  299 -   302         14.115432540836          1.387319064546          4.391741995451
      0.7868272350D+01 -0.1193324198D+00  0.6899906659D-01
      0.1881288540D+01 -0.1608541517D+00  0.3164239610D+00
      0.5442492580D+00  0.1143456438D+01  0.7443082909D+00
 Atom C39      Shell   113 SP   1    bf  303 -   306         14.115432540836          1.387319064546          4.391741995451
      0.1687144782D+00  0.1000000000D+01  0.1000000000D+01
 Atom C39      Shell   114 D   1     bf  307 -   312         14.115432540836          1.387319064546          4.391741995451
      0.8000000000D+00  0.1000000000D+01
 Atom H40      Shell   115 S   3     bf  313 -   313         15.686027960496          2.717202397721          4.324080540235
[...]
 1552 Fit       0.001127
 1553 Fit       0.002247
 1554 Fit      -0.000300
 1555 Fit       0.000919
 1556 Fit       0.001495
 1557 Fit      -0.000046
 1558 Fit      -0.002145
 1559 Fit       0.001587
 1560 Fit       0.000017
 1561 Fit      -0.002142
 1562 Fit       0.000909
 1563 Fit       0.000881
 1564 Fit      -0.000785
 1565 Fit      -0.000264
 1566 Fit      -0.001620
 1567 Fit      -0.002840
 1568 Fit      -0.002515
 1569 Fit      -0.003038
 1570 Fit      -0.002999
 1571 Fit      -0.002553
 1572 Fit      -0.002188
 1573 Fit      -0.002585
 1574 Fit      -0.002834
 1575 Fit      -0.002486
 1576 Fit      -0.002180
 1577 Fit      -0.001697
 1578 Fit       0.002403
 1579 Fit       0.003246
 1580 Fit       0.000625
 1581 Fit       0.000623
 1582 Fit       0.001452
 1583 Fit       0.002292
 1584 Fit      -0.002080
 1585 Fit      -0.001511
 1586 Fit      -0.000793
 1587 Fit      -0.000165
 1588 Fit       0.000340
 1589 Fit      -0.002406
 1590 Fit       0.000750
 1591 Fit       0.000333
 1592 Fit      -0.001202
 1593 Fit       0.002411
 1594 Fit       0.001664
 1595 Fit       0.000065
 1596 Fit      -0.002218
 1597 Fit       0.002168
 1598 Fit       0.001591
 1599 Fit      -0.000099
 1600 Fit       0.000420
 1601 Fit      -0.000337
 1602 Fit      -0.001532
 1603 Fit      -0.001393
 1604 Fit      -0.001171
 1605 Fit       0.000391
 1606 Fit       0.001159
 1607 Fit       0.001442
 1608 Fit      -0.001502
 1609 Fit       0.000601
 1610 Fit       0.002051
 1611 Fit       0.002670
 1612 Fit       0.001255
 1613 Fit      -0.000988
 1614 Fit       0.001202
 1615 Fit       0.002139
 1616 Fit       0.000384
 1617 Fit      -0.009886
 1618 Fit      -0.014586
 1619 Fit      -0.016061
 1620 Fit      -0.005156
 1621 Fit      -0.015328
 1622 Fit      -0.020999
 1623 Fit      -0.022369
 1624 Fit      -0.020181
 1625 Fit      -0.010173
 1626 Fit      -0.019154
 1627 Fit      -0.024015
 1628 Fit      -0.024509
 1629 Fit      -0.015403
 1630 Fit      -0.022742
 1631 Fit      -0.023621
 1632 Fit      -0.020578
 1633 Fit      -0.014437
 1634 Fit      -0.009891
 1635 Fit      -0.019408
 1636 Fit       0.016481
 1637 Fit       0.011176
 1638 Fit       0.004409
 1639 Fit       0.016160
 1640 Fit       0.015115
 1641 Fit       0.011128
 1642 Fit       0.001364
 1643 Fit       0.008210
 1644 Fit       0.010867
 1645 Fit       0.008535
 1646 Fit      -0.004078
 1647 Fit       0.002059
 1648 Fit      -0.006773
 1649 Fit      -0.003635
 1650 Fit      -0.003955
 1651 Fit      -0.006948
 1652 Fit      -0.017742
 1653 Fit      -0.015686
 1654 Fit      -0.011324
 1655 Fit      -0.004305
 1656 Fit      -0.004617
 1657 Fit      -0.011809
 1658 Fit      -0.016183
 1659 Fit      -0.017951
 1660 Fit      -0.023607
 1661 Fit      -0.022044
 1662 Fit      -0.018464
 1663 Fit      -0.012069
 1664 Fit      -0.018377
 1665 Fit      -0.022095
 1666 Fit      -0.023643
 1667 Fit      -0.023873
 1668 Fit      -0.021990
 1669 Fit      -0.016968
 1670 Fit      -0.014838
 1671 Fit      -0.020802
 1672 Fit      -0.023502
 1673 Fit      -0.018430
 1674 Fit      -0.015875
 1675 Fit      -0.017339
 1676 Fit       0.018359
 1677 Fit       0.011602
 1678 Fit       0.015274
 1679 Fit       0.020801
 1680 Fit       0.022615
 1681 Fit       0.018371
 1682 Fit       0.012953
 1683 Fit       0.001055
 1684 Fit       0.004190
 1685 Fit       0.009759
 1686 Fit       0.016478
 1687 Fit       0.026228
 1688 Fit       0.010636
 1689 Fit       0.004480
 1690 Fit       0.001043
 1691 Fit       0.001150
 1692 Fit      -0.002399
 1693 Fit      -0.012301
 1694 Fit      -0.015410
 1695 Fit      -0.003546
 1696 Fit      -0.006378
 1697 Fit       0.003388
 1698 Fit       0.005607
 1699 Fit       0.006024
 1700 Fit       0.004598
 1701 Fit       0.009044
 1702 Fit       0.013944
 1703 Fit       0.008227
 1704 Fit      -0.003141
 1705 Fit       0.000938
 1706 Fit       0.000991
 1707 Fit       0.000007
 1708 Fit      -0.001775
 1709 Fit      -0.000459
 1710 Fit      -0.001761
 1711 Fit       0.002014
 1712 Fit       0.000546
 1713 Fit       0.000883
 1714 Fit       0.002628
 1715 Fit       0.004334
 1716 Fit       0.006299
 1717 Fit       0.003744
 1718 Fit       0.001715
 1719 Fit       0.002989
 1720 Fit       0.004031
 1721 Fit       0.001872
 1722 Fit       0.001771
 1723 Fit       0.002411
 1724 Fit       0.004696
 1725 Fit       0.004540
 1726 Fit       0.004179
 1727 Fit       0.003076
 1728 Fit       0.003069
 1729 Fit       0.003441
 1730 Fit       0.001285
 1731 Fit      -0.003712
 1732 Fit      -0.005302
 1733 Fit      -0.004290
 1734 Fit      -0.005720
 1735 Fit      -0.005286
 1736 Fit      -0.010870
 1737 Fit      -0.006658
 1738 Fit      -0.005787
 1739 Fit      -0.015930
 1740 Fit      -0.008592
 1741 Fit      -0.006202
 1742 Fit      -0.014493
 1743 Fit      -0.008891
 1744 Fit      -0.012356
 1745 Fit       0.004023
 1746 Fit       0.003323
 1747 Fit       0.002106
 1748 Fit       0.001931
 1749 Fit       0.002602
 1750 Fit      -0.000752
 1751 Fit      -0.000060
 1752 Fit       0.001052
 1753 Fit      -0.002697
 1754 Fit      -0.001227
 1755 Fit       0.004751
 1756 Fit       0.005151
 1757 Fit       0.005718
 1758 Fit       0.006275
 1759 Fit       0.007866
 1760 Fit       0.004863
 1761 Fit       0.005945
 1762 Fit       0.008296
 1763 Fit       0.004890
 1764 Fit       0.006492
 1765 Fit       0.008353
 1766 Fit       0.003654
 1767 Fit       0.005155
 1768 Fit       0.006493
 1769 Fit       0.003946
 1770 Fit       0.005481
 1771 Fit       0.006844
 1772 Fit      -0.005033
 1773 Fit      -0.005349
 1774 Fit      -0.004254
 1775 Fit      -0.003158
 1776 Fit       0.001467
 1777 Fit       0.002673
 1778 Fit       0.003256
 1779 Fit      -0.000041
 1780 Fit       0.001655
 1781 Fit      -0.001511
 1782 Fit       0.000535
 1783 Fit      -0.005111
 1784 Fit      -0.006646
 1785 Fit      -0.005436
 1786 Fit      -0.003735
 1787 Fit      -0.002698
 1788 Fit      -0.001940
 1789 Fit      -0.004712
 1790 Fit      -0.002608
 1791 Fit      -0.002000
 1792 Fit      -0.000825
 1793 Fit      -0.001384
 1794 Fit      -0.000541
 1795 Fit       0.003299
 1796 Fit       0.001922
 1797 Fit       0.002800
 1798 Fit       0.003852
 1799 Fit       0.000432
 1800 Fit       0.000695
 1801 Fit       0.001361
 1802 Fit      -0.005439
 1803 Fit      -0.003258
 1804 Fit      -0.002086
 1805 Fit      -0.012580
 1806 Fit      -0.007899
 1807 Fit       0.002040
 1808 Fit       0.002524
 1809 Fit       0.001818
 1810 Fit       0.001926
 1811 Fit       0.000723
 1812 Fit       0.000567
 1813 Fit       0.003432
 1814 Fit       0.000452
 1815 Fit       0.000606
 1816 Fit       0.006116
 1817 Fit       0.004110
 1818 Fit       0.003281
 1819 Fit       0.005267
 1820 Fit       0.007222
 1821 Fit       0.003390
 1822 Fit       0.002865
 1823 Fit       0.002287
 1824 Fit       0.001617
 1825 Fit       0.002968
 1826 Fit       0.002594
 1827 Fit       0.001773
 1828 Fit       0.003375
 1829 Fit       0.001837
 1830 Fit       0.003076
 1831 Fit       0.001527
 1832 Fit       0.002971
 1833 Fit       0.004029
 1834 Fit       0.004549
 1835 Fit       0.001318
 1836 Fit       0.002509
 1837 Fit       0.003362
 1838 Fit       0.006201
 1839 Fit       0.005976
 1840 Fit       0.006023
 1841 Fit       0.006217
 1842 Fit       0.010179
 1843 Fit       0.006783
 1844 Fit       0.006640
 1845 Fit       0.007021
 1846 Fit       0.007894
 1847 Fit       0.012041
 1848 Fit       0.008528
 1849 Fit       0.009048
 1850 Fit       0.009494
 1851 Fit       0.009371
 1852 Fit       0.008299
 1853 Fit       0.008983
 1854 Fit       0.008063
 1855 Fit       0.007233
 1856 Fit       0.007597
 1857 Fit       0.006613
 1858 Fit       0.006867
 1859 Fit       0.000489
 1860 Fit      -0.001183
 1861 Fit      -0.000419
 1862 Fit       0.000108
 1863 Fit       0.001033
 1864 Fit       0.000286
 1865 Fit       0.004830
 1866 Fit       0.003117
 1867 Fit       0.000962
 1868 Fit       0.004412
 1869 Fit       0.003533
 1870 Fit       0.002439
 1871 Fit       0.001645
 1872 Fit       0.002052
 1873 Fit       0.002069
 1874 Fit       0.001441
 1875 Fit       0.000385
 1876 Fit      -0.001040
 1877 Fit      -0.002432
 1878 Fit      -0.004710
 1879 Fit       0.006543
 1880 Fit       0.006081
 1881 Fit       0.007594
 1882 Fit       0.005832
 1883 Fit       0.005228
 1884 Fit       0.005057
 1885 Fit       0.005899
 1886 Fit       0.005279
 1887 Fit       0.005413
 1888 Fit       0.006276
 1889 Fit       0.007527
 1890 Fit       0.005837
 1891 Fit       0.007067
 1892 Fit       0.008040
 1893 Fit       0.008762
 1894 Fit       0.009684
 1895 Fit       0.007232
 1896 Fit       0.007876
 1897 Fit       0.008526
 1898 Fit       0.009602
 1899 Fit       0.011235
 1900 Fit       0.017078
 1901 Fit       0.012274
 1902 Fit       0.008375
 1903 Fit       0.007587
 1904 Fit       0.009656
 1905 Fit       0.014542
 1906 Fit       0.011125
 1907 Fit       0.007162
 1908 Fit       0.005345
 1909 Fit       0.004657
 1910 Fit       0.005407
 1911 Fit       0.005989
 1912 Fit       0.005779
 1913 Fit       0.003457
 1914 Fit       0.006007
 1915 Fit       0.007008
 1916 Fit       0.007096
 1917 Fit       0.005760
 1918 Fit       0.003227
 1919 Fit       0.003171
 1920 Fit      -0.001688
 1921 Fit       0.002194
 1922 Fit      -0.003406
 1923 Fit       0.001479
 1924 Fit       0.003308
 1925 Fit       0.002628
 1926 Fit      -0.008631
 1927 Fit      -0.001379
 1928 Fit       0.002716
 1929 Fit      -0.002084
 1930 Fit       0.001628
 1931 Fit       0.001472
 1932 Fit       0.018273
 1933 Fit       0.012616
 1934 Fit       0.012336
 1935 Fit       0.022627
 1936 Fit       0.008167
 1937 Fit       0.007082
 1938 Fit       0.007328
 1939 Fit       0.008572
 1940 Fit       0.003281
 1941 Fit       0.003583
 1942 Fit       0.004762
 1943 Fit       0.009170
 1944 Fit       0.006905
 1945 Fit       0.016226
 1946 Fit       0.018142
 1947 Fit       0.013206
 1948 Fit       0.011278
 1949 Fit       0.012518
 1950 Fit       0.010328
 1951 Fit       0.009127
 1952 Fit       0.007646
 1953 Fit       0.006889
 1954 Fit       0.004309
 1955 Fit       0.001511
 1956 Fit      -0.004916
 1957 Fit       0.006611
 1958 Fit       0.005095
 1959 Fit       0.003141
 1960 Fit      -0.000869
 1961 Fit      -0.010024
 1962 Fit       0.005547
 1963 Fit       0.003790
 1964 Fit       0.000397
 1965 Fit      -0.006351
 1966 Fit       0.005594
 1967 Fit       0.003676
 1968 Fit       0.000324
 1969 Fit       0.005595
 1970 Fit      -0.002346
 1971 Fit      -0.001727
 1972 Fit      -0.000867
 1973 Fit      -0.000449
 1974 Fit      -0.001223
 1975 Fit      -0.001940
 1976 Fit      -0.001235
 1977 Fit      -0.000738
 1978 Fit      -0.000953
 1979 Fit      -0.001610
 1980 Fit       0.000393
 1981 Fit       0.000569
 1982 Fit       0.001019
 1983 Fit       0.000732
 1984 Fit       0.000212
 1985 Fit      -0.000995
 1986 Fit      -0.002129
 1987 Fit      -0.000385
 1988 Fit       0.000093
 1989 Fit      -0.000586
 1990 Fit      -0.001247
 1991 Fit      -0.012550
 1992 Fit      -0.009991
 1993 Fit      -0.006186
 1994 Fit      -0.011009
 1995 Fit      -0.002454
 1996 Fit      -0.001018
 1997 Fit       0.001848
 1998 Fit       0.002514
 1999 Fit      -0.001132
 2000 Fit       0.003710
 2001 Fit       0.005492
 2002 Fit       0.005850
 2003 Fit       0.009534
 2004 Fit       0.001547
 2005 Fit      -0.000546
 2006 Fit      -0.000588
 2007 Fit       0.000170
 2008 Fit      -0.001317
 2009 Fit      -0.000712
 2010 Fit      -0.001552
 2011 Fit      -0.001183
 2012 Fit      -0.000285
 2013 Fit       0.000117
 2014 Fit       0.000130
 2015 Fit      -0.000403
 2016 Fit       0.000771
 2017 Fit       0.001302
 2018 Fit      -0.000783
 2019 Fit       0.000370
 2020 Fit       0.001334
 2021 Fit       0.001618
 2022 Fit       0.000505
 2023 Fit       0.000377
 2024 Fit       0.000983
 2025 Fit       0.000239
 2026 Fit      -0.000448
 2027 Fit       0.000044
 2028 Fit      -0.000198
 2029 Fit       0.000155
 2030 Fit      -0.001165
 2031 Fit       0.000689
 2032 Fit       0.003984
 2033 Fit       0.004251
 2034 Fit       0.001908
 2035 Fit       0.001353
 2036 Fit       0.001783
 2037 Fit       0.003001
 2038 Fit       0.001747
 2039 Fit      -0.002055
 2040 Fit       0.002819
 2041 Fit       0.001430
 2042 Fit      -0.001638
 2043 Fit      -0.000105
 2044 Fit      -0.001765
 2045 Fit      -0.001027
 2046 Fit      -0.000941
 2047 Fit      -0.000837
 2048 Fit      -0.000297
 2049 Fit       0.000397
 2050 Fit       0.000618
 2051 Fit       0.000055
 2052 Fit      -0.000427
 2053 Fit       0.000040
 2054 Fit       0.000667
 2055 Fit       0.001054
 2056 Fit       0.000549
 2057 Fit      -0.000297
 2058 Fit       0.000506
 2059 Fit       0.002735
 2060 Fit       0.002589
 2061 Fit       0.003149
 2062 Fit       0.002209
 2063 Fit       0.000724
 2064 Fit       0.001696
 2065 Fit       0.001182
 2066 Fit       0.001883
 2067 Fit       0.001489
 2068 Fit       0.000861
 2069 Fit       0.001411
 2070 Fit       0.001086
 2071 Fit       0.000595
 2072 Fit       0.000541
 2073 Fit       0.000520
 2074 Fit       0.000078
 2075 Fit      -0.000002
 2076 Fit       0.000266
 2077 Fit       0.000243
 2078 Fit      -0.000398
 2079 Fit       0.000641
 2080 Fit       0.000945
 2081 Fit       0.000778
 2082 Fit       0.000636
 2083 Fit       0.000627
 2084 Fit       0.000895
 2085 Fit       0.001020
 2086 Fit      -0.001834
 2087 Fit      -0.001854
 2088 Fit      -0.001652
 2089 Fit       0.000691
 2090 Fit      -0.001658
 2091 Fit      -0.002219
 2092 Fit      -0.001909
 2093 Fit      -0.001737
 2094 Fit      -0.001927
 2095 Fit      -0.001639
 2096 Fit      -0.001457
 2097 Fit       0.001833
 2098 Fit       0.002031
 2099 Fit       0.000957
 2100 Fit       0.000399
 2101 Fit       0.000818
 2102 Fit       0.002097
 2103 Fit       0.002703
 2104 Fit       0.001688
 2105 Fit       0.000524
 2106 Fit      -0.000597
 2107 Fit      -0.001276
 2108 Fit      -0.001405
 2109 Fit      -0.001138
 2110 Fit      -0.000453
 2111 Fit      -0.000700
 2112 Fit      -0.000315
 2113 Fit      -0.001122
 2114 Fit      -0.000977
 2115 Fit       0.000342
 2116 Fit       0.001060
 2117 Fit       0.001144
 2118 Fit      -0.000619
 2119 Fit       0.000782
 2120 Fit       0.001654
 2121 Fit       0.002210
 2122 Fit      -0.000886
 2123 Fit       0.000604
 2124 Fit       0.001512
 2125 Fit      -0.000362
 2126 Fit       0.000511
 2127 Fit       0.000795
 2128 Fit      -0.000496
 2129 Fit       0.001044
 2130 Fit      -0.000128
 2131 Fit      -0.001603
 2132 Fit       0.001030
 2133 Fit       0.000201
 2134 Fit      -0.001136
 2135 Fit      -0.000266
 2136 Fit       0.000175
 2137 Fit      -0.000797
 2138 Fit      -0.000576
 2139 Fit      -0.001981
 2140 Fit      -0.001622
 2141 Fit      -0.001976
 2142 Fit      -0.002140
 2143 Fit      -0.001842
 2144 Fit      -0.002281
 2145 Fit      -0.002127
 2146 Fit      -0.000920
 2147 Fit      -0.002006
 2148 Fit      -0.001404
 2149 Fit      -0.000986
 2150 Fit       0.001977
 2151 Fit       0.002776
 2152 Fit       0.000819
 2153 Fit       0.000697
 2154 Fit       0.001285
 2155 Fit       0.001997
 2156 Fit      -0.001403
 2157 Fit      -0.001108
 2158 Fit      -0.000709
 2159 Fit      -0.000174
 2160 Fit       0.000353
 2161 Fit       0.000837
 2162 Fit      -0.001330
 2163 Fit      -0.000969
 2164 Fit      -0.000720
 2165 Fit      -0.000158
 2166 Fit      -0.000354
 2167 Fit      -0.001393
 2168 Fit       0.001700
 2169 Fit       0.001177
 2170 Fit       0.000321
 2171 Fit      -0.001074
 2172 Fit       0.002122
 2173 Fit       0.001629
 2174 Fit       0.000733
 2175 Fit      -0.000691
 2176 Fit       0.001362
 2177 Fit       0.000906
 2178 Fit      -0.000304
 2179 Fit       0.000126
 2180 Fit      -0.000455
 2181 Fit      -0.001191
 2182 Fit      -0.000257
 2183 Fit       0.000156
 2184 Fit      -0.001364
 2185 Fit      -0.000024
 2186 Fit       0.000987
 2187 Fit       0.001531
 2188 Fit      -0.000948
 2189 Fit       0.000501
 2190 Fit       0.001588
 2191 Fit       0.002145
 2192 Fit       0.000989
 2193 Fit      -0.000602
 2194 Fit       0.000823
 2195 Fit       0.001538
 2196 Fit       0.000339
 -----------------------------------------------------------------
 Leave Link  602 at Thu May 18 12:40:50 2017, MaxMem=   33554432 cpu:      15.1
 (Enter /scratch/michal/g09/l9999.exe)

 Test job not archived.
 1\1\GINC-RZEPICHA\SP\RHF\6-31G(d)\C27H46O2\MICHAL\18-May-2017\0\\#P HF
 /6-31G* SCF(Conver=6) NoSymm Test Pop=mk IOp(6/33=2) GFInput GFPrint\\
 MEP - Input generated by R.E.D.-III.x MOLECULE\\0,1\O,0,6.83647934,0.7
 8346455,0.\H,0,7.40252924,0.,0.\O,0,10.44650662,-1.98370601,4.9398104\
 H,0,10.13086989,-1.87511436,5.84796497\C,0,2.7880625,-0.6229725,0.7524
 2957\C,0,4.08832425,0.19470219,0.51648963\H,0,4.59478777,-0.29528198,-
 0.32732208\C,0,5.09037595,0.17221212,1.67729061\H,0,4.63750059,0.65936
 56,2.55295056\C,0,5.46470307,-1.28633972,2.04357594\H,0,6.04501038,-1.
 67236571,1.18896152\C,0,2.0395454,-0.33297754,-0.59508933\H,0,2.553424
 31,-0.93147358,-1.36418091\C,0,3.22867682,-2.08158793,0.99229331\H,0,3
 .70288651,-2.45978127,0.07516779\H,0,2.3761586,-2.73768592,1.1948085\C
 ,0,6.42244562,-1.36442271,3.28388155\C,0,3.59861926,1.55049164,-0.0103
 5338\H,0,4.36812464,2.06416792,-0.59329735\H,0,3.32181754,2.21654211,0
 .81692247\C,0,4.21867385,-2.19471158,2.16957322\H,0,3.68178882,-1.9619
 086,3.09499337\H,0,4.53355989,-3.24078519,2.25995099\C,0,2.35706897,1.
 17883028,-0.86702844\H,0,1.49494716,1.80323361,-0.60366159\H,0,2.55042
 114,1.35391158,-1.92931186\C,0,6.35697101,0.99086861,1.34967938\H,0,6.
 09644876,2.0554055,1.36608644\C,0,0.52659852,-0.64850717,-0.71581785\H
 ,0,0.,0.,0.\C,0,1.96262491,-0.0940511,1.94821272\H,0,2.53790056,-0.078
 30803,2.87757686\H,0,1.60208956,0.92461617,1.77630412\H,0,1.08456384,-
 0.72411689,2.12414854\C,0,7.52404086,-0.30155561,3.17769253\C,0,7.0987
 1017,-2.77022815,3.30456659\H,0,7.47891041,-2.98361266,2.29581545\H,0,
 6.34215637,-3.53303934,3.51745129\C,0,7.46956519,0.73413763,2.32400977
 \H,0,8.30068849,1.43788158,2.28820487\C,0,5.65373006,-1.13821652,4.614
 40425\H,0,4.98120321,-1.97326681,4.83228647\H,0,6.33596222,-1.04527695
 ,5.46302723\H,0,5.0595089,-0.22019994,4.57724848\C,0,8.7145361,-0.4538
 0474,4.10667071\H,0,9.47653635,0.29562902,3.87123697\H,0,8.40169129,-0
 .26902866,5.14674158\C,0,8.26071824,-2.91737656,4.298712\H,0,7.8968680
 7,-2.82368707,5.33259348\H,0,8.70437445,-3.91568102,4.21188375\C,0,-0.
 00295342,-0.29648177,-2.14016354\H,0,0.73676998,0.30845956,-2.67432989
 \H,0,-0.10253703,-1.22305397,-2.72366809\C,0,9.33440435,-1.85840864,4.
 04992072\H,0,9.76923336,-2.01496354,3.05500859\C,0,0.17716543,-2.10912
 743,-0.37428955\H,0,0.77849134,-2.8032713,-0.97451196\H,0,-0.87499869,
 -2.31785021,-0.58992461\H,0,0.34659791,-2.34553079,0.67933317\C,0,-1.3
 3743936,0.47338161,-2.18077192\H,0,-1.21235133,1.41205784,-1.62499941\
 H,0,-1.53648393,0.76161471,-3.2231692\C,0,-2.56017538,-0.28880063,-1.6
 4776921\H,0,-2.43166887,-0.50871191,-0.57811181\H,0,-2.61407982,-1.262
 20811,-2.15645415\C,0,-3.91059523,0.43298734,-1.83863908\H,0,-4.005856
 19,0.68116643,-2.90719214\C,0,-3.99711944,1.74457757,-1.04117538\H,0,-
 3.87881552,1.55378276,0.03358058\H,0,-4.97031991,2.22718821,-1.1865302
 1\H,0,-3.22629106,2.46173718,-1.34007433\C,0,-5.07657507,-0.49769227,-
 1.46896408\H,0,-5.03020434,-0.78030734,-0.40931629\H,0,-6.04383336,-0.
 01146137,-1.63992962\H,0,-5.05524893,-1.42015887,-2.06054935\\Version=
 EM64L-G09RevC.01\HF=-1198.9239428\RMSD=4.907e-07\Dipole=-0.5397022,-0.
 3753384,0.7092654\Quadrupole=-17.9628128,4.7646172,13.1981956,-2.25295
 9,4.7815552,0.4637128\PG=C01 [X(C27H46O2)]\\@


 ERWIN WITH HIS PSI CAN DO
 CALCULATIONS QUITE A FEW.
 BUT ONE THING HAS NOT BEEN SEEN
 JUST WHAT DOES PSI REALLY MEAN.
 -- WALTER HUCKEL, TRANS. BY FELIX BLOCH
 Job cpu time:  0 days  0 hours 39 minutes 41.2 seconds.
 File lengths (MBytes):  RWF=    151 Int=      0 D2E=      0 Chk=     11 Scr=      1
 Normal termination of Gaussian 09 at Thu May 18 12:40:50 2017.
