 Entering Gaussian System, Link 0=/scratch/michal/g09//g09
 Input=JOB2-gau_m1-15-2.com
 Output=JOB2-gau_m1-15-2.log
 Initial command:
 /scratch/michal/g09/l1.exe /scratch/michal/gauss_scratch/Gau-28029.inp -scrdir=/scratch/michal/gauss_scratch/
 Entering Link 1 = /scratch/michal/g09/l1.exe PID=     28031.
  
 Copyright (c) 1988,1990,1992,1993,1995,1998,2003,2009,2011,
            Gaussian, Inc.  All Rights Reserved.
  
 This is part of the Gaussian(R) 09 program.  It is based on
 the Gaussian(R) 03 system (copyright 2003, Gaussian, Inc.),
 the Gaussian(R) 98 system (copyright 1998, Gaussian, Inc.),
 the Gaussian(R) 94 system (copyright 1995, Gaussian, Inc.),
 the Gaussian 92(TM) system (copyright 1992, Gaussian, Inc.),
 the Gaussian 90(TM) system (copyright 1990, Gaussian, Inc.),
 the Gaussian 88(TM) system (copyright 1988, Gaussian, Inc.),
 the Gaussian 86(TM) system (copyright 1986, Carnegie Mellon
 University), and the Gaussian 82(TM) system (copyright 1983,
 Carnegie Mellon University). Gaussian is a federally registered
 trademark of Gaussian, Inc.
  
 This software contains proprietary and confidential information,
 including trade secrets, belonging to Gaussian, Inc.
  
 This software is provided under written license and may be
 used, copied, transmitted, or stored only in accord with that
 written license.
  
 The following legend is applicable only to US Government
 contracts under FAR:
  
                    RESTRICTED RIGHTS LEGEND
  
 Use, reproduction and disclosure by the US Government is
 subject to restrictions as set forth in subparagraphs (a)
 and (c) of the Commercial Computer Software - Restricted
 Rights clause in FAR 52.227-19.
  
 Gaussian, Inc.
 340 Quinnipiac St., Bldg. 40, Wallingford CT 06492
  
  
 ---------------------------------------------------------------
 Warning -- This program may not be used in any manner that
 competes with the business of Gaussian, Inc. or will provide
 assistance to any competitor of Gaussian, Inc.  The licensee
 of this program is prohibited from giving any competitor of
 Gaussian, Inc. access to this program.  By using this program,
 the user acknowledges that Gaussian, Inc. is engaged in the
 business of creating and licensing software in the field of
 computational chemistry and represents and warrants to the
 licensee that it is not a competitor of Gaussian, Inc. and that
 it will not use this program in any manner prohibited above.
 ---------------------------------------------------------------
  

 Cite this work as:
 Gaussian 09, Revision C.01,
 M. J. Frisch, G. W. Trucks, H. B. Schlegel, G. E. Scuseria, 
 M. A. Robb, J. R. Cheeseman, G. Scalmani, V. Barone, B. Mennucci, 
 G. A. Petersson, H. Nakatsuji, M. Caricato, X. Li, H. P. Hratchian, 
 A. F. Izmaylov, J. Bloino, G. Zheng, J. L. Sonnenberg, M. Hada, 
 M. Ehara, K. Toyota, R. Fukuda, J. Hasegawa, M. Ishida, T. Nakajima, 
 Y. Honda, O. Kitao, H. Nakai, T. Vreven, J. A. Montgomery, Jr., 
 J. E. Peralta, F. Ogliaro, M. Bearpark, J. J. Heyd, E. Brothers, 
 K. N. Kudin, V. N. Staroverov, T. Keith, R. Kobayashi, J. Normand, 
 K. Raghavachari, A. Rendell, J. C. Burant, S. S. Iyengar, J. Tomasi, 
 M. Cossi, N. Rega, J. M. Millam, M. Klene, J. E. Knox, J. B. Cross, 
 V. Bakken, C. Adamo, J. Jaramillo, R. Gomperts, R. E. Stratmann, 
 O. Yazyev, A. J. Austin, R. Cammi, C. Pomelli, J. W. Ochterski, 
 R. L. Martin, K. Morokuma, V. G. Zakrzewski, G. A. Voth, 
 P. Salvador, J. J. Dannenberg, S. Dapprich, A. D. Daniels, 
 O. Farkas, J. B. Foresman, J. V. Ortiz, J. Cioslowski, 
 and D. J. Fox, Gaussian, Inc., Wallingford CT, 2010.
 
 ******************************************
 Gaussian 09:  EM64L-G09RevC.01 23-Sep-2011
                18-May-2017 
 ******************************************
 %Mem=256MB
 %NProc=48
 Will use up to   48 processors via shared memory.
 ----------------------------------------------------------------------
 #P HF/6-31G* SCF(Conver=6) NoSymm Test Pop=mk IOp(6/33=2) GFInput GFPr
 int
 ----------------------------------------------------------------------
 1/38=1/1;
 2/12=2,15=1,17=6,18=5,40=1/2;
 3/5=1,6=6,7=1,11=9,16=1,24=110,25=1,30=1/1,2,3;
 4//1;
 5/5=2,6=6,38=5/2;
 6/7=2,8=2,9=2,10=2,15=8,20=1,28=1,33=2/1,2;
 99/5=1,9=1/99;
 Leave Link    1 at Thu May 18 13:38:24 2017, MaxMem=   33554432 cpu:       5.1
 (Enter /scratch/michal/g09/l101.exe)
 ----------------------------------------------
 MEP - Input generated by R.E.D.-III.x MOLECULE
 ----------------------------------------------
 Charge =  0 Multiplicity = 1
 Symbolic Z-Matrix:
 O                     6.73186   0.82016   0. 
 H                     7.24324   0.        0. 
 O                     11.39665  -1.41468   4.28354 
 H                     11.34017  -1.12714   5.20565 
 C                     2.97374  -0.06439   2.00439 
 C                     4.19743   0.59133   1.30126 
 H                     4.44185  -0.06848   0.45732 
 C                     5.47176   0.66436   2.15077 
 H                     5.29825   1.33002   3.00842 
 C                     5.86115  -0.74403   2.66981 
 H                     6.17557  -1.31604   1.78093 
 C                     1.92786   0.06972   0.84301 
 H                     2.29558  -0.6175    0.06862 
 C                     3.39612  -1.49781   2.37981 
 H                     3.5978   -2.06263   1.45896 
 H                     2.59297  -2.02849   2.9048 
 C                     7.11007  -0.70494   3.61894 
 C                     3.63955   1.88598   0.68534 
 H                     4.23306   2.21514  -0.1722 
 H                     3.6487    2.70405   1.41703 
 C                     4.65485  -1.50542   3.27128 
 H                     4.39241  -1.07788   4.24429 
 H                     4.93818  -2.5462    3.46604 
 C                     2.18244   1.50915   0.29107 
 H                     1.4689    2.22623   0.70961 
 H                     2.03599   1.52969  -0.79438 
 C                     6.64175   1.29326   1.36473 
 H                     6.44582   2.36556   1.24985 
 C                     0.41518  -0.26583   0.98412 
 H                     0.        0.        0. 
 C                     2.54527   0.71354   3.27032 
 H                     3.38524   0.89147   3.94687 
 H                     2.11504   1.68907   3.02983 
 H                     1.79429   0.15301   3.83472 
 C                     8.1921    0.21749   3.0418 
 C                     7.70093  -2.14489   3.72726 
 H                     7.78761  -2.55818   2.71269 
 H                     6.99401  -2.78712   4.26328 
 C                     7.9608    1.0977    2.0538 
 H                     8.78453   1.70443   1.67875 
 C                     6.73556  -0.19003   5.03557 
 H                     6.10369  -0.90876   5.56584 
 H                     7.62305  -0.02626   5.65186 
 H                     6.20038   0.7628    4.98225 
 C                     9.57868   0.11097   3.6497 
 H                     10.28441   0.73629   3.09419 
 H                     9.56313   0.49439   4.68245 
 C                     9.07793  -2.23287   4.40283 
 H                     9.00798  -1.93513   5.45947 
 H                     9.43517  -3.26885   4.39223 
 C                     0.10555  -1.76691   1.20538 
 H                     0.50283  -2.0732    2.18159 
 H                    -0.98648  -1.8683    1.28728 
 C                     10.09463  -1.33528   3.69803 
 H                     10.24058  -1.69503   2.67201 
 C                    -0.39037   0.56082   2.0071 
 H                    -0.21557   0.22907   3.03483 
 H                    -1.46212   0.44549   1.80891 
 H                    -0.16495   1.63009   1.95807 
 C                     0.5921   -2.76366   0.13528 
 H                     1.68541  -2.73733   0.06585 
 H                     0.33908  -3.77139   0.48866 
 C                    -0.026    -2.54195  -1.2553 
 H                     0.29181  -1.5651   -1.64335 
 H                    -1.11935  -2.48409  -1.14806 
 C                     0.29991  -3.60829  -2.32826 
 H                    -0.20309  -3.27324  -3.24746 
 C                    -0.27094  -4.99413  -1.98415 
 H                     0.22397  -5.43196  -1.10965 
 H                    -0.13165  -5.69017  -2.81926 
 H                    -1.34481  -4.94112  -1.76948 
 C                     1.80309  -3.69235  -2.64147 
 H                     2.37188  -4.08104  -1.78884 
 H                     1.98784  -4.36155  -3.48956 
 H                     2.21367  -2.70849  -2.89724 
 
 NAtoms=     75 NQM=        0 NQMF=       0 NMMI=     75 NMMIF=      0
                NMic=       0 NMicF=      0.
                    Isotopes and Nuclear Properties:
 (Nuclear quadrupole moments (NQMom) in fm**2, nuclear magnetic moments (NMagM)
  in nuclear magnetons)

  Atom         1           2           3           4           5           6           7           8           9          10
 IAtWgt=          16           1          16           1          12          12           1          12           1          12
 AtmWgt=  15.9949146   1.0078250  15.9949146   1.0078250  12.0000000  12.0000000   1.0078250  12.0000000   1.0078250  12.0000000
 NucSpn=           0           1           0           1           0           0           1           0           1           0
 AtZEff=   0.0000000   0.0000000   0.0000000   0.0000000   0.0000000   0.0000000   0.0000000   0.0000000   0.0000000   0.0000000
 NQMom=    0.0000000   0.0000000   0.0000000   0.0000000   0.0000000   0.0000000   0.0000000   0.0000000   0.0000000   0.0000000
 NMagM=    0.0000000   2.7928460   0.0000000   2.7928460   0.0000000   0.0000000   2.7928460   0.0000000   2.7928460   0.0000000

  Atom        11          12          13          14          15          16          17          18          19          20
 IAtWgt=           1          12           1          12           1           1          12          12           1           1
 AtmWgt=   1.0078250  12.0000000   1.0078250  12.0000000   1.0078250   1.0078250  12.0000000  12.0000000   1.0078250   1.0078250
 NucSpn=           1           0           1           0           1           1           0           0           1           1
 AtZEff=   0.0000000   0.0000000   0.0000000   0.0000000   0.0000000   0.0000000   0.0000000   0.0000000   0.0000000   0.0000000
 NQMom=    0.0000000   0.0000000   0.0000000   0.0000000   0.0000000   0.0000000   0.0000000   0.0000000   0.0000000   0.0000000
 NMagM=    2.7928460   0.0000000   2.7928460   0.0000000   2.7928460   2.7928460   0.0000000   0.0000000   2.7928460   2.7928460

  Atom        21          22          23          24          25          26          27          28          29          30
 IAtWgt=          12           1           1          12           1           1          12           1          12           1
 AtmWgt=  12.0000000   1.0078250   1.0078250  12.0000000   1.0078250   1.0078250  12.0000000   1.0078250  12.0000000   1.0078250
 NucSpn=           0           1           1           0           1           1           0           1           0           1
 AtZEff=   0.0000000   0.0000000   0.0000000   0.0000000   0.0000000   0.0000000   0.0000000   0.0000000   0.0000000   0.0000000
 NQMom=    0.0000000   0.0000000   0.0000000   0.0000000   0.0000000   0.0000000   0.0000000   0.0000000   0.0000000   0.0000000
 NMagM=    0.0000000   2.7928460   2.7928460   0.0000000   2.7928460   2.7928460   0.0000000   2.7928460   0.0000000   2.7928460

  Atom        31          32          33          34          35          36          37          38          39          40
 IAtWgt=          12           1           1           1          12          12           1           1          12           1
 AtmWgt=  12.0000000   1.0078250   1.0078250   1.0078250  12.0000000  12.0000000   1.0078250   1.0078250  12.0000000   1.0078250
 NucSpn=           0           1           1           1           0           0           1           1           0           1
 AtZEff=   0.0000000   0.0000000   0.0000000   0.0000000   0.0000000   0.0000000   0.0000000   0.0000000   0.0000000   0.0000000
 NQMom=    0.0000000   0.0000000   0.0000000   0.0000000   0.0000000   0.0000000   0.0000000   0.0000000   0.0000000   0.0000000
 NMagM=    0.0000000   2.7928460   2.7928460   2.7928460   0.0000000   0.0000000   2.7928460   2.7928460   0.0000000   2.7928460

  Atom        41          42          43          44          45          46          47          48          49          50
 IAtWgt=          12           1           1           1          12           1           1          12           1           1
 AtmWgt=  12.0000000   1.0078250   1.0078250   1.0078250  12.0000000   1.0078250   1.0078250  12.0000000   1.0078250   1.0078250
 NucSpn=           0           1           1           1           0           1           1           0           1           1
 AtZEff=   0.0000000   0.0000000   0.0000000   0.0000000   0.0000000   0.0000000   0.0000000   0.0000000   0.0000000   0.0000000
 NQMom=    0.0000000   0.0000000   0.0000000   0.0000000   0.0000000   0.0000000   0.0000000   0.0000000   0.0000000   0.0000000
 NMagM=    0.0000000   2.7928460   2.7928460   2.7928460   0.0000000   2.7928460   2.7928460   0.0000000   2.7928460   2.7928460

  Atom        51          52          53          54          55          56          57          58          59          60
 IAtWgt=          12           1           1          12           1          12           1           1           1          12
 AtmWgt=  12.0000000   1.0078250   1.0078250  12.0000000   1.0078250  12.0000000   1.0078250   1.0078250   1.0078250  12.0000000
 NucSpn=           0           1           1           0           1           0           1           1           1           0
 AtZEff=   0.0000000   0.0000000   0.0000000   0.0000000   0.0000000   0.0000000   0.0000000   0.0000000   0.0000000   0.0000000
 NQMom=    0.0000000   0.0000000   0.0000000   0.0000000   0.0000000   0.0000000   0.0000000   0.0000000   0.0000000   0.0000000
 NMagM=    0.0000000   2.7928460   2.7928460   0.0000000   2.7928460   0.0000000   2.7928460   2.7928460   2.7928460   0.0000000

  Atom        61          62          63          64          65          66          67          68          69          70
 IAtWgt=           1           1          12           1           1          12           1          12           1           1
 AtmWgt=   1.0078250   1.0078250  12.0000000   1.0078250   1.0078250  12.0000000   1.0078250  12.0000000   1.0078250   1.0078250
 NucSpn=           1           1           0           1           1           0           1           0           1           1
 AtZEff=   0.0000000   0.0000000   0.0000000   0.0000000   0.0000000   0.0000000   0.0000000   0.0000000   0.0000000   0.0000000
 NQMom=    0.0000000   0.0000000   0.0000000   0.0000000   0.0000000   0.0000000   0.0000000   0.0000000   0.0000000   0.0000000
 NMagM=    2.7928460   2.7928460   0.0000000   2.7928460   2.7928460   0.0000000   2.7928460   0.0000000   2.7928460   2.7928460

  Atom        71          72          73          74          75
 IAtWgt=           1          12           1           1           1
 AtmWgt=   1.0078250  12.0000000   1.0078250   1.0078250   1.0078250
 NucSpn=           1           0           1           1           1
 AtZEff=   0.0000000   0.0000000   0.0000000   0.0000000   0.0000000
 NQMom=    0.0000000   0.0000000   0.0000000   0.0000000   0.0000000
 NMagM=    2.7928460   0.0000000   2.7928460   2.7928460   2.7928460
 Leave Link  101 at Thu May 18 13:38:24 2017, MaxMem=   33554432 cpu:       7.7
 (Enter /scratch/michal/g09/l202.exe)
 Symmetry turned off by external request.
 Stoichiometry    C27H46O2
 Framework group  C1[X(C27H46O2)]
 Deg. of freedom   219
 Full point group                 C1      NOp   1
                          Input orientation:                          
 ---------------------------------------------------------------------
 Center     Atomic      Atomic             Coordinates (Angstroms)
 Number     Number       Type             X           Y           Z
 ---------------------------------------------------------------------
      1          8           0        6.731857    0.820161    0.000000
      2          1           0        7.243236    0.000000    0.000000
      3          8           0       11.396655   -1.414680    4.283535
      4          1           0       11.340169   -1.127143    5.205654
      5          6           0        2.973740   -0.064389    2.004386
      6          6           0        4.197431    0.591333    1.301263
      7          1           0        4.441846   -0.068480    0.457321
      8          6           0        5.471761    0.664363    2.150773
      9          1           0        5.298251    1.330015    3.008422
     10          6           0        5.861149   -0.744029    2.669815
     11          1           0        6.175571   -1.316037    1.780933
     12          6           0        1.927861    0.069723    0.843009
     13          1           0        2.295584   -0.617495    0.068617
     14          6           0        3.396119   -1.497808    2.379808
     15          1           0        3.597800   -2.062628    1.458965
     16          1           0        2.592969   -2.028494    2.904795
     17          6           0        7.110073   -0.704939    3.618942
     18          6           0        3.639547    1.885984    0.685340
     19          1           0        4.233055    2.215145   -0.172203
     20          1           0        3.648705    2.704046    1.417034
     21          6           0        4.654851   -1.505416    3.271282
     22          1           0        4.392410   -1.077883    4.244289
     23          1           0        4.938184   -2.546201    3.466043
     24          6           0        2.182441    1.509148    0.291065
     25          1           0        1.468901    2.226231    0.709614
     26          1           0        2.035990    1.529690   -0.794382
     27          6           0        6.641745    1.293265    1.364732
     28          1           0        6.445819    2.365564    1.249854
     29          6           0        0.415185   -0.265825    0.984124
     30          1           0        0.000000    0.000000    0.000000
     31          6           0        2.545268    0.713537    3.270321
     32          1           0        3.385244    0.891467    3.946868
     33          1           0        2.115036    1.689068    3.029829
     34          1           0        1.794292    0.153014    3.834716
     35          6           0        8.192096    0.217489    3.041798
     36          6           0        7.700927   -2.144891    3.727257
     37          1           0        7.787612   -2.558180    2.712691
     38          1           0        6.994006   -2.787122    4.263283
     39          6           0        7.960799    1.097701    2.053799
     40          1           0        8.784535    1.704430    1.678747
     41          6           0        6.735563   -0.190030    5.035567
     42          1           0        6.103693   -0.908764    5.565843
     43          1           0        7.623051   -0.026264    5.651856
     44          1           0        6.200378    0.762796    4.982251
     45          6           0        9.578678    0.110969    3.649705
     46          1           0       10.284414    0.736292    3.094185
     47          1           0        9.563132    0.494394    4.682451
     48          6           0        9.077929   -2.232872    4.402828
     49          1           0        9.007982   -1.935132    5.459472
     50          1           0        9.435172   -3.268849    4.392232
     51          6           0        0.105547   -1.766908    1.205377
     52          1           0        0.502827   -2.073196    2.181589
     53          1           0       -0.986485   -1.868296    1.287280
     54          6           0       10.094629   -1.335279    3.698027
     55          1           0       10.240575   -1.695028    2.672009
     56          6           0       -0.390370    0.560817    2.007103
     57          1           0       -0.215570    0.229067    3.034826
     58          1           0       -1.462124    0.445495    1.808905
     59          1           0       -0.164951    1.630089    1.958066
     60          6           0        0.592102   -2.763656    0.135283
     61          1           0        1.685412   -2.737334    0.065854
     62          1           0        0.339077   -3.771394    0.488662
     63          6           0       -0.025995   -2.541945   -1.255299
     64          1           0        0.291808   -1.565095   -1.643346
     65          1           0       -1.119348   -2.484086   -1.148055
     66          6           0        0.299906   -3.608291   -2.328260
     67          1           0       -0.203092   -3.273242   -3.247459
     68          6           0       -0.270944   -4.994131   -1.984154
     69          1           0        0.223966   -5.431957   -1.109649
     70          1           0       -0.131651   -5.690168   -2.819262
     71          1           0       -1.344807   -4.941116   -1.769476
     72          6           0        1.803091   -3.692347   -2.641468
     73          1           0        2.371877   -4.081041   -1.788838
     74          1           0        1.987840   -4.361553   -3.489564
     75          1           0        2.213666   -2.708486   -2.897241
 ---------------------------------------------------------------------
 Rotational constants (GHZ):      0.2750577      0.0742499      0.0690401
 Leave Link  202 at Thu May 18 13:38:24 2017, MaxMem=   33554432 cpu:       0.2
 (Enter /scratch/michal/g09/l301.exe)
 Standard basis: 6-31G(d) (6D, 7F)
 Ernie: Thresh=  0.10000D-02 Tol=  0.10000D-05 Strict=F.
 AO basis set in the form of general basis input (Overlap normalization):
      1 0
 S   6 1.00       0.000000000000
      0.5484671660D+04  0.1831074430D-02
      0.8252349460D+03  0.1395017220D-01
      0.1880469580D+03  0.6844507810D-01
      0.5296450000D+02  0.2327143360D+00
      0.1689757040D+02  0.4701928980D+00
      0.5799635340D+01  0.3585208530D+00
 SP   3 1.00       0.000000000000
      0.1553961625D+02 -0.1107775495D+00  0.7087426823D-01
      0.3599933586D+01 -0.1480262627D+00  0.3397528391D+00
      0.1013761750D+01  0.1130767015D+01  0.7271585773D+00
 SP   1 1.00       0.000000000000
      0.2700058226D+00  0.1000000000D+01  0.1000000000D+01
 D   1 1.00       0.000000000000
      0.8000000000D+00  0.1000000000D+01
 ****
      2 0
 S   3 1.00       0.000000000000
      0.1873113696D+02  0.3349460434D-01
      0.2825394365D+01  0.2347269535D+00
      0.6401216923D+00  0.8137573261D+00
 S   1 1.00       0.000000000000
      0.1612777588D+00  0.1000000000D+01
 ****
      3 0
 S   6 1.00       0.000000000000
      0.5484671660D+04  0.1831074430D-02
      0.8252349460D+03  0.1395017220D-01
      0.1880469580D+03  0.6844507810D-01
      0.5296450000D+02  0.2327143360D+00
      0.1689757040D+02  0.4701928980D+00
      0.5799635340D+01  0.3585208530D+00
 SP   3 1.00       0.000000000000
      0.1553961625D+02 -0.1107775495D+00  0.7087426823D-01
      0.3599933586D+01 -0.1480262627D+00  0.3397528391D+00
      0.1013761750D+01  0.1130767015D+01  0.7271585773D+00
 SP   1 1.00       0.000000000000
      0.2700058226D+00  0.1000000000D+01  0.1000000000D+01
 D   1 1.00       0.000000000000
      0.8000000000D+00  0.1000000000D+01
 ****
      4 0
 S   3 1.00       0.000000000000
      0.1873113696D+02  0.3349460434D-01
      0.2825394365D+01  0.2347269535D+00
      0.6401216923D+00  0.8137573261D+00
 S   1 1.00       0.000000000000
      0.1612777588D+00  0.1000000000D+01
 ****
      5 0
 S   6 1.00       0.000000000000
      0.3047524880D+04  0.1834737132D-02
      0.4573695180D+03  0.1403732281D-01
      0.1039486850D+03  0.6884262226D-01
      0.2921015530D+02  0.2321844432D+00
      0.9286662960D+01  0.4679413484D+00
      0.3163926960D+01  0.3623119853D+00
 SP   3 1.00       0.000000000000
      0.7868272350D+01 -0.1193324198D+00  0.6899906659D-01
      0.1881288540D+01 -0.1608541517D+00  0.3164239610D+00
      0.5442492580D+00  0.1143456438D+01  0.7443082909D+00
 SP   1 1.00       0.000000000000
      0.1687144782D+00  0.1000000000D+01  0.1000000000D+01
 D   1 1.00       0.000000000000
      0.8000000000D+00  0.1000000000D+01
 ****
      6 0
 S   6 1.00       0.000000000000
      0.3047524880D+04  0.1834737132D-02
      0.4573695180D+03  0.1403732281D-01
      0.1039486850D+03  0.6884262226D-01
      0.2921015530D+02  0.2321844432D+00
      0.9286662960D+01  0.4679413484D+00
      0.3163926960D+01  0.3623119853D+00
 SP   3 1.00       0.000000000000
      0.7868272350D+01 -0.1193324198D+00  0.6899906659D-01
      0.1881288540D+01 -0.1608541517D+00  0.3164239610D+00
      0.5442492580D+00  0.1143456438D+01  0.7443082909D+00
 SP   1 1.00       0.000000000000
      0.1687144782D+00  0.1000000000D+01  0.1000000000D+01
 D   1 1.00       0.000000000000
      0.8000000000D+00  0.1000000000D+01
 ****
      7 0
 S   3 1.00       0.000000000000
      0.1873113696D+02  0.3349460434D-01
      0.2825394365D+01  0.2347269535D+00
      0.6401216923D+00  0.8137573261D+00
 S   1 1.00       0.000000000000
      0.1612777588D+00  0.1000000000D+01
 ****
      8 0
 S   6 1.00       0.000000000000
      0.3047524880D+04  0.1834737132D-02
      0.4573695180D+03  0.1403732281D-01
      0.1039486850D+03  0.6884262226D-01
      0.2921015530D+02  0.2321844432D+00
      0.9286662960D+01  0.4679413484D+00
      0.3163926960D+01  0.3623119853D+00
 SP   3 1.00       0.000000000000
      0.7868272350D+01 -0.1193324198D+00  0.6899906659D-01
      0.1881288540D+01 -0.1608541517D+00  0.3164239610D+00
      0.5442492580D+00  0.1143456438D+01  0.7443082909D+00
 SP   1 1.00       0.000000000000
      0.1687144782D+00  0.1000000000D+01  0.1000000000D+01
 D   1 1.00       0.000000000000
      0.8000000000D+00  0.1000000000D+01
 ****
      9 0
 S   3 1.00       0.000000000000
      0.1873113696D+02  0.3349460434D-01
      0.2825394365D+01  0.2347269535D+00
      0.6401216923D+00  0.8137573261D+00
 S   1 1.00       0.000000000000
      0.1612777588D+00  0.1000000000D+01
 ****
     10 0
 S   6 1.00       0.000000000000
      0.3047524880D+04  0.1834737132D-02
      0.4573695180D+03  0.1403732281D-01
      0.1039486850D+03  0.6884262226D-01
      0.2921015530D+02  0.2321844432D+00
      0.9286662960D+01  0.4679413484D+00
      0.3163926960D+01  0.3623119853D+00
 SP   3 1.00       0.000000000000
      0.7868272350D+01 -0.1193324198D+00  0.6899906659D-01
      0.1881288540D+01 -0.1608541517D+00  0.3164239610D+00
      0.5442492580D+00  0.1143456438D+01  0.7443082909D+00
 SP   1 1.00       0.000000000000
      0.1687144782D+00  0.1000000000D+01  0.1000000000D+01
 D   1 1.00       0.000000000000
      0.8000000000D+00  0.1000000000D+01
 ****
     11 0
 S   3 1.00       0.000000000000
      0.1873113696D+02  0.3349460434D-01
      0.2825394365D+01  0.2347269535D+00
      0.6401216923D+00  0.8137573261D+00
 S   1 1.00       0.000000000000
      0.1612777588D+00  0.1000000000D+01
 ****
     12 0
 S   6 1.00       0.000000000000
      0.3047524880D+04  0.1834737132D-02
      0.4573695180D+03  0.1403732281D-01
      0.1039486850D+03  0.6884262226D-01
      0.2921015530D+02  0.2321844432D+00
      0.9286662960D+01  0.4679413484D+00
      0.3163926960D+01  0.3623119853D+00
 SP   3 1.00       0.000000000000
      0.7868272350D+01 -0.1193324198D+00  0.6899906659D-01
      0.1881288540D+01 -0.1608541517D+00  0.3164239610D+00
      0.5442492580D+00  0.1143456438D+01  0.7443082909D+00
 SP   1 1.00       0.000000000000
      0.1687144782D+00  0.1000000000D+01  0.1000000000D+01
 D   1 1.00       0.000000000000
      0.8000000000D+00  0.1000000000D+01
 ****
     13 0
 S   3 1.00       0.000000000000
      0.1873113696D+02  0.3349460434D-01
      0.2825394365D+01  0.2347269535D+00
      0.6401216923D+00  0.8137573261D+00
 S   1 1.00       0.000000000000
      0.1612777588D+00  0.1000000000D+01
 ****
     14 0
 S   6 1.00       0.000000000000
      0.3047524880D+04  0.1834737132D-02
      0.4573695180D+03  0.1403732281D-01
      0.1039486850D+03  0.6884262226D-01
      0.2921015530D+02  0.2321844432D+00
      0.9286662960D+01  0.4679413484D+00
      0.3163926960D+01  0.3623119853D+00
 SP   3 1.00       0.000000000000
      0.7868272350D+01 -0.1193324198D+00  0.6899906659D-01
      0.1881288540D+01 -0.1608541517D+00  0.3164239610D+00
      0.5442492580D+00  0.1143456438D+01  0.7443082909D+00
 SP   1 1.00       0.000000000000
      0.1687144782D+00  0.1000000000D+01  0.1000000000D+01
 D   1 1.00       0.000000000000
      0.8000000000D+00  0.1000000000D+01
 ****
     15 0
 S   3 1.00       0.000000000000
      0.1873113696D+02  0.3349460434D-01
      0.2825394365D+01  0.2347269535D+00
      0.6401216923D+00  0.8137573261D+00
 S   1 1.00       0.000000000000
      0.1612777588D+00  0.1000000000D+01
 ****
     16 0
 S   3 1.00       0.000000000000
      0.1873113696D+02  0.3349460434D-01
      0.2825394365D+01  0.2347269535D+00
      0.6401216923D+00  0.8137573261D+00
 S   1 1.00       0.000000000000
      0.1612777588D+00  0.1000000000D+01
 ****
     17 0
 S   6 1.00       0.000000000000
      0.3047524880D+04  0.1834737132D-02
      0.4573695180D+03  0.1403732281D-01
      0.1039486850D+03  0.6884262226D-01
      0.2921015530D+02  0.2321844432D+00
      0.9286662960D+01  0.4679413484D+00
      0.3163926960D+01  0.3623119853D+00
 SP   3 1.00       0.000000000000
      0.7868272350D+01 -0.1193324198D+00  0.6899906659D-01
      0.1881288540D+01 -0.1608541517D+00  0.3164239610D+00
      0.5442492580D+00  0.1143456438D+01  0.7443082909D+00
 SP   1 1.00       0.000000000000
      0.1687144782D+00  0.1000000000D+01  0.1000000000D+01
 D   1 1.00       0.000000000000
      0.8000000000D+00  0.1000000000D+01
 ****
     18 0
 S   6 1.00       0.000000000000
      0.3047524880D+04  0.1834737132D-02
      0.4573695180D+03  0.1403732281D-01
      0.1039486850D+03  0.6884262226D-01
      0.2921015530D+02  0.2321844432D+00
      0.9286662960D+01  0.4679413484D+00
      0.3163926960D+01  0.3623119853D+00
 SP   3 1.00       0.000000000000
      0.7868272350D+01 -0.1193324198D+00  0.6899906659D-01
      0.1881288540D+01 -0.1608541517D+00  0.3164239610D+00
      0.5442492580D+00  0.1143456438D+01  0.7443082909D+00
 SP   1 1.00       0.000000000000
      0.1687144782D+00  0.1000000000D+01  0.1000000000D+01
 D   1 1.00       0.000000000000
      0.8000000000D+00  0.1000000000D+01
 ****
     19 0
 S   3 1.00       0.000000000000
      0.1873113696D+02  0.3349460434D-01
      0.2825394365D+01  0.2347269535D+00
      0.6401216923D+00  0.8137573261D+00
 S   1 1.00       0.000000000000
      0.1612777588D+00  0.1000000000D+01
 ****
     20 0
 S   3 1.00       0.000000000000
      0.1873113696D+02  0.3349460434D-01
      0.2825394365D+01  0.2347269535D+00
      0.6401216923D+00  0.8137573261D+00
 S   1 1.00       0.000000000000
      0.1612777588D+00  0.1000000000D+01
 ****
     21 0
 S   6 1.00       0.000000000000
      0.3047524880D+04  0.1834737132D-02
      0.4573695180D+03  0.1403732281D-01
      0.1039486850D+03  0.6884262226D-01
      0.2921015530D+02  0.2321844432D+00
      0.9286662960D+01  0.4679413484D+00
      0.3163926960D+01  0.3623119853D+00
 SP   3 1.00       0.000000000000
      0.7868272350D+01 -0.1193324198D+00  0.6899906659D-01
      0.1881288540D+01 -0.1608541517D+00  0.3164239610D+00
      0.5442492580D+00  0.1143456438D+01  0.7443082909D+00
 SP   1 1.00       0.000000000000
      0.1687144782D+00  0.1000000000D+01  0.1000000000D+01
 D   1 1.00       0.000000000000
      0.8000000000D+00  0.1000000000D+01
 ****
     22 0
 S   3 1.00       0.000000000000
      0.1873113696D+02  0.3349460434D-01
      0.2825394365D+01  0.2347269535D+00
      0.6401216923D+00  0.8137573261D+00
 S   1 1.00       0.000000000000
      0.1612777588D+00  0.1000000000D+01
 ****
     23 0
 S   3 1.00       0.000000000000
      0.1873113696D+02  0.3349460434D-01
      0.2825394365D+01  0.2347269535D+00
      0.6401216923D+00  0.8137573261D+00
 S   1 1.00       0.000000000000
      0.1612777588D+00  0.1000000000D+01
 ****
     24 0
 S   6 1.00       0.000000000000
      0.3047524880D+04  0.1834737132D-02
      0.4573695180D+03  0.1403732281D-01
      0.1039486850D+03  0.6884262226D-01
      0.2921015530D+02  0.2321844432D+00
      0.9286662960D+01  0.4679413484D+00
      0.3163926960D+01  0.3623119853D+00
 SP   3 1.00       0.000000000000
      0.7868272350D+01 -0.1193324198D+00  0.6899906659D-01
      0.1881288540D+01 -0.1608541517D+00  0.3164239610D+00
      0.5442492580D+00  0.1143456438D+01  0.7443082909D+00
 SP   1 1.00       0.000000000000
      0.1687144782D+00  0.1000000000D+01  0.1000000000D+01
 D   1 1.00       0.000000000000
      0.8000000000D+00  0.1000000000D+01
 ****
     25 0
 S   3 1.00       0.000000000000
      0.1873113696D+02  0.3349460434D-01
      0.2825394365D+01  0.2347269535D+00
      0.6401216923D+00  0.8137573261D+00
 S   1 1.00       0.000000000000
      0.1612777588D+00  0.1000000000D+01
 ****
     26 0
 S   3 1.00       0.000000000000
      0.1873113696D+02  0.3349460434D-01
      0.2825394365D+01  0.2347269535D+00
      0.6401216923D+00  0.8137573261D+00
 S   1 1.00       0.000000000000
      0.1612777588D+00  0.1000000000D+01
 ****
     27 0
 S   6 1.00       0.000000000000
      0.3047524880D+04  0.1834737132D-02
      0.4573695180D+03  0.1403732281D-01
      0.1039486850D+03  0.6884262226D-01
      0.2921015530D+02  0.2321844432D+00
      0.9286662960D+01  0.4679413484D+00
      0.3163926960D+01  0.3623119853D+00
 SP   3 1.00       0.000000000000
      0.7868272350D+01 -0.1193324198D+00  0.6899906659D-01
      0.1881288540D+01 -0.1608541517D+00  0.3164239610D+00
      0.5442492580D+00  0.1143456438D+01  0.7443082909D+00
 SP   1 1.00       0.000000000000
      0.1687144782D+00  0.1000000000D+01  0.1000000000D+01
 D   1 1.00       0.000000000000
      0.8000000000D+00  0.1000000000D+01
 ****
     28 0
 S   3 1.00       0.000000000000
      0.1873113696D+02  0.3349460434D-01
      0.2825394365D+01  0.2347269535D+00
      0.6401216923D+00  0.8137573261D+00
 S   1 1.00       0.000000000000
      0.1612777588D+00  0.1000000000D+01
 ****
     29 0
 S   6 1.00       0.000000000000
      0.3047524880D+04  0.1834737132D-02
      0.4573695180D+03  0.1403732281D-01
      0.1039486850D+03  0.6884262226D-01
      0.2921015530D+02  0.2321844432D+00
      0.9286662960D+01  0.4679413484D+00
      0.3163926960D+01  0.3623119853D+00
 SP   3 1.00       0.000000000000
      0.7868272350D+01 -0.1193324198D+00  0.6899906659D-01
      0.1881288540D+01 -0.1608541517D+00  0.3164239610D+00
      0.5442492580D+00  0.1143456438D+01  0.7443082909D+00
 SP   1 1.00       0.000000000000
      0.1687144782D+00  0.1000000000D+01  0.1000000000D+01
 D   1 1.00       0.000000000000
      0.8000000000D+00  0.1000000000D+01
 ****
     30 0
 S   3 1.00       0.000000000000
      0.1873113696D+02  0.3349460434D-01
      0.2825394365D+01  0.2347269535D+00
      0.6401216923D+00  0.8137573261D+00
 S   1 1.00       0.000000000000
      0.1612777588D+00  0.1000000000D+01
 ****
     31 0
 S   6 1.00       0.000000000000
      0.3047524880D+04  0.1834737132D-02
      0.4573695180D+03  0.1403732281D-01
      0.1039486850D+03  0.6884262226D-01
      0.2921015530D+02  0.2321844432D+00
      0.9286662960D+01  0.4679413484D+00
      0.3163926960D+01  0.3623119853D+00
 SP   3 1.00       0.000000000000
      0.7868272350D+01 -0.1193324198D+00  0.6899906659D-01
      0.1881288540D+01 -0.1608541517D+00  0.3164239610D+00
      0.5442492580D+00  0.1143456438D+01  0.7443082909D+00
 SP   1 1.00       0.000000000000
      0.1687144782D+00  0.1000000000D+01  0.1000000000D+01
 D   1 1.00       0.000000000000
      0.8000000000D+00  0.1000000000D+01
 ****
     32 0
 S   3 1.00       0.000000000000
      0.1873113696D+02  0.3349460434D-01
      0.2825394365D+01  0.2347269535D+00
      0.6401216923D+00  0.8137573261D+00
 S   1 1.00       0.000000000000
      0.1612777588D+00  0.1000000000D+01
 ****
     33 0
 S   3 1.00       0.000000000000
      0.1873113696D+02  0.3349460434D-01
      0.2825394365D+01  0.2347269535D+00
      0.6401216923D+00  0.8137573261D+00
 S   1 1.00       0.000000000000
      0.1612777588D+00  0.1000000000D+01
 ****
     34 0
 S   3 1.00       0.000000000000
      0.1873113696D+02  0.3349460434D-01
      0.2825394365D+01  0.2347269535D+00
      0.6401216923D+00  0.8137573261D+00
 S   1 1.00       0.000000000000
      0.1612777588D+00  0.1000000000D+01
 ****
     35 0
 S   6 1.00       0.000000000000
      0.3047524880D+04  0.1834737132D-02
      0.4573695180D+03  0.1403732281D-01
      0.1039486850D+03  0.6884262226D-01
      0.2921015530D+02  0.2321844432D+00
      0.9286662960D+01  0.4679413484D+00
      0.3163926960D+01  0.3623119853D+00
 SP   3 1.00       0.000000000000
      0.7868272350D+01 -0.1193324198D+00  0.6899906659D-01
      0.1881288540D+01 -0.1608541517D+00  0.3164239610D+00
      0.5442492580D+00  0.1143456438D+01  0.7443082909D+00
 SP   1 1.00       0.000000000000
      0.1687144782D+00  0.1000000000D+01  0.1000000000D+01
 D   1 1.00       0.000000000000
      0.8000000000D+00  0.1000000000D+01
 ****
     36 0
 S   6 1.00       0.000000000000
      0.3047524880D+04  0.1834737132D-02
      0.4573695180D+03  0.1403732281D-01
      0.1039486850D+03  0.6884262226D-01
      0.2921015530D+02  0.2321844432D+00
      0.9286662960D+01  0.4679413484D+00
      0.3163926960D+01  0.3623119853D+00
 SP   3 1.00       0.000000000000
      0.7868272350D+01 -0.1193324198D+00  0.6899906659D-01
      0.1881288540D+01 -0.1608541517D+00  0.3164239610D+00
      0.5442492580D+00  0.1143456438D+01  0.7443082909D+00
 SP   1 1.00       0.000000000000
      0.1687144782D+00  0.1000000000D+01  0.1000000000D+01
 D   1 1.00       0.000000000000
      0.8000000000D+00  0.1000000000D+01
 ****
     37 0
 S   3 1.00       0.000000000000
      0.1873113696D+02  0.3349460434D-01
      0.2825394365D+01  0.2347269535D+00
      0.6401216923D+00  0.8137573261D+00
 S   1 1.00       0.000000000000
      0.1612777588D+00  0.1000000000D+01
 ****
     38 0
 S   3 1.00       0.000000000000
      0.1873113696D+02  0.3349460434D-01
      0.2825394365D+01  0.2347269535D+00
      0.6401216923D+00  0.8137573261D+00
 S   1 1.00       0.000000000000
      0.1612777588D+00  0.1000000000D+01
 ****
     39 0
 S   6 1.00       0.000000000000
      0.3047524880D+04  0.1834737132D-02
      0.4573695180D+03  0.1403732281D-01
      0.1039486850D+03  0.6884262226D-01
      0.2921015530D+02  0.2321844432D+00
      0.9286662960D+01  0.4679413484D+00
      0.3163926960D+01  0.3623119853D+00
 SP   3 1.00       0.000000000000
      0.7868272350D+01 -0.1193324198D+00  0.6899906659D-01
      0.1881288540D+01 -0.1608541517D+00  0.3164239610D+00
      0.5442492580D+00  0.1143456438D+01  0.7443082909D+00
 SP   1 1.00       0.000000000000
      0.1687144782D+00  0.1000000000D+01  0.1000000000D+01
 D   1 1.00       0.000000000000
      0.8000000000D+00  0.1000000000D+01
 ****
     40 0
 S   3 1.00       0.000000000000
      0.1873113696D+02  0.3349460434D-01
      0.2825394365D+01  0.2347269535D+00
      0.6401216923D+00  0.8137573261D+00
 S   1 1.00       0.000000000000
      0.1612777588D+00  0.1000000000D+01
 ****
     41 0
 S   6 1.00       0.000000000000
      0.3047524880D+04  0.1834737132D-02
      0.4573695180D+03  0.1403732281D-01
      0.1039486850D+03  0.6884262226D-01
      0.2921015530D+02  0.2321844432D+00
      0.9286662960D+01  0.4679413484D+00
      0.3163926960D+01  0.3623119853D+00
 SP   3 1.00       0.000000000000
      0.7868272350D+01 -0.1193324198D+00  0.6899906659D-01
      0.1881288540D+01 -0.1608541517D+00  0.3164239610D+00
      0.5442492580D+00  0.1143456438D+01  0.7443082909D+00
 SP   1 1.00       0.000000000000
      0.1687144782D+00  0.1000000000D+01  0.1000000000D+01
 D   1 1.00       0.000000000000
      0.8000000000D+00  0.1000000000D+01
 ****
     42 0
 S   3 1.00       0.000000000000
      0.1873113696D+02  0.3349460434D-01
      0.2825394365D+01  0.2347269535D+00
      0.6401216923D+00  0.8137573261D+00
 S   1 1.00       0.000000000000
      0.1612777588D+00  0.1000000000D+01
 ****
     43 0
 S   3 1.00       0.000000000000
      0.1873113696D+02  0.3349460434D-01
      0.2825394365D+01  0.2347269535D+00
      0.6401216923D+00  0.8137573261D+00
 S   1 1.00       0.000000000000
      0.1612777588D+00  0.1000000000D+01
 ****
     44 0
 S   3 1.00       0.000000000000
      0.1873113696D+02  0.3349460434D-01
      0.2825394365D+01  0.2347269535D+00
      0.6401216923D+00  0.8137573261D+00
 S   1 1.00       0.000000000000
      0.1612777588D+00  0.1000000000D+01
 ****
     45 0
 S   6 1.00       0.000000000000
      0.3047524880D+04  0.1834737132D-02
      0.4573695180D+03  0.1403732281D-01
      0.1039486850D+03  0.6884262226D-01
      0.2921015530D+02  0.2321844432D+00
      0.9286662960D+01  0.4679413484D+00
      0.3163926960D+01  0.3623119853D+00
 SP   3 1.00       0.000000000000
      0.7868272350D+01 -0.1193324198D+00  0.6899906659D-01
      0.1881288540D+01 -0.1608541517D+00  0.3164239610D+00
      0.5442492580D+00  0.1143456438D+01  0.7443082909D+00
 SP   1 1.00       0.000000000000
      0.1687144782D+00  0.1000000000D+01  0.1000000000D+01
 D   1 1.00       0.000000000000
      0.8000000000D+00  0.1000000000D+01
 ****
     46 0
 S   3 1.00       0.000000000000
      0.1873113696D+02  0.3349460434D-01
      0.2825394365D+01  0.2347269535D+00
      0.6401216923D+00  0.8137573261D+00
 S   1 1.00       0.000000000000
      0.1612777588D+00  0.1000000000D+01
 ****
     47 0
 S   3 1.00       0.000000000000
      0.1873113696D+02  0.3349460434D-01
      0.2825394365D+01  0.2347269535D+00
      0.6401216923D+00  0.8137573261D+00
 S   1 1.00       0.000000000000
      0.1612777588D+00  0.1000000000D+01
 ****
     48 0
 S   6 1.00       0.000000000000
      0.3047524880D+04  0.1834737132D-02
      0.4573695180D+03  0.1403732281D-01
      0.1039486850D+03  0.6884262226D-01
      0.2921015530D+02  0.2321844432D+00
      0.9286662960D+01  0.4679413484D+00
      0.3163926960D+01  0.3623119853D+00
 SP   3 1.00       0.000000000000
      0.7868272350D+01 -0.1193324198D+00  0.6899906659D-01
      0.1881288540D+01 -0.1608541517D+00  0.3164239610D+00
      0.5442492580D+00  0.1143456438D+01  0.7443082909D+00
 SP   1 1.00       0.000000000000
      0.1687144782D+00  0.1000000000D+01  0.1000000000D+01
 D   1 1.00       0.000000000000
      0.8000000000D+00  0.1000000000D+01
 ****
     49 0
 S   3 1.00       0.000000000000
      0.1873113696D+02  0.3349460434D-01
      0.2825394365D+01  0.2347269535D+00
      0.6401216923D+00  0.8137573261D+00
 S   1 1.00       0.000000000000
      0.1612777588D+00  0.1000000000D+01
 ****
     50 0
 S   3 1.00       0.000000000000
      0.1873113696D+02  0.3349460434D-01
      0.2825394365D+01  0.2347269535D+00
      0.6401216923D+00  0.8137573261D+00
 S   1 1.00       0.000000000000
      0.1612777588D+00  0.1000000000D+01
 ****
     51 0
 S   6 1.00       0.000000000000
      0.3047524880D+04  0.1834737132D-02
      0.4573695180D+03  0.1403732281D-01
      0.1039486850D+03  0.6884262226D-01
      0.2921015530D+02  0.2321844432D+00
      0.9286662960D+01  0.4679413484D+00
      0.3163926960D+01  0.3623119853D+00
 SP   3 1.00       0.000000000000
      0.7868272350D+01 -0.1193324198D+00  0.6899906659D-01
      0.1881288540D+01 -0.1608541517D+00  0.3164239610D+00
      0.5442492580D+00  0.1143456438D+01  0.7443082909D+00
 SP   1 1.00       0.000000000000
      0.1687144782D+00  0.1000000000D+01  0.1000000000D+01
 D   1 1.00       0.000000000000
      0.8000000000D+00  0.1000000000D+01
 ****
     52 0
 S   3 1.00       0.000000000000
      0.1873113696D+02  0.3349460434D-01
      0.2825394365D+01  0.2347269535D+00
      0.6401216923D+00  0.8137573261D+00
 S   1 1.00       0.000000000000
      0.1612777588D+00  0.1000000000D+01
 ****
     53 0
 S   3 1.00       0.000000000000
      0.1873113696D+02  0.3349460434D-01
      0.2825394365D+01  0.2347269535D+00
      0.6401216923D+00  0.8137573261D+00
 S   1 1.00       0.000000000000
      0.1612777588D+00  0.1000000000D+01
 ****
     54 0
 S   6 1.00       0.000000000000
      0.3047524880D+04  0.1834737132D-02
      0.4573695180D+03  0.1403732281D-01
      0.1039486850D+03  0.6884262226D-01
      0.2921015530D+02  0.2321844432D+00
      0.9286662960D+01  0.4679413484D+00
      0.3163926960D+01  0.3623119853D+00
 SP   3 1.00       0.000000000000
      0.7868272350D+01 -0.1193324198D+00  0.6899906659D-01
      0.1881288540D+01 -0.1608541517D+00  0.3164239610D+00
      0.5442492580D+00  0.1143456438D+01  0.7443082909D+00
 SP   1 1.00       0.000000000000
      0.1687144782D+00  0.1000000000D+01  0.1000000000D+01
 D   1 1.00       0.000000000000
      0.8000000000D+00  0.1000000000D+01
 ****
     55 0
 S   3 1.00       0.000000000000
      0.1873113696D+02  0.3349460434D-01
      0.2825394365D+01  0.2347269535D+00
      0.6401216923D+00  0.8137573261D+00
 S   1 1.00       0.000000000000
      0.1612777588D+00  0.1000000000D+01
 ****
     56 0
 S   6 1.00       0.000000000000
      0.3047524880D+04  0.1834737132D-02
      0.4573695180D+03  0.1403732281D-01
      0.1039486850D+03  0.6884262226D-01
      0.2921015530D+02  0.2321844432D+00
      0.9286662960D+01  0.4679413484D+00
      0.3163926960D+01  0.3623119853D+00
 SP   3 1.00       0.000000000000
      0.7868272350D+01 -0.1193324198D+00  0.6899906659D-01
      0.1881288540D+01 -0.1608541517D+00  0.3164239610D+00
      0.5442492580D+00  0.1143456438D+01  0.7443082909D+00
 SP   1 1.00       0.000000000000
      0.1687144782D+00  0.1000000000D+01  0.1000000000D+01
 D   1 1.00       0.000000000000
      0.8000000000D+00  0.1000000000D+01
 ****
     57 0
 S   3 1.00       0.000000000000
      0.1873113696D+02  0.3349460434D-01
      0.2825394365D+01  0.2347269535D+00
      0.6401216923D+00  0.8137573261D+00
 S   1 1.00       0.000000000000
      0.1612777588D+00  0.1000000000D+01
 ****
     58 0
 S   3 1.00       0.000000000000
      0.1873113696D+02  0.3349460434D-01
      0.2825394365D+01  0.2347269535D+00
      0.6401216923D+00  0.8137573261D+00
 S   1 1.00       0.000000000000
      0.1612777588D+00  0.1000000000D+01
 ****
     59 0
 S   3 1.00       0.000000000000
      0.1873113696D+02  0.3349460434D-01
      0.2825394365D+01  0.2347269535D+00
      0.6401216923D+00  0.8137573261D+00
 S   1 1.00       0.000000000000
      0.1612777588D+00  0.1000000000D+01
 ****
     60 0
 S   6 1.00       0.000000000000
      0.3047524880D+04  0.1834737132D-02
      0.4573695180D+03  0.1403732281D-01
      0.1039486850D+03  0.6884262226D-01
      0.2921015530D+02  0.2321844432D+00
      0.9286662960D+01  0.4679413484D+00
      0.3163926960D+01  0.3623119853D+00
 SP   3 1.00       0.000000000000
      0.7868272350D+01 -0.1193324198D+00  0.6899906659D-01
      0.1881288540D+01 -0.1608541517D+00  0.3164239610D+00
      0.5442492580D+00  0.1143456438D+01  0.7443082909D+00
 SP   1 1.00       0.000000000000
      0.1687144782D+00  0.1000000000D+01  0.1000000000D+01
 D   1 1.00       0.000000000000
      0.8000000000D+00  0.1000000000D+01
 ****
     61 0
 S   3 1.00       0.000000000000
      0.1873113696D+02  0.3349460434D-01
      0.2825394365D+01  0.2347269535D+00
      0.6401216923D+00  0.8137573261D+00
 S   1 1.00       0.000000000000
      0.1612777588D+00  0.1000000000D+01
 ****
     62 0
 S   3 1.00       0.000000000000
      0.1873113696D+02  0.3349460434D-01
      0.2825394365D+01  0.2347269535D+00
      0.6401216923D+00  0.8137573261D+00
 S   1 1.00       0.000000000000
      0.1612777588D+00  0.1000000000D+01
 ****
     63 0
 S   6 1.00       0.000000000000
      0.3047524880D+04  0.1834737132D-02
      0.4573695180D+03  0.1403732281D-01
      0.1039486850D+03  0.6884262226D-01
      0.2921015530D+02  0.2321844432D+00
      0.9286662960D+01  0.4679413484D+00
      0.3163926960D+01  0.3623119853D+00
 SP   3 1.00       0.000000000000
      0.7868272350D+01 -0.1193324198D+00  0.6899906659D-01
      0.1881288540D+01 -0.1608541517D+00  0.3164239610D+00
      0.5442492580D+00  0.1143456438D+01  0.7443082909D+00
 SP   1 1.00       0.000000000000
      0.1687144782D+00  0.1000000000D+01  0.1000000000D+01
 D   1 1.00       0.000000000000
      0.8000000000D+00  0.1000000000D+01
 ****
     64 0
 S   3 1.00       0.000000000000
      0.1873113696D+02  0.3349460434D-01
      0.2825394365D+01  0.2347269535D+00
      0.6401216923D+00  0.8137573261D+00
 S   1 1.00       0.000000000000
      0.1612777588D+00  0.1000000000D+01
 ****
     65 0
 S   3 1.00       0.000000000000
      0.1873113696D+02  0.3349460434D-01
      0.2825394365D+01  0.2347269535D+00
      0.6401216923D+00  0.8137573261D+00
 S   1 1.00       0.000000000000
      0.1612777588D+00  0.1000000000D+01
 ****
     66 0
 S   6 1.00       0.000000000000
      0.3047524880D+04  0.1834737132D-02
      0.4573695180D+03  0.1403732281D-01
      0.1039486850D+03  0.6884262226D-01
      0.2921015530D+02  0.2321844432D+00
      0.9286662960D+01  0.4679413484D+00
      0.3163926960D+01  0.3623119853D+00
 SP   3 1.00       0.000000000000
      0.7868272350D+01 -0.1193324198D+00  0.6899906659D-01
      0.1881288540D+01 -0.1608541517D+00  0.3164239610D+00
      0.5442492580D+00  0.1143456438D+01  0.7443082909D+00
 SP   1 1.00       0.000000000000
      0.1687144782D+00  0.1000000000D+01  0.1000000000D+01
 D   1 1.00       0.000000000000
      0.8000000000D+00  0.1000000000D+01
 ****
     67 0
 S   3 1.00       0.000000000000
      0.1873113696D+02  0.3349460434D-01
      0.2825394365D+01  0.2347269535D+00
      0.6401216923D+00  0.8137573261D+00
 S   1 1.00       0.000000000000
      0.1612777588D+00  0.1000000000D+01
 ****
     68 0
 S   6 1.00       0.000000000000
      0.3047524880D+04  0.1834737132D-02
      0.4573695180D+03  0.1403732281D-01
      0.1039486850D+03  0.6884262226D-01
      0.2921015530D+02  0.2321844432D+00
      0.9286662960D+01  0.4679413484D+00
      0.3163926960D+01  0.3623119853D+00
 SP   3 1.00       0.000000000000
      0.7868272350D+01 -0.1193324198D+00  0.6899906659D-01
      0.1881288540D+01 -0.1608541517D+00  0.3164239610D+00
      0.5442492580D+00  0.1143456438D+01  0.7443082909D+00
 SP   1 1.00       0.000000000000
      0.1687144782D+00  0.1000000000D+01  0.1000000000D+01
 D   1 1.00       0.000000000000
      0.8000000000D+00  0.1000000000D+01
 ****
     69 0
 S   3 1.00       0.000000000000
      0.1873113696D+02  0.3349460434D-01
      0.2825394365D+01  0.2347269535D+00
      0.6401216923D+00  0.8137573261D+00
 S   1 1.00       0.000000000000
      0.1612777588D+00  0.1000000000D+01
 ****
     70 0
 S   3 1.00       0.000000000000
      0.1873113696D+02  0.3349460434D-01
      0.2825394365D+01  0.2347269535D+00
      0.6401216923D+00  0.8137573261D+00
 S   1 1.00       0.000000000000
      0.1612777588D+00  0.1000000000D+01
 ****
     71 0
 S   3 1.00       0.000000000000
      0.1873113696D+02  0.3349460434D-01
      0.2825394365D+01  0.2347269535D+00
      0.6401216923D+00  0.8137573261D+00
 S   1 1.00       0.000000000000
      0.1612777588D+00  0.1000000000D+01
 ****
     72 0
 S   6 1.00       0.000000000000
      0.3047524880D+04  0.1834737132D-02
      0.4573695180D+03  0.1403732281D-01
      0.1039486850D+03  0.6884262226D-01
      0.2921015530D+02  0.2321844432D+00
      0.9286662960D+01  0.4679413484D+00
      0.3163926960D+01  0.3623119853D+00
 SP   3 1.00       0.000000000000
      0.7868272350D+01 -0.1193324198D+00  0.6899906659D-01
      0.1881288540D+01 -0.1608541517D+00  0.3164239610D+00
      0.5442492580D+00  0.1143456438D+01  0.7443082909D+00
 SP   1 1.00       0.000000000000
      0.1687144782D+00  0.1000000000D+01  0.1000000000D+01
 D   1 1.00       0.000000000000
      0.8000000000D+00  0.1000000000D+01
 ****
     73 0
 S   3 1.00       0.000000000000
      0.1873113696D+02  0.3349460434D-01
      0.2825394365D+01  0.2347269535D+00
      0.6401216923D+00  0.8137573261D+00
 S   1 1.00       0.000000000000
      0.1612777588D+00  0.1000000000D+01
 ****
     74 0
 S   3 1.00       0.000000000000
      0.1873113696D+02  0.3349460434D-01
      0.2825394365D+01  0.2347269535D+00
      0.6401216923D+00  0.8137573261D+00
 S   1 1.00       0.000000000000
      0.1612777588D+00  0.1000000000D+01
 ****
     75 0
 S   3 1.00       0.000000000000
      0.1873113696D+02  0.3349460434D-01
      0.2825394365D+01  0.2347269535D+00
      0.6401216923D+00  0.8137573261D+00
 S   1 1.00       0.000000000000
      0.1612777588D+00  0.1000000000D+01
 ****

 AO basis set (Overlap normalization):
 Atom O1       Shell     1 S   6     bf    1 -     1         12.721366983920          1.549879051264          0.000000000000
      0.5484671660D+04  0.1831074430D-02
      0.8252349460D+03  0.1395017220D-01
      0.1880469580D+03  0.6844507810D-01
      0.5296450000D+02  0.2327143360D+00
      0.1689757040D+02  0.4701928980D+00
      0.5799635340D+01  0.3585208530D+00
 Atom O1       Shell     2 SP   3    bf    2 -     5         12.721366983920          1.549879051264          0.000000000000
      0.1553961625D+02 -0.1107775495D+00  0.7087426823D-01
      0.3599933586D+01 -0.1480262627D+00  0.3397528391D+00
      0.1013761750D+01  0.1130767015D+01  0.7271585773D+00
 Atom O1       Shell     3 SP   1    bf    6 -     9         12.721366983920          1.549879051264          0.000000000000
      0.2700058226D+00  0.1000000000D+01  0.1000000000D+01
 Atom O1       Shell     4 D   1     bf   10 -    15         12.721366983920          1.549879051264          0.000000000000
      0.8000000000D+00  0.1000000000D+01
 Atom H2       Shell     5 S   3     bf   16 -    16         13.687732166885          0.000000000000          0.000000000000
      0.1873113696D+02  0.3349460434D-01
      0.2825394365D+01  0.2347269535D+00
      0.6401216923D+00  0.8137573261D+00
 Atom H2       Shell     6 S   1     bf   17 -    17         13.687732166885          0.000000000000          0.000000000000
      0.1612777588D+00  0.1000000000D+01
 Atom O3       Shell     7 S   6     bf   18 -    18         21.536556403037         -2.673358275897          8.094708937699
      0.5484671660D+04  0.1831074430D-02
      0.8252349460D+03  0.1395017220D-01
      0.1880469580D+03  0.6844507810D-01
      0.5296450000D+02  0.2327143360D+00
      0.1689757040D+02  0.4701928980D+00
      0.5799635340D+01  0.3585208530D+00
 Atom O3       Shell     8 SP   3    bf   19 -    22         21.536556403037         -2.673358275897          8.094708937699
      0.1553961625D+02 -0.1107775495D+00  0.7087426823D-01
      0.3599933586D+01 -0.1480262627D+00  0.3397528391D+00
      0.1013761750D+01  0.1130767015D+01  0.7271585773D+00
 Atom O3       Shell     9 SP   1    bf   23 -    26         21.536556403037         -2.673358275897          8.094708937699
      0.2700058226D+00  0.1000000000D+01  0.1000000000D+01
 Atom O3       Shell    10 D   1     bf   27 -    32         21.536556403037         -2.673358275897          8.094708937699
      0.8000000000D+00  0.1000000000D+01
 Atom H4       Shell    11 S   3     bf   33 -    33         21.429813899612         -2.129991299140          9.837259835643
      0.1873113696D+02  0.3349460434D-01
      0.2825394365D+01  0.2347269535D+00
      0.6401216923D+00  0.8137573261D+00
 Atom H4       Shell    12 S   1     bf   34 -    34         21.429813899612         -2.129991299140          9.837259835643
      0.1612777588D+00  0.1000000000D+01
 Atom C5       Shell    13 S   6     bf   35 -    35          5.619553604592         -0.121678048402          3.787739716419
      0.3047524880D+04  0.1834737132D-02
      0.4573695180D+03  0.1403732281D-01
      0.1039486850D+03  0.6884262226D-01
      0.2921015530D+02  0.2321844432D+00
      0.9286662960D+01  0.4679413484D+00
      0.3163926960D+01  0.3623119853D+00
 Atom C5       Shell    14 SP   3    bf   36 -    39          5.619553604592         -0.121678048402          3.787739716419
      0.7868272350D+01 -0.1193324198D+00  0.6899906659D-01
      0.1881288540D+01 -0.1608541517D+00  0.3164239610D+00
      0.5442492580D+00  0.1143456438D+01  0.7443082909D+00
 Atom C5       Shell    15 SP   1    bf   40 -    43          5.619553604592         -0.121678048402          3.787739716419
      0.1687144782D+00  0.1000000000D+01  0.1000000000D+01
 Atom C5       Shell    16 D   1     bf   44 -    49          5.619553604592         -0.121678048402          3.787739716419
      0.8000000000D+00  0.1000000000D+01
 Atom C6       Shell    17 S   6     bf   50 -    50          7.931995297349          1.117457517824          2.459030885830
      0.3047524880D+04  0.1834737132D-02
      0.4573695180D+03  0.1403732281D-01
      0.1039486850D+03  0.6884262226D-01
      0.2921015530D+02  0.2321844432D+00
      0.9286662960D+01  0.4679413484D+00
      0.3163926960D+01  0.3623119853D+00
 Atom C6       Shell    18 SP   3    bf   51 -    54          7.931995297349          1.117457517824          2.459030885830
      0.7868272350D+01 -0.1193324198D+00  0.6899906659D-01
      0.1881288540D+01 -0.1608541517D+00  0.3164239610D+00
      0.5442492580D+00  0.1143456438D+01  0.7443082909D+00
 Atom C6       Shell    19 SP   1    bf   55 -    58          7.931995297349          1.117457517824          2.459030885830
      0.1687144782D+00  0.1000000000D+01  0.1000000000D+01
 Atom C6       Shell    20 D   1     bf   59 -    64          7.931995297349          1.117457517824          2.459030885830
      0.8000000000D+00  0.1000000000D+01
 Atom H7       Shell    21 S   3     bf   65 -    65          8.393871557385         -0.129408237710          0.864210991283
      0.1873113696D+02  0.3349460434D-01
      0.2825394365D+01  0.2347269535D+00
      0.6401216923D+00  0.8137573261D+00
 Atom H7       Shell    22 S   1     bf   66 -    66          8.393871557385         -0.129408237710          0.864210991283
      0.1612777588D+00  0.1000000000D+01
 Atom C8       Shell    23 S   6     bf   67 -    67         10.340128885330          1.255463707083          4.064371547162
      0.3047524880D+04  0.1834737132D-02
      0.4573695180D+03  0.1403732281D-01
      0.1039486850D+03  0.6884262226D-01
      0.2921015530D+02  0.2321844432D+00
      0.9286662960D+01  0.4679413484D+00
      0.3163926960D+01  0.3623119853D+00
 Atom C8       Shell    24 SP   3    bf   68 -    71         10.340128885330          1.255463707083          4.064371547162
      0.7868272350D+01 -0.1193324198D+00  0.6899906659D-01
      0.1881288540D+01 -0.1608541517D+00  0.3164239610D+00
      0.5442492580D+00  0.1143456438D+01  0.7443082909D+00
 Atom C8       Shell    25 SP   1    bf   72 -    75         10.340128885330          1.255463707083          4.064371547162
      0.1687144782D+00  0.1000000000D+01  0.1000000000D+01
 Atom C8       Shell    26 D   1     bf   76 -    81         10.340128885330          1.255463707083          4.064371547162
      0.8000000000D+00  0.1000000000D+01
 Atom H9       Shell    27 S   3     bf   82 -    82         10.012244185870          2.513364782931          5.685094484730
      0.1873113696D+02  0.3349460434D-01
      0.2825394365D+01  0.2347269535D+00
      0.6401216923D+00  0.8137573261D+00
 Atom H9       Shell    28 S   1     bf   83 -    83         10.012244185870          2.513364782931          5.685094484730
      0.1612777588D+00  0.1000000000D+01
 Atom C10      Shell    29 S   6     bf   84 -    84         11.075966452934         -1.406010704774          5.045218532963
      0.3047524880D+04  0.1834737132D-02
      0.4573695180D+03  0.1403732281D-01
      0.1039486850D+03  0.6884262226D-01
      0.2921015530D+02  0.2321844432D+00
      0.9286662960D+01  0.4679413484D+00
      0.3163926960D+01  0.3623119853D+00
 Atom C10      Shell    30 SP   3    bf   85 -    88         11.075966452934         -1.406010704774          5.045218532963
      0.7868272350D+01 -0.1193324198D+00  0.6899906659D-01
      0.1881288540D+01 -0.1608541517D+00  0.3164239610D+00
      0.5442492580D+00  0.1143456438D+01  0.7443082909D+00
 Atom C10      Shell    31 SP   1    bf   89 -    92         11.075966452934         -1.406010704774          5.045218532963
      0.1687144782D+00  0.1000000000D+01  0.1000000000D+01
 Atom C10      Shell    32 D   1     bf   93 -    98         11.075966452934         -1.406010704774          5.045218532963
      0.8000000000D+00  0.1000000000D+01
 Atom H11      Shell    33 S   3     bf   99 -    99         11.670138074266         -2.486949095005          3.365476330217
      0.1873113696D+02  0.3349460434D-01
      0.2825394365D+01  0.2347269535D+00
      0.6401216923D+00  0.8137573261D+00
 Atom H11      Shell    34 S   1     bf  100 -   100         11.670138074266         -2.486949095005          3.365476330217
      0.1612777588D+00  0.1000000000D+01
 Atom C12      Shell    35 S   6     bf  101 -   101          3.643129539038          0.131756675965          1.593055324976
      0.3047524880D+04  0.1834737132D-02
      0.4573695180D+03  0.1403732281D-01
      0.1039486850D+03  0.6884262226D-01
      0.2921015530D+02  0.2321844432D+00
      0.9286662960D+01  0.4679413484D+00
      0.3163926960D+01  0.3623119853D+00
 Atom C12      Shell    36 SP   3    bf  102 -   105          3.643129539038          0.131756675965          1.593055324976
      0.7868272350D+01 -0.1193324198D+00  0.6899906659D-01
      0.1881288540D+01 -0.1608541517D+00  0.3164239610D+00
      0.5442492580D+00  0.1143456438D+01  0.7443082909D+00
 Atom C12      Shell    37 SP   1    bf  106 -   109          3.643129539038          0.131756675965          1.593055324976
      0.1687144782D+00  0.1000000000D+01  0.1000000000D+01
 Atom C12      Shell    38 D   1     bf  110 -   115          3.643129539038          0.131756675965          1.593055324976
      0.8000000000D+00  0.1000000000D+01
 Atom H13      Shell    39 S   3     bf  116 -   116          4.338024640397         -1.166896570707          0.129668018362
      0.1873113696D+02  0.3349460434D-01
      0.2825394365D+01  0.2347269535D+00
      0.6401216923D+00  0.8137573261D+00
 Atom H13      Shell    40 S   1     bf  117 -   117          4.338024640397         -1.166896570707          0.129668018362
      0.1612777588D+00  0.1000000000D+01
 Atom C14      Shell    41 S   6     bf  118 -   118          6.417734994765         -2.830447599947          4.497186049152
      0.3047524880D+04  0.1834737132D-02
      0.4573695180D+03  0.1403732281D-01
      0.1039486850D+03  0.6884262226D-01
      0.2921015530D+02  0.2321844432D+00
      0.9286662960D+01  0.4679413484D+00
      0.3163926960D+01  0.3623119853D+00
 Atom C14      Shell    42 SP   3    bf  119 -   122          6.417734994765         -2.830447599947          4.497186049152
      0.7868272350D+01 -0.1193324198D+00  0.6899906659D-01
      0.1881288540D+01 -0.1608541517D+00  0.3164239610D+00
      0.5442492580D+00  0.1143456438D+01  0.7443082909D+00
 Atom C14      Shell    43 SP   1    bf  123 -   126          6.417734994765         -2.830447599947          4.497186049152
      0.1687144782D+00  0.1000000000D+01  0.1000000000D+01
 Atom C14      Shell    44 D   1     bf  127 -   132          6.417734994765         -2.830447599947          4.497186049152
      0.8000000000D+00  0.1000000000D+01
 Atom H15      Shell    45 S   3     bf  133 -   133          6.798856019492         -3.897802393070          2.757043739445
      0.1873113696D+02  0.3349460434D-01
      0.2825394365D+01  0.2347269535D+00
      0.6401216923D+00  0.8137573261D+00
 Atom H15      Shell    46 S   1     bf  134 -   134          6.798856019492         -3.897802393070          2.757043739445
      0.1612777588D+00  0.1000000000D+01
 Atom H16      Shell    47 S   3     bf  135 -   135          4.900001262165         -3.833298689120          5.489267796963
      0.1873113696D+02  0.3349460434D-01
      0.2825394365D+01  0.2347269535D+00
      0.6401216923D+00  0.8137573261D+00
 Atom H16      Shell    48 S   1     bf  136 -   136          4.900001262165         -3.833298689120          5.489267796963
      0.1612777588D+00  0.1000000000D+01
 Atom C17      Shell    49 S   6     bf  137 -   137         13.436091227256         -1.332140875603          6.838808798366
      0.3047524880D+04  0.1834737132D-02
      0.4573695180D+03  0.1403732281D-01
      0.1039486850D+03  0.6884262226D-01
      0.2921015530D+02  0.2321844432D+00
      0.9286662960D+01  0.4679413484D+00
      0.3163926960D+01  0.3623119853D+00
 Atom C17      Shell    50 SP   3    bf  138 -   141         13.436091227256         -1.332140875603          6.838808798366
      0.7868272350D+01 -0.1193324198D+00  0.6899906659D-01
      0.1881288540D+01 -0.1608541517D+00  0.3164239610D+00
      0.5442492580D+00  0.1143456438D+01  0.7443082909D+00
 Atom C17      Shell    51 SP   1    bf  142 -   145         13.436091227256         -1.332140875603          6.838808798366
      0.1687144782D+00  0.1000000000D+01  0.1000000000D+01
 Atom C17      Shell    52 D   1     bf  146 -   151         13.436091227256         -1.332140875603          6.838808798366
      0.8000000000D+00  0.1000000000D+01
 Atom C18      Shell    53 S   6     bf  152 -   152          6.877747285635          3.563993987997          1.295104681145
      0.3047524880D+04  0.1834737132D-02
      0.4573695180D+03  0.1403732281D-01
      0.1039486850D+03  0.6884262226D-01
      0.2921015530D+02  0.2321844432D+00
      0.9286662960D+01  0.4679413484D+00
      0.3163926960D+01  0.3623119853D+00
 Atom C18      Shell    54 SP   3    bf  153 -   156          6.877747285635          3.563993987997          1.295104681145
      0.7868272350D+01 -0.1193324198D+00  0.6899906659D-01
      0.1881288540D+01 -0.1608541517D+00  0.3164239610D+00
      0.5442492580D+00  0.1143456438D+01  0.7443082909D+00
 Atom C18      Shell    55 SP   1    bf  157 -   160          6.877747285635          3.563993987997          1.295104681145
      0.1687144782D+00  0.1000000000D+01  0.1000000000D+01
 Atom C18      Shell    56 D   1     bf  161 -   166          6.877747285635          3.563993987997          1.295104681145
      0.8000000000D+00  0.1000000000D+01
 Atom H19      Shell    57 S   3     bf  167 -   167          7.999314712134          4.186017035583         -0.325416131316
      0.1873113696D+02  0.3349460434D-01
      0.2825394365D+01  0.2347269535D+00
      0.6401216923D+00  0.8137573261D+00
 Atom H19      Shell    58 S   1     bf  168 -   168          7.999314712134          4.186017035583         -0.325416131316
      0.1612777588D+00  0.1000000000D+01
 Atom H20      Shell    59 S   3     bf  169 -   169          6.895052547184          5.109906126163          2.677806729008
      0.1873113696D+02  0.3349460434D-01
      0.2825394365D+01  0.2347269535D+00
      0.6401216923D+00  0.8137573261D+00
 Atom H20      Shell    60 S   1     bf  170 -   170          6.895052547184          5.109906126163          2.677806729008
      0.1612777588D+00  0.1000000000D+01
 Atom C21      Shell    61 S   6     bf  171 -   171          8.796394032923         -2.844824768646          6.181827820432
      0.3047524880D+04  0.1834737132D-02
      0.4573695180D+03  0.1403732281D-01
      0.1039486850D+03  0.6884262226D-01
      0.2921015530D+02  0.2321844432D+00
      0.9286662960D+01  0.4679413484D+00
      0.3163926960D+01  0.3623119853D+00
 Atom C21      Shell    62 SP   3    bf  172 -   175          8.796394032923         -2.844824768646          6.181827820432
      0.7868272350D+01 -0.1193324198D+00  0.6899906659D-01
      0.1881288540D+01 -0.1608541517D+00  0.3164239610D+00
      0.5442492580D+00  0.1143456438D+01  0.7443082909D+00
 Atom C21      Shell    63 SP   1    bf  176 -   179          8.796394032923         -2.844824768646          6.181827820432
      0.1687144782D+00  0.1000000000D+01  0.1000000000D+01
 Atom C21      Shell    64 D   1     bf  180 -   185          8.796394032923         -2.844824768646          6.181827820432
      0.8000000000D+00  0.1000000000D+01
 Atom H22      Shell    65 S   3     bf  186 -   186          8.300452227910         -2.036903163067          8.020544670299
      0.1873113696D+02  0.3349460434D-01
      0.2825394365D+01  0.2347269535D+00
      0.6401216923D+00  0.8137573261D+00
 Atom H22      Shell    66 S   1     bf  187 -   187          8.300452227910         -2.036903163067          8.020544670299
      0.1612777588D+00  0.1000000000D+01
 Atom H23      Shell    67 S   3     bf  188 -   188          9.331816128585         -4.811623287375          6.549872374956
      0.1873113696D+02  0.3349460434D-01
      0.2825394365D+01  0.2347269535D+00
      0.6401216923D+00  0.8137573261D+00
 Atom H23      Shell    68 S   1     bf  189 -   189          9.331816128585         -4.811623287375          6.549872374956
      0.1612777588D+00  0.1000000000D+01
 Atom C24      Shell    69 S   6     bf  190 -   190          4.124216547072          2.851876791937          0.550033306944
      0.3047524880D+04  0.1834737132D-02
      0.4573695180D+03  0.1403732281D-01
      0.1039486850D+03  0.6884262226D-01
      0.2921015530D+02  0.2321844432D+00
      0.9286662960D+01  0.4679413484D+00
      0.3163926960D+01  0.3623119853D+00
 Atom C24      Shell    70 SP   3    bf  191 -   194          4.124216547072          2.851876791937          0.550033306944
      0.7868272350D+01 -0.1193324198D+00  0.6899906659D-01
      0.1881288540D+01 -0.1608541517D+00  0.3164239610D+00
      0.5442492580D+00  0.1143456438D+01  0.7443082909D+00
 Atom C24      Shell    71 SP   1    bf  195 -   198          4.124216547072          2.851876791937          0.550033306944
      0.1687144782D+00  0.1000000000D+01  0.1000000000D+01
 Atom C24      Shell    72 D   1     bf  199 -   204          4.124216547072          2.851876791937          0.550033306944
      0.8000000000D+00  0.1000000000D+01
 Atom H25      Shell    73 S   3     bf  205 -   205          2.775820303966          4.206967616636          1.340975704322
      0.1873113696D+02  0.3349460434D-01
      0.2825394365D+01  0.2347269535D+00
      0.6401216923D+00  0.8137573261D+00
 Atom H25      Shell    74 S   1     bf  206 -   206          2.775820303966          4.206967616636          1.340975704322
      0.1612777588D+00  0.1000000000D+01
 Atom H26      Shell    75 S   3     bf  207 -   207          3.847463017965          2.890695168214         -1.501164179230
      0.1873113696D+02  0.3349460434D-01
      0.2825394365D+01  0.2347269535D+00
      0.6401216923D+00  0.8137573261D+00
 Atom H26      Shell    76 S   1     bf  208 -   208          3.847463017965          2.890695168214         -1.501164179230
      0.1612777588D+00  0.1000000000D+01
 Atom C27      Shell    77 S   6     bf  209 -   209         12.551079680278          2.443916005842          2.578969894861
      0.3047524880D+04  0.1834737132D-02
      0.4573695180D+03  0.1403732281D-01
      0.1039486850D+03  0.6884262226D-01
      0.2921015530D+02  0.2321844432D+00
      0.9286662960D+01  0.4679413484D+00
      0.3163926960D+01  0.3623119853D+00
 Atom C27      Shell    78 SP   3    bf  210 -   213         12.551079680278          2.443916005842          2.578969894861
      0.7868272350D+01 -0.1193324198D+00  0.6899906659D-01
      0.1881288540D+01 -0.1608541517D+00  0.3164239610D+00
      0.5442492580D+00  0.1143456438D+01  0.7443082909D+00
 Atom C27      Shell    79 SP   1    bf  214 -   217         12.551079680278          2.443916005842          2.578969894861
      0.1687144782D+00  0.1000000000D+01  0.1000000000D+01
 Atom C27      Shell    80 D   1     bf  218 -   223         12.551079680278          2.443916005842          2.578969894861
      0.8000000000D+00  0.1000000000D+01
 Atom H28      Shell    81 S   3     bf  224 -   224         12.180833046788          4.470267372820          2.361882597571
      0.1873113696D+02  0.3349460434D-01
      0.2825394365D+01  0.2347269535D+00
      0.6401216923D+00  0.8137573261D+00
 Atom H28      Shell    82 S   1     bf  225 -   225         12.180833046788          4.470267372820          2.361882597571
      0.1612777588D+00  0.1000000000D+01
 Atom C29      Shell    83 S   6     bf  226 -   226          0.784585472051         -0.502337224062          1.859725124259
      0.3047524880D+04  0.1834737132D-02
      0.4573695180D+03  0.1403732281D-01
      0.1039486850D+03  0.6884262226D-01
      0.2921015530D+02  0.2321844432D+00
      0.9286662960D+01  0.4679413484D+00
      0.3163926960D+01  0.3623119853D+00
 Atom C29      Shell    84 SP   3    bf  227 -   230          0.784585472051         -0.502337224062          1.859725124259
      0.7868272350D+01 -0.1193324198D+00  0.6899906659D-01
      0.1881288540D+01 -0.1608541517D+00  0.3164239610D+00
      0.5442492580D+00  0.1143456438D+01  0.7443082909D+00
 Atom C29      Shell    85 SP   1    bf  231 -   234          0.784585472051         -0.502337224062          1.859725124259
      0.1687144782D+00  0.1000000000D+01  0.1000000000D+01
 Atom C29      Shell    86 D   1     bf  235 -   240          0.784585472051         -0.502337224062          1.859725124259
      0.8000000000D+00  0.1000000000D+01
 Atom H30      Shell    87 S   3     bf  241 -   241          0.000000000000          0.000000000000          0.000000000000
      0.1873113696D+02  0.3349460434D-01
      0.2825394365D+01  0.2347269535D+00
      0.6401216923D+00  0.8137573261D+00
 Atom H30      Shell    88 S   1     bf  242 -   242          0.000000000000          0.000000000000          0.000000000000
      0.1612777588D+00  0.1000000000D+01
 Atom C31      Shell    89 S   6     bf  243 -   243          4.809859794948          1.348388665304          6.180010451912
      0.3047524880D+04  0.1834737132D-02
      0.4573695180D+03  0.1403732281D-01
      0.1039486850D+03  0.6884262226D-01
      0.2921015530D+02  0.2321844432D+00
      0.9286662960D+01  0.4679413484D+00
      0.3163926960D+01  0.3623119853D+00
 Atom C31      Shell    90 SP   3    bf  244 -   247          4.809859794948          1.348388665304          6.180010451912
      0.7868272350D+01 -0.1193324198D+00  0.6899906659D-01
      0.1881288540D+01 -0.1608541517D+00  0.3164239610D+00
      0.5442492580D+00  0.1143456438D+01  0.7443082909D+00
 Atom C31      Shell    91 SP   1    bf  248 -   251          4.809859794948          1.348388665304          6.180010451912
      0.1687144782D+00  0.1000000000D+01  0.1000000000D+01
 Atom C31      Shell    92 D   1     bf  252 -   257          4.809859794948          1.348388665304          6.180010451912
      0.8000000000D+00  0.1000000000D+01
 Atom H32      Shell    93 S   3     bf  258 -   258          6.397184978960          1.684629072320          7.458500490821
      0.1873113696D+02  0.3349460434D-01
      0.2825394365D+01  0.2347269535D+00
      0.6401216923D+00  0.8137573261D+00
 Atom H32      Shell    94 S   1     bf  259 -   259          6.397184978960          1.684629072320          7.458500490821
      0.1612777588D+00  0.1000000000D+01
 Atom H33      Shell    95 S   3     bf  260 -   260          3.996839594879          3.191876487841          5.725547681982
      0.1873113696D+02  0.3349460434D-01
      0.2825394365D+01  0.2347269535D+00
      0.6401216923D+00  0.8137573261D+00
 Atom H33      Shell    96 S   1     bf  261 -   261          3.996839594879          3.191876487841          5.725547681982
      0.1612777588D+00  0.1000000000D+01
 Atom H34      Shell    97 S   3     bf  262 -   262          3.390719669845          0.289155102518          7.246562583860
      0.1873113696D+02  0.3349460434D-01
      0.2825394365D+01  0.2347269535D+00
      0.6401216923D+00  0.8137573261D+00
 Atom H34      Shell    98 S   1     bf  263 -   263          3.390719669845          0.289155102518          7.246562583860
      0.1612777588D+00  0.1000000000D+01
 Atom C35      Shell    99 S   6     bf  264 -   264         15.480817648644          0.410995440600          5.748164680230
      0.3047524880D+04  0.1834737132D-02
      0.4573695180D+03  0.1403732281D-01
      0.1039486850D+03  0.6884262226D-01
      0.2921015530D+02  0.2321844432D+00
      0.9286662960D+01  0.4679413484D+00
      0.3163926960D+01  0.3623119853D+00
 Atom C35      Shell   100 SP   3    bf  265 -   268         15.480817648644          0.410995440600          5.748164680230
      0.7868272350D+01 -0.1193324198D+00  0.6899906659D-01
      0.1881288540D+01 -0.1608541517D+00  0.3164239610D+00
      0.5442492580D+00  0.1143456438D+01  0.7443082909D+00
 Atom C35      Shell   101 SP   1    bf  269 -   272         15.480817648644          0.410995440600          5.748164680230
      0.1687144782D+00  0.1000000000D+01  0.1000000000D+01
 Atom C35      Shell   102 D   1     bf  273 -   278         15.480817648644          0.410995440600          5.748164680230
      0.8000000000D+00  0.1000000000D+01
 Atom C36      Shell   103 S   6     bf  279 -   279         14.552643755235         -4.053256310330          7.043494767908
      0.3047524880D+04  0.1834737132D-02
      0.4573695180D+03  0.1403732281D-01
      0.1039486850D+03  0.6884262226D-01
      0.2921015530D+02  0.2321844432D+00
      0.9286662960D+01  0.4679413484D+00
      0.3163926960D+01  0.3623119853D+00
 Atom C36      Shell   104 SP   3    bf  280 -   283         14.552643755235         -4.053256310330          7.043494767908
      0.7868272350D+01 -0.1193324198D+00  0.6899906659D-01
      0.1881288540D+01 -0.1608541517D+00  0.3164239610D+00
      0.5442492580D+00  0.1143456438D+01  0.7443082909D+00
 Atom C36      Shell   105 SP   1    bf  284 -   287         14.552643755235         -4.053256310330          7.043494767908
      0.1687144782D+00  0.1000000000D+01  0.1000000000D+01
 Atom C36      Shell   106 D   1     bf  288 -   293         14.552643755235         -4.053256310330          7.043494767908
      0.8000000000D+00  0.1000000000D+01
 Atom H37      Shell   107 S   3     bf  294 -   294         14.716454816242         -4.834259560831          5.126242260561
      0.1873113696D+02  0.3349460434D-01
      0.2825394365D+01  0.2347269535D+00
      0.6401216923D+00  0.8137573261D+00
 Atom H37      Shell   108 S   1     bf  295 -   295         14.716454816242         -4.834259560831          5.126242260561
      0.1612777588D+00  0.1000000000D+01
 Atom H38      Shell   109 S   3     bf  296 -   296         13.216756062937         -5.266896655331          8.056437618241
      0.1873113696D+02  0.3349460434D-01
      0.2825394365D+01  0.2347269535D+00
      0.6401216923D+00  0.8137573261D+00
 Atom H38      Shell   110 S   1     bf  297 -   297         13.216756062937         -5.266896655331          8.056437618241
      0.1612777588D+00  0.1000000000D+01
 Atom C39      Shell   111 S   6     bf  298 -   298         15.043730683738          2.074354152411          3.881116716029
      0.3047524880D+04  0.1834737132D-02
      0.4573695180D+03  0.1403732281D-01
      0.1039486850D+03  0.6884262226D-01
      0.2921015530D+02  0.2321844432D+00
      0.9286662960D+01  0.4679413484D+00
      0.3163926960D+01  0.3623119853D+00
 Atom C39      Shell   112 SP   3    bf  299 -   302         15.043730683738          2.074354152411          3.881116716029
      0.7868272350D+01 -0.1193324198D+00  0.6899906659D-01
      0.1881288540D+01 -0.1608541517D+00  0.3164239610D+00
      0.5442492580D+00  0.1143456438D+01  0.7443082909D+00
 Atom C39      Shell   113 SP   1    bf  303 -   306         15.043730683738          2.074354152411          3.881116716029
      0.1687144782D+00  0.1000000000D+01  0.1000000000D+01
 Atom C39      Shell   114 D   1     bf  307 -   312         15.043730683738          2.074354152411          3.881116716029
      0.8000000000D+00  0.1000000000D+01
 Atom H40      Shell   115 S   3     bf  313 -   313         16.600365354749          3.220905402448          3.172372964575
[...]
 1536 Fit      -0.001548
 1537 Fit      -0.000040
 1538 Fit       0.001163
 1539 Fit       0.001584
 1540 Fit       0.001531
 1541 Fit       0.000056
 1542 Fit       0.001494
 1543 Fit       0.002397
 1544 Fit       0.001639
 1545 Fit       0.000689
 1546 Fit      -0.001023
 1547 Fit       0.002384
 1548 Fit       0.001545
 1549 Fit      -0.000360
 1550 Fit       0.002554
 1551 Fit       0.002367
 1552 Fit       0.001609
 1553 Fit      -0.000110
 1554 Fit      -0.002448
 1555 Fit       0.000686
 1556 Fit       0.000932
 1557 Fit       0.000126
 1558 Fit      -0.001737
 1559 Fit      -0.001471
 1560 Fit      -0.001028
 1561 Fit      -0.002597
 1562 Fit      -0.002070
 1563 Fit      -0.002060
 1564 Fit      -0.002164
 1565 Fit      -0.003487
 1566 Fit      -0.003007
 1567 Fit      -0.002035
 1568 Fit       0.004726
 1569 Fit       0.003263
 1570 Fit       0.003569
 1571 Fit       0.003536
 1572 Fit       0.002279
 1573 Fit       0.003135
 1574 Fit       0.000125
 1575 Fit      -0.001204
 1576 Fit      -0.000094
 1577 Fit       0.000414
 1578 Fit       0.000026
 1579 Fit      -0.000603
 1580 Fit      -0.001710
 1581 Fit      -0.001760
 1582 Fit       0.002274
 1583 Fit       0.001432
 1584 Fit       0.000154
 1585 Fit      -0.000356
 1586 Fit      -0.002125
 1587 Fit      -0.001487
 1588 Fit       0.000562
 1589 Fit       0.001971
 1590 Fit       0.001557
 1591 Fit       0.000391
 1592 Fit      -0.001386
 1593 Fit      -0.002898
 1594 Fit      -0.002416
 1595 Fit      -0.001559
 1596 Fit       0.000426
 1597 Fit      -0.003095
 1598 Fit      -0.001854
 1599 Fit      -0.000627
 1600 Fit       0.000322
 1601 Fit       0.000109
 1602 Fit      -0.003114
 1603 Fit      -0.001542
 1604 Fit      -0.001301
 1605 Fit      -0.005579
 1606 Fit      -0.013082
 1607 Fit      -0.017222
 1608 Fit      -0.018594
 1609 Fit      -0.017895
 1610 Fit      -0.011158
 1611 Fit      -0.018834
 1612 Fit      -0.022891
 1613 Fit      -0.023843
 1614 Fit      -0.016593
 1615 Fit      -0.009554
 1616 Fit      -0.016332
 1617 Fit      -0.023141
 1618 Fit      -0.024546
 1619 Fit      -0.022079
 1620 Fit      -0.015486
 1621 Fit      -0.010719
 1622 Fit      -0.020263
 1623 Fit       0.016553
 1624 Fit       0.003598
 1625 Fit       0.005284
 1626 Fit       0.012332
 1627 Fit       0.015338
 1628 Fit       0.014503
 1629 Fit       0.010283
 1630 Fit       0.000330
 1631 Fit       0.007345
 1632 Fit       0.010107
 1633 Fit       0.007639
 1634 Fit       0.001279
 1635 Fit      -0.000309
 1636 Fit      -0.003348
 1637 Fit      -0.002241
 1638 Fit      -0.010989
 1639 Fit      -0.006684
 1640 Fit      -0.001156
 1641 Fit      -0.012771
 1642 Fit      -0.014933
 1643 Fit      -0.013956
 1644 Fit      -0.019989
 1645 Fit      -0.017200
 1646 Fit      -0.013133
 1647 Fit      -0.007455
 1648 Fit      -0.013482
 1649 Fit      -0.019466
 1650 Fit      -0.021752
 1651 Fit      -0.021634
 1652 Fit      -0.023957
 1653 Fit      -0.021503
 1654 Fit      -0.016638
 1655 Fit      -0.017805
 1656 Fit      -0.022804
 1657 Fit      -0.024513
 1658 Fit      -0.022344
 1659 Fit      -0.019640
 1660 Fit      -0.017199
 1661 Fit      -0.021627
 1662 Fit      -0.015143
 1663 Fit       0.020225
 1664 Fit       0.015281
 1665 Fit       0.019316
 1666 Fit       0.023402
 1667 Fit       0.023522
 1668 Fit       0.017924
 1669 Fit       0.014070
 1670 Fit       0.007431
 1671 Fit       0.011396
 1672 Fit       0.015854
 1673 Fit       0.020792
 1674 Fit       0.007683
 1675 Fit       0.004168
 1676 Fit       0.004531
 1677 Fit       0.000146
 1678 Fit       0.005270
 1679 Fit       0.010652
 1680 Fit       0.000753
 1681 Fit      -0.000097
 1682 Fit      -0.003597
 1683 Fit      -0.008196
 1684 Fit      -0.012358
 1685 Fit       0.006383
 1686 Fit       0.004720
 1687 Fit       0.004627
 1688 Fit       0.007072
 1689 Fit       0.007871
 1690 Fit       0.011621
 1691 Fit       0.018203
 1692 Fit       0.006066
 1693 Fit      -0.000771
 1694 Fit      -0.002589
 1695 Fit       0.000574
 1696 Fit       0.002793
 1697 Fit       0.004044
 1698 Fit       0.005625
 1699 Fit       0.004796
 1700 Fit       0.005779
 1701 Fit       0.005377
 1702 Fit       0.004935
 1703 Fit       0.004746
 1704 Fit       0.004410
 1705 Fit       0.003272
 1706 Fit       0.003630
 1707 Fit       0.001124
 1708 Fit      -0.004588
 1709 Fit      -0.004457
 1710 Fit      -0.004016
 1711 Fit      -0.005751
 1712 Fit      -0.008457
 1713 Fit      -0.006120
 1714 Fit      -0.016506
 1715 Fit      -0.008603
 1716 Fit      -0.006410
 1717 Fit      -0.018403
 1718 Fit      -0.010224
 1719 Fit      -0.006882
 1720 Fit      -0.017309
 1721 Fit      -0.010019
 1722 Fit       0.003796
 1723 Fit       0.002733
 1724 Fit       0.002217
 1725 Fit       0.002737
 1726 Fit       0.001519
 1727 Fit       0.000524
 1728 Fit       0.000465
 1729 Fit       0.001056
 1730 Fit      -0.001930
 1731 Fit      -0.002372
 1732 Fit      -0.002194
 1733 Fit      -0.001783
 1734 Fit       0.005096
 1735 Fit       0.006614
 1736 Fit       0.006251
 1737 Fit       0.007248
 1738 Fit       0.005001
 1739 Fit       0.005217
 1740 Fit       0.007017
 1741 Fit       0.005464
 1742 Fit       0.007440
 1743 Fit       0.004768
 1744 Fit       0.006330
 1745 Fit       0.008141
 1746 Fit       0.005370
 1747 Fit       0.006790
 1748 Fit       0.004949
 1749 Fit       0.006543
 1750 Fit      -0.004885
 1751 Fit      -0.003905
 1752 Fit      -0.003180
 1753 Fit      -0.002275
 1754 Fit       0.002864
 1755 Fit      -0.000454
 1756 Fit       0.000815
 1757 Fit       0.001775
 1758 Fit      -0.003232
 1759 Fit      -0.001460
 1760 Fit      -0.000547
 1761 Fit      -0.000740
 1762 Fit      -0.002797
 1763 Fit      -0.002683
 1764 Fit      -0.005138
 1765 Fit      -0.003681
 1766 Fit      -0.002530
 1767 Fit      -0.001365
 1768 Fit       0.000294
 1769 Fit      -0.001765
 1770 Fit      -0.007284
 1771 Fit      -0.004591
 1772 Fit      -0.003578
 1773 Fit      -0.001941
 1774 Fit      -0.000558
 1775 Fit       0.000099
 1776 Fit      -0.002065
 1777 Fit      -0.001695
 1778 Fit      -0.008434
 1779 Fit       0.002183
 1780 Fit       0.003493
 1781 Fit       0.001733
 1782 Fit       0.001884
 1783 Fit       0.001931
 1784 Fit      -0.000985
 1785 Fit      -0.000852
 1786 Fit      -0.001133
 1787 Fit      -0.007115
 1788 Fit      -0.006165
 1789 Fit      -0.001754
 1790 Fit      -0.000764
 1791 Fit      -0.000045
 1792 Fit      -0.001768
 1793 Fit      -0.000756
 1794 Fit      -0.000514
 1795 Fit       0.000027
 1796 Fit       0.002263
 1797 Fit       0.000698
 1798 Fit       0.004566
 1799 Fit       0.000472
 1800 Fit      -0.000398
 1801 Fit       0.002195
 1802 Fit      -0.001186
 1803 Fit       0.003286
 1804 Fit       0.004288
 1805 Fit       0.005278
 1806 Fit       0.002189
 1807 Fit       0.005591
 1808 Fit       0.002063
 1809 Fit       0.003685
 1810 Fit       0.001165
 1811 Fit       0.000342
 1812 Fit       0.002442
 1813 Fit       0.002424
 1814 Fit       0.002030
 1815 Fit       0.003214
 1816 Fit       0.002429
 1817 Fit       0.000854
 1818 Fit       0.002679
 1819 Fit       0.003872
 1820 Fit       0.003984
 1821 Fit       0.004756
 1822 Fit       0.005073
 1823 Fit      -0.000837
 1824 Fit       0.006343
 1825 Fit       0.006074
 1826 Fit       0.006763
 1827 Fit       0.006302
 1828 Fit       0.006289
 1829 Fit       0.006265
 1830 Fit       0.007952
 1831 Fit       0.007537
 1832 Fit       0.007506
 1833 Fit       0.008173
 1834 Fit       0.012620
 1835 Fit       0.010427
 1836 Fit       0.010114
 1837 Fit       0.015895
 1838 Fit       0.009449
 1839 Fit       0.009716
 1840 Fit       0.009246
 1841 Fit       0.008370
 1842 Fit       0.008994
 1843 Fit       0.007886
 1844 Fit       0.007212
 1845 Fit       0.007116
 1846 Fit      -0.000899
 1847 Fit      -0.000501
 1848 Fit      -0.000193
 1849 Fit       0.002711
 1850 Fit       0.000931
 1851 Fit       0.001639
 1852 Fit       0.001853
 1853 Fit       0.001546
 1854 Fit       0.003654
 1855 Fit       0.002161
 1856 Fit       0.003782
 1857 Fit       0.002975
 1858 Fit       0.001710
 1859 Fit       0.000982
 1860 Fit       0.001099
 1861 Fit       0.000963
 1862 Fit      -0.000602
 1863 Fit      -0.003743
 1864 Fit       0.000817
 1865 Fit      -0.003777
 1866 Fit      -0.006619
 1867 Fit       0.006884
 1868 Fit       0.005483
 1869 Fit       0.005902
 1870 Fit       0.008764
 1871 Fit       0.005311
 1872 Fit       0.004967
 1873 Fit       0.005311
 1874 Fit       0.005903
 1875 Fit       0.005984
 1876 Fit       0.004510
 1877 Fit       0.006956
 1878 Fit       0.006836
 1879 Fit       0.007919
 1880 Fit       0.008347
 1881 Fit       0.006454
 1882 Fit       0.007663
 1883 Fit       0.008500
 1884 Fit       0.009201
 1885 Fit       0.009535
 1886 Fit       0.008471
 1887 Fit       0.009217
 1888 Fit       0.013736
 1889 Fit       0.010211
 1890 Fit       0.012087
 1891 Fit       0.021406
 1892 Fit       0.015428
 1893 Fit       0.009856
 1894 Fit       0.006836
 1895 Fit       0.005162
 1896 Fit       0.005285
 1897 Fit       0.005653
 1898 Fit       0.005983
 1899 Fit       0.005840
 1900 Fit       0.004764
 1901 Fit       0.006278
 1902 Fit       0.007080
 1903 Fit       0.003332
 1904 Fit       0.002132
 1905 Fit      -0.002794
 1906 Fit       0.001720
 1907 Fit       0.002980
 1908 Fit      -0.010303
 1909 Fit      -0.001811
 1910 Fit       0.002309
 1911 Fit       0.004290
 1912 Fit      -0.003633
 1913 Fit       0.001149
 1914 Fit       0.000721
 1915 Fit       0.019522
 1916 Fit       0.023276
 1917 Fit       0.014820
 1918 Fit       0.012806
 1919 Fit       0.009643
 1920 Fit       0.008779
 1921 Fit       0.005632
 1922 Fit       0.005167
 1923 Fit       0.004278
 1924 Fit       0.007994
 1925 Fit       0.006016
 1926 Fit       0.004787
 1927 Fit       0.006079
 1928 Fit       0.007401
 1929 Fit       0.012814
 1930 Fit       0.015979
 1931 Fit       0.018159
 1932 Fit       0.011005
 1933 Fit       0.009612
 1934 Fit       0.010274
 1935 Fit       0.008563
 1936 Fit       0.006874
 1937 Fit       0.006313
 1938 Fit       0.009689
 1939 Fit       0.004123
 1940 Fit       0.004847
 1941 Fit       0.002568
 1942 Fit      -0.001337
 1943 Fit       0.006832
 1944 Fit       0.005292
 1945 Fit       0.003241
 1946 Fit      -0.000783
 1947 Fit      -0.009435
 1948 Fit       0.005306
 1949 Fit       0.003103
 1950 Fit      -0.001386
 1951 Fit      -0.011453
 1952 Fit       0.005117
 1953 Fit       0.001974
 1954 Fit      -0.004283
 1955 Fit       0.004112
 1956 Fit      -0.000567
 1957 Fit      -0.000316
 1958 Fit       0.004937
 1959 Fit       0.001870
 1960 Fit       0.002808
 1961 Fit       0.000486
 1962 Fit       0.002259
 1963 Fit       0.001864
 1964 Fit      -0.001345
 1965 Fit      -0.000266
 1966 Fit       0.000143
 1967 Fit      -0.000276
 1968 Fit       0.001337
 1969 Fit       0.001088
 1970 Fit       0.000470
 1971 Fit       0.001828
 1972 Fit       0.001709
 1973 Fit       0.000997
 1974 Fit      -0.004737
 1975 Fit      -0.000706
 1976 Fit      -0.009041
 1977 Fit      -0.007586
 1978 Fit      -0.005115
 1979 Fit       0.005688
 1980 Fit       0.000226
 1981 Fit      -0.004947
 1982 Fit       0.000249
 1983 Fit       0.002225
 1984 Fit       0.006673
 1985 Fit       0.012711
 1986 Fit       0.008378
 1987 Fit       0.003068
 1988 Fit       0.005911
 1989 Fit      -0.001644
 1990 Fit      -0.002174
 1991 Fit      -0.002095
 1992 Fit      -0.001916
 1993 Fit      -0.002372
 1994 Fit      -0.001506
 1995 Fit      -0.001972
 1996 Fit      -0.001915
 1997 Fit      -0.001850
 1998 Fit      -0.001947
 1999 Fit       0.002539
 2000 Fit       0.000161
 2001 Fit       0.000745
 2002 Fit       0.002487
 2003 Fit      -0.001632
 2004 Fit      -0.000775
 2005 Fit       0.000445
 2006 Fit       0.002593
 2007 Fit      -0.001100
 2008 Fit      -0.000626
 2009 Fit      -0.001141
 2010 Fit      -0.001741
 2011 Fit      -0.000364
 2012 Fit       0.000552
 2013 Fit       0.000820
 2014 Fit      -0.001364
 2015 Fit       0.000106
 2016 Fit       0.001136
 2017 Fit       0.001644
 2018 Fit      -0.001140
 2019 Fit       0.000353
 2020 Fit       0.001236
 2021 Fit      -0.000008
 2022 Fit       0.000571
 2023 Fit      -0.001323
 2024 Fit       0.002913
 2025 Fit       0.001206
 2026 Fit      -0.000660
 2027 Fit       0.001144
 2028 Fit      -0.000670
 2029 Fit      -0.001327
 2030 Fit       0.000817
 2031 Fit       0.002820
 2032 Fit       0.001309
 2033 Fit       0.001839
 2034 Fit       0.000163
 2035 Fit       0.001377
 2036 Fit       0.002226
 2037 Fit       0.002196
 2038 Fit       0.001138
 2039 Fit       0.000386
 2040 Fit       0.000839
 2041 Fit       0.002281
 2042 Fit      -0.001262
 2043 Fit      -0.000869
 2044 Fit      -0.000508
 2045 Fit       0.000723
 2046 Fit       0.000322
 2047 Fit      -0.000618
 2048 Fit       0.000322
 2049 Fit      -0.000189
 2050 Fit       0.001894
 2051 Fit       0.000972
 2052 Fit       0.000282
 2053 Fit       0.001325
 2054 Fit       0.001886
 2055 Fit       0.002136
 2056 Fit      -0.000515
 2057 Fit       0.000683
 2058 Fit       0.001477
 2059 Fit      -0.000955
 2060 Fit       0.000232
 2061 Fit       0.000889
 2062 Fit      -0.000479
 2063 Fit      -0.000423
 2064 Fit       0.000076
 2065 Fit       0.000151
 2066 Fit      -0.000529
 2067 Fit      -0.000008
 2068 Fit       0.000338
 2069 Fit       0.000489
 2070 Fit       0.000149
 2071 Fit      -0.000361
 2072 Fit      -0.000352
 2073 Fit       0.000391
 2074 Fit       0.000541
 2075 Fit       0.000364
 2076 Fit       0.000285
 2077 Fit       0.000212
 2078 Fit      -0.000847
 2079 Fit      -0.001679
 2080 Fit      -0.001923
 2081 Fit      -0.002072
 2082 Fit      -0.001697
 2083 Fit      -0.001931
 2084 Fit      -0.001379
 2085 Fit      -0.001602
 2086 Fit      -0.000720
 2087 Fit      -0.001211
 2088 Fit      -0.000301
 2089 Fit       0.001752
 2090 Fit       0.002781
 2091 Fit       0.002390
 2092 Fit      -0.000319
 2093 Fit       0.000784
 2094 Fit       0.001845
 2095 Fit       0.002529
 2096 Fit      -0.001030
 2097 Fit       0.000001
 2098 Fit       0.000794
 2099 Fit       0.001448
 2100 Fit      -0.001082
 2101 Fit      -0.001590
 2102 Fit      -0.001190
 2103 Fit      -0.001259
 2104 Fit      -0.000898
 2105 Fit      -0.000099
 2106 Fit       0.000306
 2107 Fit       0.000248
 2108 Fit      -0.000794
 2109 Fit       0.000203
 2110 Fit       0.001060
 2111 Fit       0.001450
 2112 Fit       0.001690
 2113 Fit       0.000216
 2114 Fit       0.001131
 2115 Fit       0.001827
 2116 Fit       0.001260
 2117 Fit       0.000453
 2118 Fit       0.001704
 2119 Fit       0.001017
 2120 Fit      -0.000319
 2121 Fit       0.002191
 2122 Fit       0.001763
 2123 Fit       0.000849
 2124 Fit      -0.000604
 2125 Fit       0.001524
 2126 Fit       0.001225
 2127 Fit       0.000330
 2128 Fit      -0.001089
 2129 Fit       0.000242
 2130 Fit      -0.000390
 2131 Fit       0.001160
 2132 Fit      -0.000746
 2133 Fit      -0.001645
 2134 Fit      -0.002339
 2135 Fit      -0.001398
 2136 Fit      -0.001851
 2137 Fit      -0.002770
 2138 Fit      -0.002284
 2139 Fit      -0.001540
 2140 Fit      -0.000398
 2141 Fit       0.002710
 2142 Fit       0.004184
 2143 Fit       0.002499
 2144 Fit       0.003316
 2145 Fit       0.001924
 2146 Fit       0.001246
 2147 Fit       0.000422
 2148 Fit       0.001202
 2149 Fit       0.001762
 2150 Fit      -0.000891
 2151 Fit      -0.000709
 2152 Fit      -0.001007
 2153 Fit      -0.001201
 2154 Fit       0.000641
 2155 Fit      -0.000003
 2156 Fit      -0.000964
 2157 Fit      -0.001311
 2158 Fit       0.001835
 2159 Fit       0.001169
 2160 Fit       0.000149
 2161 Fit      -0.000429
 2162 Fit      -0.001601
 2163 Fit      -0.001085
 2164 Fit       0.000368
 2165 Fit       0.001326
 2166 Fit       0.000967
 2167 Fit       0.000115
 2168 Fit      -0.002891
 2169 Fit      -0.003056
 2170 Fit      -0.000828
 2171 Fit      -0.002822
 2172 Fit      -0.002858
 2173 Fit      -0.002515
 2174 Fit      -0.000915
 2175 Fit       0.000610
 2176 Fit      -0.002889
 2177 Fit      -0.002220
 2178 Fit      -0.001339
 2179 Fit      -0.000493
 2180 Fit      -0.000414
 2181 Fit      -0.001827
 2182 Fit      -0.001469
 -----------------------------------------------------------------
 Leave Link  602 at Thu May 18 13:39:49 2017, MaxMem=   33554432 cpu:      15.1
 (Enter /scratch/michal/g09/l9999.exe)

 Test job not archived.
 1\1\GINC-RZEPICHA\SP\RHF\6-31G(d)\C27H46O2\MICHAL\18-May-2017\0\\#P HF
 /6-31G* SCF(Conver=6) NoSymm Test Pop=mk IOp(6/33=2) GFInput GFPrint\\
 MEP - Input generated by R.E.D.-III.x MOLECULE\\0,1\O,0,6.73185747,0.8
 2016067,0.\H,0,7.2432359,0.,0.\O,0,11.3966548,-1.41468027,4.28353548\H
 ,0,11.3401691,-1.12714285,5.2056537\C,0,2.97373969,-0.06438925,2.00438
 553\C,0,4.19743113,0.59133305,1.3012631\H,0,4.44184552,-0.06847989,0.4
 5732076\C,0,5.47176054,0.66436278,2.15077279\H,0,5.29825143,1.33001536
 ,3.00842243\C,0,5.86114901,-0.74402882,2.66981466\H,0,6.17557109,-1.31
 603678,1.78093337\C,0,1.92786112,0.06972263,0.84300857\H,0,2.29558377,
 -0.61749507,0.06861736\C,0,3.39611909,-1.49780836,2.37980836\H,0,3.597
 79965,-2.06262819,1.45896471\H,0,2.59296899,-2.0284943,2.90479541\C,0,
 7.11007325,-0.70493859,3.61894175\C,0,3.63954711,1.88598439,0.68533988
 \H,0,4.23305503,2.21514481,-0.1722028\H,0,3.64870466,2.70404586,1.4170
 3429\C,0,4.65485124,-1.50541643,3.27128239\H,0,4.39241014,-1.07788273,
 4.24428944\H,0,4.93818441,-2.54620138,3.46604318\C,0,2.1824414,1.50914
 82,0.29106509\H,0,1.46890084,2.22623138,0.70961378\H,0,2.03598974,1.52
 969,-0.79438187\C,0,6.64174531,1.29326465,1.36473209\H,0,6.44581923,2.
 36556361,1.24985444\C,0,0.41518475,-0.26582541,0.98412415\H,0,0.,0.,0.
 \C,0,2.54526818,0.71353655,3.27032068\H,0,3.38524449,0.89146731,3.9468
 6847\H,0,2.11503642,1.68906829,3.02982934\H,0,1.79429157,0.15301429,3.
 83471576\C,0,8.19209587,0.21748942,3.04179774\C,0,7.7009274,-2.1448908
 6,3.7272569\H,0,7.78761248,-2.55817998,2.71269057\H,0,6.99400608,-2.78
 712167,4.26328317\C,0,7.96079941,1.09770094,2.05379851\H,0,8.784535,1.
 70442973,1.67874747\C,0,6.73556272,-0.19003033,5.03556669\H,0,6.103692
 57,-0.90876405,5.5658428\H,0,7.62305103,-0.02626435,5.65185648\H,0,6.2
 0037831,0.76279604,4.98225131\C,0,9.57867792,0.11096863,3.64970467\H,0
 ,10.28441429,0.73629215,3.09418541\H,0,9.56313248,0.49439397,4.6824510
 5\C,0,9.07792937,-2.23287224,4.40282828\H,0,9.00798162,-1.9351322,5.45
 94718\H,0,9.43517228,-3.26884919,4.39223214\C,0,0.10554669,-1.76690774
 ,1.20537691\H,0,0.50282696,-2.07319597,2.18158921\H,0,-0.98648498,-1.8
 6829615,1.2872802\C,0,10.09462948,-1.33527921,3.69802674\H,0,10.240575
 11,-1.69502769,2.67200915\C,0,-0.3903704,0.56081722,2.00710346\H,0,-0.
 21556981,0.22906656,3.03482567\H,0,-1.46212363,0.44549453,1.8089052\H,
 0,-0.16495058,1.63008901,1.9580661\C,0,0.59210184,-2.76365612,0.135283
 39\H,0,1.68541222,-2.73733432,0.06585434\H,0,0.33907656,-3.77139414,0.
 48866208\C,0,-0.02599511,-2.54194519,-1.25529945\H,0,0.29180804,-1.565
 09524,-1.64334563\H,0,-1.11934772,-2.4840862,-1.14805508\C,0,0.2999057
 4,-3.60829066,-2.32825963\H,0,-0.20309198,-3.27324215,-3.24745931\C,0,
 -0.27094422,-4.99413113,-1.98415388\H,0,0.22396632,-5.43195675,-1.1096
 4887\H,0,-0.13165102,-5.69016812,-2.81926225\H,0,-1.34480735,-4.941115
 83,-1.76947631\C,0,1.80309107,-3.69234659,-2.64146818\H,0,2.37187743,-
 4.08104078,-1.78883811\H,0,1.98783955,-4.36155309,-3.48956377\H,0,2.21
 366556,-2.7084863,-2.89724114\\Version=EM64L-G09RevC.01\HF=-1198.91911
 67\RMSD=5.137e-07\Dipole=-0.357068,-0.22027,0.8864106\Quadrupole=-15.1
 29932,2.4972936,12.6326383,0.68821,10.9720209,1.214172\PG=C01 [X(C27H4
 6O2)]\\@


 IN NATURE THERE ARE NEITHER REWARDS OR
 PUNISHMENTS -- THERE ARE CONSEQUENCES.

                            -- ROBERT GREEN INGERSOLL
 Job cpu time:  0 days  0 hours 44 minutes 14.4 seconds.
 File lengths (MBytes):  RWF=    151 Int=      0 D2E=      0 Chk=     11 Scr=      1
 Normal termination of Gaussian 09 at Thu May 18 13:39:49 2017.
