 Entering Gaussian System, Link 0=/scratch/michal/g09//g09
 Input=JOB2-gau_m1-21-4.com
 Output=JOB2-gau_m1-21-4.log
 Initial command:
 /scratch/michal/g09/l1.exe /scratch/michal/gauss_scratch/Gau-41566.inp -scrdir=/scratch/michal/gauss_scratch/
 Entering Link 1 = /scratch/michal/g09/l1.exe PID=     41568.
  
 Copyright (c) 1988,1990,1992,1993,1995,1998,2003,2009,2011,
            Gaussian, Inc.  All Rights Reserved.
  
 This is part of the Gaussian(R) 09 program.  It is based on
 the Gaussian(R) 03 system (copyright 2003, Gaussian, Inc.),
 the Gaussian(R) 98 system (copyright 1998, Gaussian, Inc.),
 the Gaussian(R) 94 system (copyright 1995, Gaussian, Inc.),
 the Gaussian 92(TM) system (copyright 1992, Gaussian, Inc.),
 the Gaussian 90(TM) system (copyright 1990, Gaussian, Inc.),
 the Gaussian 88(TM) system (copyright 1988, Gaussian, Inc.),
 the Gaussian 86(TM) system (copyright 1986, Carnegie Mellon
 University), and the Gaussian 82(TM) system (copyright 1983,
 Carnegie Mellon University). Gaussian is a federally registered
 trademark of Gaussian, Inc.
  
 This software contains proprietary and confidential information,
 including trade secrets, belonging to Gaussian, Inc.
  
 This software is provided under written license and may be
 used, copied, transmitted, or stored only in accord with that
 written license.
  
 The following legend is applicable only to US Government
 contracts under FAR:
  
                    RESTRICTED RIGHTS LEGEND
  
 Use, reproduction and disclosure by the US Government is
 subject to restrictions as set forth in subparagraphs (a)
 and (c) of the Commercial Computer Software - Restricted
 Rights clause in FAR 52.227-19.
  
 Gaussian, Inc.
 340 Quinnipiac St., Bldg. 40, Wallingford CT 06492
  
  
 ---------------------------------------------------------------
 Warning -- This program may not be used in any manner that
 competes with the business of Gaussian, Inc. or will provide
 assistance to any competitor of Gaussian, Inc.  The licensee
 of this program is prohibited from giving any competitor of
 Gaussian, Inc. access to this program.  By using this program,
 the user acknowledges that Gaussian, Inc. is engaged in the
 business of creating and licensing software in the field of
 computational chemistry and represents and warrants to the
 licensee that it is not a competitor of Gaussian, Inc. and that
 it will not use this program in any manner prohibited above.
 ---------------------------------------------------------------
  

 Cite this work as:
 Gaussian 09, Revision C.01,
 M. J. Frisch, G. W. Trucks, H. B. Schlegel, G. E. Scuseria, 
 M. A. Robb, J. R. Cheeseman, G. Scalmani, V. Barone, B. Mennucci, 
 G. A. Petersson, H. Nakatsuji, M. Caricato, X. Li, H. P. Hratchian, 
 A. F. Izmaylov, J. Bloino, G. Zheng, J. L. Sonnenberg, M. Hada, 
 M. Ehara, K. Toyota, R. Fukuda, J. Hasegawa, M. Ishida, T. Nakajima, 
 Y. Honda, O. Kitao, H. Nakai, T. Vreven, J. A. Montgomery, Jr., 
 J. E. Peralta, F. Ogliaro, M. Bearpark, J. J. Heyd, E. Brothers, 
 K. N. Kudin, V. N. Staroverov, T. Keith, R. Kobayashi, J. Normand, 
 K. Raghavachari, A. Rendell, J. C. Burant, S. S. Iyengar, J. Tomasi, 
 M. Cossi, N. Rega, J. M. Millam, M. Klene, J. E. Knox, J. B. Cross, 
 V. Bakken, C. Adamo, J. Jaramillo, R. Gomperts, R. E. Stratmann, 
 O. Yazyev, A. J. Austin, R. Cammi, C. Pomelli, J. W. Ochterski, 
 R. L. Martin, K. Morokuma, V. G. Zakrzewski, G. A. Voth, 
 P. Salvador, J. J. Dannenberg, S. Dapprich, A. D. Daniels, 
 O. Farkas, J. B. Foresman, J. V. Ortiz, J. Cioslowski, 
 and D. J. Fox, Gaussian, Inc., Wallingford CT, 2010.
 
 ******************************************
 Gaussian 09:  EM64L-G09RevC.01 23-Sep-2011
                18-May-2017 
 ******************************************
 %Mem=256MB
 %NProc=48
 Will use up to   48 processors via shared memory.
 ----------------------------------------------------------------------
 #P HF/6-31G* SCF(Conver=6) NoSymm Test Pop=mk IOp(6/33=2) GFInput GFPr
 int
 ----------------------------------------------------------------------
 1/38=1/1;
 2/12=2,15=1,17=6,18=5,40=1/2;
 3/5=1,6=6,7=1,11=9,16=1,24=110,25=1,30=1/1,2,3;
 4//1;
 5/5=2,6=6,38=5/2;
 6/7=2,8=2,9=2,10=2,15=8,20=1,28=1,33=2/1,2;
 99/5=1,9=1/99;
 Leave Link    1 at Thu May 18 14:13:14 2017, MaxMem=   33554432 cpu:       6.8
 (Enter /scratch/michal/g09/l101.exe)
 ----------------------------------------------
 MEP - Input generated by R.E.D.-III.x MOLECULE
 ----------------------------------------------
 Charge =  0 Multiplicity = 1
 Symbolic Z-Matrix:
 O                     0.        0.        0. 
 H                    -0.471     0.45467  -0.71111 
 O                    -3.27013   5.86571   0. 
 H                    -2.97027   6.55171   0.61291 
 C                     4.18378   1.13776  -0.37596 
 C                     2.7971    0.58149   0.05259 
 H                     2.35178   0.16682  -0.86302 
 C                     1.8038    1.63263   0.56298 
 H                     2.19752   2.08068   1.48684 
 C                     1.59913   2.74585  -0.49534 
 H                     1.06669   2.26923  -1.33529 
 C                     4.89503  -0.19986  -0.78508 
 H                     4.4526   -0.49605  -1.74949 
 C                     3.91257   2.14781  -1.51019 
 H                     3.4857    1.60648  -2.36674 
 H                     4.83356   2.61867  -1.86802 
 C                     0.65679   3.89123   0.01615 
 C                     3.12411  -0.62055   0.94856 
 H                     2.301    -1.33967   0.98251 
 H                     3.31609  -0.30055   1.98077 
 C                     2.94129   3.26093  -1.06659 
 H                     3.4475    3.88282  -0.32102 
 H                     2.74908   3.91639  -1.92394 
 C                     4.4047   -1.21688   0.30264 
 H                     5.18639  -1.37546   1.05544 
 H                     4.20134  -2.19562  -0.14151 
 C                     0.45158   0.99598   0.94795 
 H                     0.58777   0.42343   1.87261 
 C                     6.43452  -0.22653  -0.97359 
 H                     6.89579   0.        0. 
 C                     4.94237   1.81086   0.79094 
 H                     4.3716    2.62458   1.2459 
 H                     5.17886   1.09924   1.58779 
 H                     5.88975   2.23677   0.44423 
 C                    -0.56004   3.29981   0.73989 
 C                     0.1477    4.70534  -1.21351 
 H                    -0.2044    3.99486  -1.97438 
 H                     0.98727   5.24737  -1.66175 
 C                    -0.62481   2.02242   1.15028 
 H                    -1.53163   1.66607   1.63814 
 C                     1.3935    4.84177   0.99897 
 H                     2.15885   5.43064   0.48462 
 H                     0.7047    5.54919   1.46734 
 H                     1.87637   4.28125   1.80508 
 C                    -1.72592   4.23666   0.998 
 H                    -2.56918   3.68318   1.42261 
 H                    -1.43762   4.99342   1.74499 
 C                    -0.99037   5.69258  -0.91278 
 H                    -0.64077   6.48976  -0.24021 
 H                    -1.31554   6.18286  -1.83737 
 C                     6.89888  -1.64809  -1.37789 
 H                     6.42739  -2.38446  -0.71737 
 H                     6.52547  -1.86631  -2.39041 
 C                    -2.17911   4.98103  -0.26723 
 H                    -2.59192   4.2547   -0.97819 
 C                     6.9407    0.81084  -1.9915 
 H                     6.44486   0.68163  -2.96192 
 H                     8.01802   0.71287  -2.15495 
 H                     6.76215   1.83616  -1.66009 
 C                     8.41741  -1.88708  -1.33408 
 H                     8.92474  -1.22889  -2.0484 
 H                     8.78967  -1.61016  -0.33825 
 C                     8.78186  -3.34927  -1.63953 
 H                     8.3674   -3.61574  -2.6227 
 H                     8.27315  -3.9978   -0.91169 
 C                     10.28716  -3.70405  -1.63611 
 H                     10.34341  -4.77894  -1.86362 
 C                     10.94081  -3.49953  -0.25933 
 H                     10.98141  -2.43913   0.01525 
 H                     11.9697  -3.87725  -0.25607 
 H                     10.38873  -4.0277    0.52704 
 C                     11.07321  -2.96971  -2.73507 
 H                     11.12015  -1.89079  -2.54732 
 H                     12.1047  -3.33653  -2.78751 
 H                     10.61555  -3.11831  -3.72024 
 
 NAtoms=     75 NQM=        0 NQMF=       0 NMMI=     75 NMMIF=      0
                NMic=       0 NMicF=      0.
                    Isotopes and Nuclear Properties:
 (Nuclear quadrupole moments (NQMom) in fm**2, nuclear magnetic moments (NMagM)
  in nuclear magnetons)

  Atom         1           2           3           4           5           6           7           8           9          10
 IAtWgt=          16           1          16           1          12          12           1          12           1          12
 AtmWgt=  15.9949146   1.0078250  15.9949146   1.0078250  12.0000000  12.0000000   1.0078250  12.0000000   1.0078250  12.0000000
 NucSpn=           0           1           0           1           0           0           1           0           1           0
 AtZEff=   0.0000000   0.0000000   0.0000000   0.0000000   0.0000000   0.0000000   0.0000000   0.0000000   0.0000000   0.0000000
 NQMom=    0.0000000   0.0000000   0.0000000   0.0000000   0.0000000   0.0000000   0.0000000   0.0000000   0.0000000   0.0000000
 NMagM=    0.0000000   2.7928460   0.0000000   2.7928460   0.0000000   0.0000000   2.7928460   0.0000000   2.7928460   0.0000000

  Atom        11          12          13          14          15          16          17          18          19          20
 IAtWgt=           1          12           1          12           1           1          12          12           1           1
 AtmWgt=   1.0078250  12.0000000   1.0078250  12.0000000   1.0078250   1.0078250  12.0000000  12.0000000   1.0078250   1.0078250
 NucSpn=           1           0           1           0           1           1           0           0           1           1
 AtZEff=   0.0000000   0.0000000   0.0000000   0.0000000   0.0000000   0.0000000   0.0000000   0.0000000   0.0000000   0.0000000
 NQMom=    0.0000000   0.0000000   0.0000000   0.0000000   0.0000000   0.0000000   0.0000000   0.0000000   0.0000000   0.0000000
 NMagM=    2.7928460   0.0000000   2.7928460   0.0000000   2.7928460   2.7928460   0.0000000   0.0000000   2.7928460   2.7928460

  Atom        21          22          23          24          25          26          27          28          29          30
 IAtWgt=          12           1           1          12           1           1          12           1          12           1
 AtmWgt=  12.0000000   1.0078250   1.0078250  12.0000000   1.0078250   1.0078250  12.0000000   1.0078250  12.0000000   1.0078250
 NucSpn=           0           1           1           0           1           1           0           1           0           1
 AtZEff=   0.0000000   0.0000000   0.0000000   0.0000000   0.0000000   0.0000000   0.0000000   0.0000000   0.0000000   0.0000000
 NQMom=    0.0000000   0.0000000   0.0000000   0.0000000   0.0000000   0.0000000   0.0000000   0.0000000   0.0000000   0.0000000
 NMagM=    0.0000000   2.7928460   2.7928460   0.0000000   2.7928460   2.7928460   0.0000000   2.7928460   0.0000000   2.7928460

  Atom        31          32          33          34          35          36          37          38          39          40
 IAtWgt=          12           1           1           1          12          12           1           1          12           1
 AtmWgt=  12.0000000   1.0078250   1.0078250   1.0078250  12.0000000  12.0000000   1.0078250   1.0078250  12.0000000   1.0078250
 NucSpn=           0           1           1           1           0           0           1           1           0           1
 AtZEff=   0.0000000   0.0000000   0.0000000   0.0000000   0.0000000   0.0000000   0.0000000   0.0000000   0.0000000   0.0000000
 NQMom=    0.0000000   0.0000000   0.0000000   0.0000000   0.0000000   0.0000000   0.0000000   0.0000000   0.0000000   0.0000000
 NMagM=    0.0000000   2.7928460   2.7928460   2.7928460   0.0000000   0.0000000   2.7928460   2.7928460   0.0000000   2.7928460

  Atom        41          42          43          44          45          46          47          48          49          50
 IAtWgt=          12           1           1           1          12           1           1          12           1           1
 AtmWgt=  12.0000000   1.0078250   1.0078250   1.0078250  12.0000000   1.0078250   1.0078250  12.0000000   1.0078250   1.0078250
 NucSpn=           0           1           1           1           0           1           1           0           1           1
 AtZEff=   0.0000000   0.0000000   0.0000000   0.0000000   0.0000000   0.0000000   0.0000000   0.0000000   0.0000000   0.0000000
 NQMom=    0.0000000   0.0000000   0.0000000   0.0000000   0.0000000   0.0000000   0.0000000   0.0000000   0.0000000   0.0000000
 NMagM=    0.0000000   2.7928460   2.7928460   2.7928460   0.0000000   2.7928460   2.7928460   0.0000000   2.7928460   2.7928460

  Atom        51          52          53          54          55          56          57          58          59          60
 IAtWgt=          12           1           1          12           1          12           1           1           1          12
 AtmWgt=  12.0000000   1.0078250   1.0078250  12.0000000   1.0078250  12.0000000   1.0078250   1.0078250   1.0078250  12.0000000
 NucSpn=           0           1           1           0           1           0           1           1           1           0
 AtZEff=   0.0000000   0.0000000   0.0000000   0.0000000   0.0000000   0.0000000   0.0000000   0.0000000   0.0000000   0.0000000
 NQMom=    0.0000000   0.0000000   0.0000000   0.0000000   0.0000000   0.0000000   0.0000000   0.0000000   0.0000000   0.0000000
 NMagM=    0.0000000   2.7928460   2.7928460   0.0000000   2.7928460   0.0000000   2.7928460   2.7928460   2.7928460   0.0000000

  Atom        61          62          63          64          65          66          67          68          69          70
 IAtWgt=           1           1          12           1           1          12           1          12           1           1
 AtmWgt=   1.0078250   1.0078250  12.0000000   1.0078250   1.0078250  12.0000000   1.0078250  12.0000000   1.0078250   1.0078250
 NucSpn=           1           1           0           1           1           0           1           0           1           1
 AtZEff=   0.0000000   0.0000000   0.0000000   0.0000000   0.0000000   0.0000000   0.0000000   0.0000000   0.0000000   0.0000000
 NQMom=    0.0000000   0.0000000   0.0000000   0.0000000   0.0000000   0.0000000   0.0000000   0.0000000   0.0000000   0.0000000
 NMagM=    2.7928460   2.7928460   0.0000000   2.7928460   2.7928460   0.0000000   2.7928460   0.0000000   2.7928460   2.7928460

  Atom        71          72          73          74          75
 IAtWgt=           1          12           1           1           1
 AtmWgt=   1.0078250  12.0000000   1.0078250   1.0078250   1.0078250
 NucSpn=           1           0           1           1           1
 AtZEff=   0.0000000   0.0000000   0.0000000   0.0000000   0.0000000
 NQMom=    0.0000000   0.0000000   0.0000000   0.0000000   0.0000000
 NMagM=    2.7928460   0.0000000   2.7928460   2.7928460   2.7928460
 Leave Link  101 at Thu May 18 14:13:15 2017, MaxMem=   33554432 cpu:      10.8
 (Enter /scratch/michal/g09/l202.exe)
 Symmetry turned off by external request.
 Stoichiometry    C27H46O2
 Framework group  C1[X(C27H46O2)]
 Deg. of freedom   219
 Full point group                 C1      NOp   1
                          Input orientation:                          
 ---------------------------------------------------------------------
 Center     Atomic      Atomic             Coordinates (Angstroms)
 Number     Number       Type             X           Y           Z
 ---------------------------------------------------------------------
      1          8           0        0.000000    0.000000    0.000000
      2          1           0       -0.470998    0.454668   -0.711109
      3          8           0       -3.270128    5.865712    0.000000
      4          1           0       -2.970272    6.551705    0.612913
      5          6           0        4.183777    1.137762   -0.375958
      6          6           0        2.797100    0.581494    0.052593
      7          1           0        2.351778    0.166817   -0.863016
      8          6           0        1.803798    1.632626    0.562976
      9          1           0        2.197517    2.080683    1.486840
     10          6           0        1.599126    2.745850   -0.495336
     11          1           0        1.066693    2.269232   -1.335288
     12          6           0        4.895028   -0.199859   -0.785079
     13          1           0        4.452598   -0.496053   -1.749492
     14          6           0        3.912569    2.147815   -1.510187
     15          1           0        3.485699    1.606480   -2.366745
     16          1           0        4.833559    2.618665   -1.868022
     17          6           0        0.656792    3.891230    0.016146
     18          6           0        3.124107   -0.620555    0.948564
     19          1           0        2.301003   -1.339675    0.982508
     20          1           0        3.316094   -0.300545    1.980772
     21          6           0        2.941287    3.260932   -1.066586
     22          1           0        3.447502    3.882817   -0.321020
     23          1           0        2.749084    3.916393   -1.923936
     24          6           0        4.404698   -1.216880    0.302643
     25          1           0        5.186389   -1.375455    1.055441
     26          1           0        4.201339   -2.195624   -0.141515
     27          6           0        0.451581    0.995984    0.947950
     28          1           0        0.587773    0.423433    1.872609
     29          6           0        6.434518   -0.226528   -0.973594
     30          1           0        6.895794    0.000000    0.000000
     31          6           0        4.942373    1.810859    0.790941
     32          1           0        4.371603    2.624579    1.245901
     33          1           0        5.178857    1.099239    1.587785
     34          1           0        5.889752    2.236774    0.444230
     35          6           0       -0.560045    3.299807    0.739886
     36          6           0        0.147697    4.705340   -1.213511
     37          1           0       -0.204398    3.994862   -1.974379
     38          1           0        0.987273    5.247368   -1.661748
     39          6           0       -0.624810    2.022417    1.150279
     40          1           0       -1.531629    1.666069    1.638142
     41          6           0        1.393505    4.841775    0.998969
     42          1           0        2.158854    5.430643    0.484619
     43          1           0        0.704699    5.549188    1.467339
     44          1           0        1.876374    4.281250    1.805082
     45          6           0       -1.725919    4.236657    0.997997
     46          1           0       -2.569185    3.683179    1.422605
     47          1           0       -1.437623    4.993424    1.744985
     48          6           0       -0.990369    5.692577   -0.912783
     49          1           0       -0.640769    6.489761   -0.240214
     50          1           0       -1.315544    6.182865   -1.837369
     51          6           0        6.898880   -1.648091   -1.377891
     52          1           0        6.427387   -2.384461   -0.717365
     53          1           0        6.525472   -1.866312   -2.390406
     54          6           0       -2.179111    4.981030   -0.267226
     55          1           0       -2.591918    4.254698   -0.978189
     56          6           0        6.940702    0.810843   -1.991499
     57          1           0        6.444860    0.681630   -2.961921
     58          1           0        8.018021    0.712868   -2.154954
     59          1           0        6.762145    1.836161   -1.660086
     60          6           0        8.417407   -1.887079   -1.334083
     61          1           0        8.924743   -1.228893   -2.048404
     62          1           0        8.789675   -1.610162   -0.338250
     63          6           0        8.781864   -3.349271   -1.639534
     64          1           0        8.367401   -3.615745   -2.622698
     65          1           0        8.273153   -3.997804   -0.911693
     66          6           0       10.287158   -3.704054   -1.636106
     67          1           0       10.343414   -4.778940   -1.863619
     68          6           0       10.940812   -3.499534   -0.259334
     69          1           0       10.981405   -2.439130    0.015247
     70          1           0       11.969699   -3.877255   -0.256067
     71          1           0       10.388726   -4.027705    0.527044
     72          6           0       11.073212   -2.969706   -2.735069
     73          1           0       11.120147   -1.890794   -2.547316
     74          1           0       12.104703   -3.336528   -2.787507
     75          1           0       10.615550   -3.118307   -3.720240
 ---------------------------------------------------------------------
 Rotational constants (GHZ):      0.5347395      0.0519844      0.0496760
 Leave Link  202 at Thu May 18 14:13:15 2017, MaxMem=   33554432 cpu:       0.1
 (Enter /scratch/michal/g09/l301.exe)
 Standard basis: 6-31G(d) (6D, 7F)
 Ernie: Thresh=  0.10000D-02 Tol=  0.10000D-05 Strict=F.
 AO basis set in the form of general basis input (Overlap normalization):
      1 0
 S   6 1.00       0.000000000000
      0.5484671660D+04  0.1831074430D-02
      0.8252349460D+03  0.1395017220D-01
      0.1880469580D+03  0.6844507810D-01
      0.5296450000D+02  0.2327143360D+00
      0.1689757040D+02  0.4701928980D+00
      0.5799635340D+01  0.3585208530D+00
 SP   3 1.00       0.000000000000
      0.1553961625D+02 -0.1107775495D+00  0.7087426823D-01
      0.3599933586D+01 -0.1480262627D+00  0.3397528391D+00
      0.1013761750D+01  0.1130767015D+01  0.7271585773D+00
 SP   1 1.00       0.000000000000
      0.2700058226D+00  0.1000000000D+01  0.1000000000D+01
 D   1 1.00       0.000000000000
      0.8000000000D+00  0.1000000000D+01
 ****
      2 0
 S   3 1.00       0.000000000000
      0.1873113696D+02  0.3349460434D-01
      0.2825394365D+01  0.2347269535D+00
      0.6401216923D+00  0.8137573261D+00
 S   1 1.00       0.000000000000
      0.1612777588D+00  0.1000000000D+01
 ****
      3 0
 S   6 1.00       0.000000000000
      0.5484671660D+04  0.1831074430D-02
      0.8252349460D+03  0.1395017220D-01
      0.1880469580D+03  0.6844507810D-01
      0.5296450000D+02  0.2327143360D+00
      0.1689757040D+02  0.4701928980D+00
      0.5799635340D+01  0.3585208530D+00
 SP   3 1.00       0.000000000000
      0.1553961625D+02 -0.1107775495D+00  0.7087426823D-01
      0.3599933586D+01 -0.1480262627D+00  0.3397528391D+00
      0.1013761750D+01  0.1130767015D+01  0.7271585773D+00
 SP   1 1.00       0.000000000000
      0.2700058226D+00  0.1000000000D+01  0.1000000000D+01
 D   1 1.00       0.000000000000
      0.8000000000D+00  0.1000000000D+01
 ****
      4 0
 S   3 1.00       0.000000000000
      0.1873113696D+02  0.3349460434D-01
      0.2825394365D+01  0.2347269535D+00
      0.6401216923D+00  0.8137573261D+00
 S   1 1.00       0.000000000000
      0.1612777588D+00  0.1000000000D+01
 ****
      5 0
 S   6 1.00       0.000000000000
      0.3047524880D+04  0.1834737132D-02
      0.4573695180D+03  0.1403732281D-01
      0.1039486850D+03  0.6884262226D-01
      0.2921015530D+02  0.2321844432D+00
      0.9286662960D+01  0.4679413484D+00
      0.3163926960D+01  0.3623119853D+00
 SP   3 1.00       0.000000000000
      0.7868272350D+01 -0.1193324198D+00  0.6899906659D-01
      0.1881288540D+01 -0.1608541517D+00  0.3164239610D+00
      0.5442492580D+00  0.1143456438D+01  0.7443082909D+00
 SP   1 1.00       0.000000000000
      0.1687144782D+00  0.1000000000D+01  0.1000000000D+01
 D   1 1.00       0.000000000000
      0.8000000000D+00  0.1000000000D+01
 ****
      6 0
 S   6 1.00       0.000000000000
      0.3047524880D+04  0.1834737132D-02
      0.4573695180D+03  0.1403732281D-01
      0.1039486850D+03  0.6884262226D-01
      0.2921015530D+02  0.2321844432D+00
      0.9286662960D+01  0.4679413484D+00
      0.3163926960D+01  0.3623119853D+00
 SP   3 1.00       0.000000000000
      0.7868272350D+01 -0.1193324198D+00  0.6899906659D-01
      0.1881288540D+01 -0.1608541517D+00  0.3164239610D+00
      0.5442492580D+00  0.1143456438D+01  0.7443082909D+00
 SP   1 1.00       0.000000000000
      0.1687144782D+00  0.1000000000D+01  0.1000000000D+01
 D   1 1.00       0.000000000000
      0.8000000000D+00  0.1000000000D+01
 ****
      7 0
 S   3 1.00       0.000000000000
      0.1873113696D+02  0.3349460434D-01
      0.2825394365D+01  0.2347269535D+00
      0.6401216923D+00  0.8137573261D+00
 S   1 1.00       0.000000000000
      0.1612777588D+00  0.1000000000D+01
 ****
      8 0
 S   6 1.00       0.000000000000
      0.3047524880D+04  0.1834737132D-02
      0.4573695180D+03  0.1403732281D-01
      0.1039486850D+03  0.6884262226D-01
      0.2921015530D+02  0.2321844432D+00
      0.9286662960D+01  0.4679413484D+00
      0.3163926960D+01  0.3623119853D+00
 SP   3 1.00       0.000000000000
      0.7868272350D+01 -0.1193324198D+00  0.6899906659D-01
      0.1881288540D+01 -0.1608541517D+00  0.3164239610D+00
      0.5442492580D+00  0.1143456438D+01  0.7443082909D+00
 SP   1 1.00       0.000000000000
      0.1687144782D+00  0.1000000000D+01  0.1000000000D+01
 D   1 1.00       0.000000000000
      0.8000000000D+00  0.1000000000D+01
 ****
      9 0
 S   3 1.00       0.000000000000
      0.1873113696D+02  0.3349460434D-01
      0.2825394365D+01  0.2347269535D+00
      0.6401216923D+00  0.8137573261D+00
 S   1 1.00       0.000000000000
      0.1612777588D+00  0.1000000000D+01
 ****
     10 0
 S   6 1.00       0.000000000000
      0.3047524880D+04  0.1834737132D-02
      0.4573695180D+03  0.1403732281D-01
      0.1039486850D+03  0.6884262226D-01
      0.2921015530D+02  0.2321844432D+00
      0.9286662960D+01  0.4679413484D+00
      0.3163926960D+01  0.3623119853D+00
 SP   3 1.00       0.000000000000
      0.7868272350D+01 -0.1193324198D+00  0.6899906659D-01
      0.1881288540D+01 -0.1608541517D+00  0.3164239610D+00
      0.5442492580D+00  0.1143456438D+01  0.7443082909D+00
 SP   1 1.00       0.000000000000
      0.1687144782D+00  0.1000000000D+01  0.1000000000D+01
 D   1 1.00       0.000000000000
      0.8000000000D+00  0.1000000000D+01
 ****
     11 0
 S   3 1.00       0.000000000000
      0.1873113696D+02  0.3349460434D-01
      0.2825394365D+01  0.2347269535D+00
      0.6401216923D+00  0.8137573261D+00
 S   1 1.00       0.000000000000
      0.1612777588D+00  0.1000000000D+01
 ****
     12 0
 S   6 1.00       0.000000000000
      0.3047524880D+04  0.1834737132D-02
      0.4573695180D+03  0.1403732281D-01
      0.1039486850D+03  0.6884262226D-01
      0.2921015530D+02  0.2321844432D+00
      0.9286662960D+01  0.4679413484D+00
      0.3163926960D+01  0.3623119853D+00
 SP   3 1.00       0.000000000000
      0.7868272350D+01 -0.1193324198D+00  0.6899906659D-01
      0.1881288540D+01 -0.1608541517D+00  0.3164239610D+00
      0.5442492580D+00  0.1143456438D+01  0.7443082909D+00
 SP   1 1.00       0.000000000000
      0.1687144782D+00  0.1000000000D+01  0.1000000000D+01
 D   1 1.00       0.000000000000
      0.8000000000D+00  0.1000000000D+01
 ****
     13 0
 S   3 1.00       0.000000000000
      0.1873113696D+02  0.3349460434D-01
      0.2825394365D+01  0.2347269535D+00
      0.6401216923D+00  0.8137573261D+00
 S   1 1.00       0.000000000000
      0.1612777588D+00  0.1000000000D+01
 ****
     14 0
 S   6 1.00       0.000000000000
      0.3047524880D+04  0.1834737132D-02
      0.4573695180D+03  0.1403732281D-01
      0.1039486850D+03  0.6884262226D-01
      0.2921015530D+02  0.2321844432D+00
      0.9286662960D+01  0.4679413484D+00
      0.3163926960D+01  0.3623119853D+00
 SP   3 1.00       0.000000000000
      0.7868272350D+01 -0.1193324198D+00  0.6899906659D-01
      0.1881288540D+01 -0.1608541517D+00  0.3164239610D+00
      0.5442492580D+00  0.1143456438D+01  0.7443082909D+00
 SP   1 1.00       0.000000000000
      0.1687144782D+00  0.1000000000D+01  0.1000000000D+01
 D   1 1.00       0.000000000000
      0.8000000000D+00  0.1000000000D+01
 ****
     15 0
 S   3 1.00       0.000000000000
      0.1873113696D+02  0.3349460434D-01
      0.2825394365D+01  0.2347269535D+00
      0.6401216923D+00  0.8137573261D+00
 S   1 1.00       0.000000000000
      0.1612777588D+00  0.1000000000D+01
 ****
     16 0
 S   3 1.00       0.000000000000
      0.1873113696D+02  0.3349460434D-01
      0.2825394365D+01  0.2347269535D+00
      0.6401216923D+00  0.8137573261D+00
 S   1 1.00       0.000000000000
      0.1612777588D+00  0.1000000000D+01
 ****
     17 0
 S   6 1.00       0.000000000000
      0.3047524880D+04  0.1834737132D-02
      0.4573695180D+03  0.1403732281D-01
      0.1039486850D+03  0.6884262226D-01
      0.2921015530D+02  0.2321844432D+00
      0.9286662960D+01  0.4679413484D+00
      0.3163926960D+01  0.3623119853D+00
 SP   3 1.00       0.000000000000
      0.7868272350D+01 -0.1193324198D+00  0.6899906659D-01
      0.1881288540D+01 -0.1608541517D+00  0.3164239610D+00
      0.5442492580D+00  0.1143456438D+01  0.7443082909D+00
 SP   1 1.00       0.000000000000
      0.1687144782D+00  0.1000000000D+01  0.1000000000D+01
 D   1 1.00       0.000000000000
      0.8000000000D+00  0.1000000000D+01
 ****
     18 0
 S   6 1.00       0.000000000000
      0.3047524880D+04  0.1834737132D-02
      0.4573695180D+03  0.1403732281D-01
      0.1039486850D+03  0.6884262226D-01
      0.2921015530D+02  0.2321844432D+00
      0.9286662960D+01  0.4679413484D+00
      0.3163926960D+01  0.3623119853D+00
 SP   3 1.00       0.000000000000
      0.7868272350D+01 -0.1193324198D+00  0.6899906659D-01
      0.1881288540D+01 -0.1608541517D+00  0.3164239610D+00
      0.5442492580D+00  0.1143456438D+01  0.7443082909D+00
 SP   1 1.00       0.000000000000
      0.1687144782D+00  0.1000000000D+01  0.1000000000D+01
 D   1 1.00       0.000000000000
      0.8000000000D+00  0.1000000000D+01
 ****
     19 0
 S   3 1.00       0.000000000000
      0.1873113696D+02  0.3349460434D-01
      0.2825394365D+01  0.2347269535D+00
      0.6401216923D+00  0.8137573261D+00
 S   1 1.00       0.000000000000
      0.1612777588D+00  0.1000000000D+01
 ****
     20 0
 S   3 1.00       0.000000000000
      0.1873113696D+02  0.3349460434D-01
      0.2825394365D+01  0.2347269535D+00
      0.6401216923D+00  0.8137573261D+00
 S   1 1.00       0.000000000000
      0.1612777588D+00  0.1000000000D+01
 ****
     21 0
 S   6 1.00       0.000000000000
      0.3047524880D+04  0.1834737132D-02
      0.4573695180D+03  0.1403732281D-01
      0.1039486850D+03  0.6884262226D-01
      0.2921015530D+02  0.2321844432D+00
      0.9286662960D+01  0.4679413484D+00
      0.3163926960D+01  0.3623119853D+00
 SP   3 1.00       0.000000000000
      0.7868272350D+01 -0.1193324198D+00  0.6899906659D-01
      0.1881288540D+01 -0.1608541517D+00  0.3164239610D+00
      0.5442492580D+00  0.1143456438D+01  0.7443082909D+00
 SP   1 1.00       0.000000000000
      0.1687144782D+00  0.1000000000D+01  0.1000000000D+01
 D   1 1.00       0.000000000000
      0.8000000000D+00  0.1000000000D+01
 ****
     22 0
 S   3 1.00       0.000000000000
      0.1873113696D+02  0.3349460434D-01
      0.2825394365D+01  0.2347269535D+00
      0.6401216923D+00  0.8137573261D+00
 S   1 1.00       0.000000000000
      0.1612777588D+00  0.1000000000D+01
 ****
     23 0
 S   3 1.00       0.000000000000
      0.1873113696D+02  0.3349460434D-01
      0.2825394365D+01  0.2347269535D+00
      0.6401216923D+00  0.8137573261D+00
 S   1 1.00       0.000000000000
      0.1612777588D+00  0.1000000000D+01
 ****
     24 0
 S   6 1.00       0.000000000000
      0.3047524880D+04  0.1834737132D-02
      0.4573695180D+03  0.1403732281D-01
      0.1039486850D+03  0.6884262226D-01
      0.2921015530D+02  0.2321844432D+00
      0.9286662960D+01  0.4679413484D+00
      0.3163926960D+01  0.3623119853D+00
 SP   3 1.00       0.000000000000
      0.7868272350D+01 -0.1193324198D+00  0.6899906659D-01
      0.1881288540D+01 -0.1608541517D+00  0.3164239610D+00
      0.5442492580D+00  0.1143456438D+01  0.7443082909D+00
 SP   1 1.00       0.000000000000
      0.1687144782D+00  0.1000000000D+01  0.1000000000D+01
 D   1 1.00       0.000000000000
      0.8000000000D+00  0.1000000000D+01
 ****
     25 0
 S   3 1.00       0.000000000000
      0.1873113696D+02  0.3349460434D-01
      0.2825394365D+01  0.2347269535D+00
      0.6401216923D+00  0.8137573261D+00
 S   1 1.00       0.000000000000
      0.1612777588D+00  0.1000000000D+01
 ****
     26 0
 S   3 1.00       0.000000000000
      0.1873113696D+02  0.3349460434D-01
      0.2825394365D+01  0.2347269535D+00
      0.6401216923D+00  0.8137573261D+00
 S   1 1.00       0.000000000000
      0.1612777588D+00  0.1000000000D+01
 ****
     27 0
 S   6 1.00       0.000000000000
      0.3047524880D+04  0.1834737132D-02
      0.4573695180D+03  0.1403732281D-01
      0.1039486850D+03  0.6884262226D-01
      0.2921015530D+02  0.2321844432D+00
      0.9286662960D+01  0.4679413484D+00
      0.3163926960D+01  0.3623119853D+00
 SP   3 1.00       0.000000000000
      0.7868272350D+01 -0.1193324198D+00  0.6899906659D-01
      0.1881288540D+01 -0.1608541517D+00  0.3164239610D+00
      0.5442492580D+00  0.1143456438D+01  0.7443082909D+00
 SP   1 1.00       0.000000000000
      0.1687144782D+00  0.1000000000D+01  0.1000000000D+01
 D   1 1.00       0.000000000000
      0.8000000000D+00  0.1000000000D+01
 ****
     28 0
 S   3 1.00       0.000000000000
      0.1873113696D+02  0.3349460434D-01
      0.2825394365D+01  0.2347269535D+00
      0.6401216923D+00  0.8137573261D+00
 S   1 1.00       0.000000000000
      0.1612777588D+00  0.1000000000D+01
 ****
     29 0
 S   6 1.00       0.000000000000
      0.3047524880D+04  0.1834737132D-02
      0.4573695180D+03  0.1403732281D-01
      0.1039486850D+03  0.6884262226D-01
      0.2921015530D+02  0.2321844432D+00
      0.9286662960D+01  0.4679413484D+00
      0.3163926960D+01  0.3623119853D+00
 SP   3 1.00       0.000000000000
      0.7868272350D+01 -0.1193324198D+00  0.6899906659D-01
      0.1881288540D+01 -0.1608541517D+00  0.3164239610D+00
      0.5442492580D+00  0.1143456438D+01  0.7443082909D+00
 SP   1 1.00       0.000000000000
      0.1687144782D+00  0.1000000000D+01  0.1000000000D+01
 D   1 1.00       0.000000000000
      0.8000000000D+00  0.1000000000D+01
 ****
     30 0
 S   3 1.00       0.000000000000
      0.1873113696D+02  0.3349460434D-01
      0.2825394365D+01  0.2347269535D+00
      0.6401216923D+00  0.8137573261D+00
 S   1 1.00       0.000000000000
      0.1612777588D+00  0.1000000000D+01
 ****
     31 0
 S   6 1.00       0.000000000000
      0.3047524880D+04  0.1834737132D-02
      0.4573695180D+03  0.1403732281D-01
      0.1039486850D+03  0.6884262226D-01
      0.2921015530D+02  0.2321844432D+00
      0.9286662960D+01  0.4679413484D+00
      0.3163926960D+01  0.3623119853D+00
 SP   3 1.00       0.000000000000
      0.7868272350D+01 -0.1193324198D+00  0.6899906659D-01
      0.1881288540D+01 -0.1608541517D+00  0.3164239610D+00
      0.5442492580D+00  0.1143456438D+01  0.7443082909D+00
 SP   1 1.00       0.000000000000
      0.1687144782D+00  0.1000000000D+01  0.1000000000D+01
 D   1 1.00       0.000000000000
      0.8000000000D+00  0.1000000000D+01
 ****
     32 0
 S   3 1.00       0.000000000000
      0.1873113696D+02  0.3349460434D-01
      0.2825394365D+01  0.2347269535D+00
      0.6401216923D+00  0.8137573261D+00
 S   1 1.00       0.000000000000
      0.1612777588D+00  0.1000000000D+01
 ****
     33 0
 S   3 1.00       0.000000000000
      0.1873113696D+02  0.3349460434D-01
      0.2825394365D+01  0.2347269535D+00
      0.6401216923D+00  0.8137573261D+00
 S   1 1.00       0.000000000000
      0.1612777588D+00  0.1000000000D+01
 ****
     34 0
 S   3 1.00       0.000000000000
      0.1873113696D+02  0.3349460434D-01
      0.2825394365D+01  0.2347269535D+00
      0.6401216923D+00  0.8137573261D+00
 S   1 1.00       0.000000000000
      0.1612777588D+00  0.1000000000D+01
 ****
     35 0
 S   6 1.00       0.000000000000
      0.3047524880D+04  0.1834737132D-02
      0.4573695180D+03  0.1403732281D-01
      0.1039486850D+03  0.6884262226D-01
      0.2921015530D+02  0.2321844432D+00
      0.9286662960D+01  0.4679413484D+00
      0.3163926960D+01  0.3623119853D+00
 SP   3 1.00       0.000000000000
      0.7868272350D+01 -0.1193324198D+00  0.6899906659D-01
      0.1881288540D+01 -0.1608541517D+00  0.3164239610D+00
      0.5442492580D+00  0.1143456438D+01  0.7443082909D+00
 SP   1 1.00       0.000000000000
      0.1687144782D+00  0.1000000000D+01  0.1000000000D+01
 D   1 1.00       0.000000000000
      0.8000000000D+00  0.1000000000D+01
 ****
     36 0
 S   6 1.00       0.000000000000
      0.3047524880D+04  0.1834737132D-02
      0.4573695180D+03  0.1403732281D-01
      0.1039486850D+03  0.6884262226D-01
      0.2921015530D+02  0.2321844432D+00
      0.9286662960D+01  0.4679413484D+00
      0.3163926960D+01  0.3623119853D+00
 SP   3 1.00       0.000000000000
      0.7868272350D+01 -0.1193324198D+00  0.6899906659D-01
      0.1881288540D+01 -0.1608541517D+00  0.3164239610D+00
      0.5442492580D+00  0.1143456438D+01  0.7443082909D+00
 SP   1 1.00       0.000000000000
      0.1687144782D+00  0.1000000000D+01  0.1000000000D+01
 D   1 1.00       0.000000000000
      0.8000000000D+00  0.1000000000D+01
 ****
     37 0
 S   3 1.00       0.000000000000
      0.1873113696D+02  0.3349460434D-01
      0.2825394365D+01  0.2347269535D+00
      0.6401216923D+00  0.8137573261D+00
 S   1 1.00       0.000000000000
      0.1612777588D+00  0.1000000000D+01
 ****
     38 0
 S   3 1.00       0.000000000000
      0.1873113696D+02  0.3349460434D-01
      0.2825394365D+01  0.2347269535D+00
      0.6401216923D+00  0.8137573261D+00
 S   1 1.00       0.000000000000
      0.1612777588D+00  0.1000000000D+01
 ****
     39 0
 S   6 1.00       0.000000000000
      0.3047524880D+04  0.1834737132D-02
      0.4573695180D+03  0.1403732281D-01
      0.1039486850D+03  0.6884262226D-01
      0.2921015530D+02  0.2321844432D+00
      0.9286662960D+01  0.4679413484D+00
      0.3163926960D+01  0.3623119853D+00
 SP   3 1.00       0.000000000000
      0.7868272350D+01 -0.1193324198D+00  0.6899906659D-01
      0.1881288540D+01 -0.1608541517D+00  0.3164239610D+00
      0.5442492580D+00  0.1143456438D+01  0.7443082909D+00
 SP   1 1.00       0.000000000000
      0.1687144782D+00  0.1000000000D+01  0.1000000000D+01
 D   1 1.00       0.000000000000
      0.8000000000D+00  0.1000000000D+01
 ****
     40 0
 S   3 1.00       0.000000000000
      0.1873113696D+02  0.3349460434D-01
      0.2825394365D+01  0.2347269535D+00
      0.6401216923D+00  0.8137573261D+00
 S   1 1.00       0.000000000000
      0.1612777588D+00  0.1000000000D+01
 ****
     41 0
 S   6 1.00       0.000000000000
      0.3047524880D+04  0.1834737132D-02
      0.4573695180D+03  0.1403732281D-01
      0.1039486850D+03  0.6884262226D-01
      0.2921015530D+02  0.2321844432D+00
      0.9286662960D+01  0.4679413484D+00
      0.3163926960D+01  0.3623119853D+00
 SP   3 1.00       0.000000000000
      0.7868272350D+01 -0.1193324198D+00  0.6899906659D-01
      0.1881288540D+01 -0.1608541517D+00  0.3164239610D+00
      0.5442492580D+00  0.1143456438D+01  0.7443082909D+00
 SP   1 1.00       0.000000000000
      0.1687144782D+00  0.1000000000D+01  0.1000000000D+01
 D   1 1.00       0.000000000000
      0.8000000000D+00  0.1000000000D+01
 ****
     42 0
 S   3 1.00       0.000000000000
      0.1873113696D+02  0.3349460434D-01
      0.2825394365D+01  0.2347269535D+00
      0.6401216923D+00  0.8137573261D+00
 S   1 1.00       0.000000000000
      0.1612777588D+00  0.1000000000D+01
 ****
     43 0
 S   3 1.00       0.000000000000
      0.1873113696D+02  0.3349460434D-01
      0.2825394365D+01  0.2347269535D+00
      0.6401216923D+00  0.8137573261D+00
 S   1 1.00       0.000000000000
      0.1612777588D+00  0.1000000000D+01
 ****
     44 0
 S   3 1.00       0.000000000000
      0.1873113696D+02  0.3349460434D-01
      0.2825394365D+01  0.2347269535D+00
      0.6401216923D+00  0.8137573261D+00
 S   1 1.00       0.000000000000
      0.1612777588D+00  0.1000000000D+01
 ****
     45 0
 S   6 1.00       0.000000000000
      0.3047524880D+04  0.1834737132D-02
      0.4573695180D+03  0.1403732281D-01
      0.1039486850D+03  0.6884262226D-01
      0.2921015530D+02  0.2321844432D+00
      0.9286662960D+01  0.4679413484D+00
      0.3163926960D+01  0.3623119853D+00
 SP   3 1.00       0.000000000000
      0.7868272350D+01 -0.1193324198D+00  0.6899906659D-01
      0.1881288540D+01 -0.1608541517D+00  0.3164239610D+00
      0.5442492580D+00  0.1143456438D+01  0.7443082909D+00
 SP   1 1.00       0.000000000000
      0.1687144782D+00  0.1000000000D+01  0.1000000000D+01
 D   1 1.00       0.000000000000
      0.8000000000D+00  0.1000000000D+01
 ****
     46 0
 S   3 1.00       0.000000000000
      0.1873113696D+02  0.3349460434D-01
      0.2825394365D+01  0.2347269535D+00
      0.6401216923D+00  0.8137573261D+00
 S   1 1.00       0.000000000000
      0.1612777588D+00  0.1000000000D+01
 ****
     47 0
 S   3 1.00       0.000000000000
      0.1873113696D+02  0.3349460434D-01
      0.2825394365D+01  0.2347269535D+00
      0.6401216923D+00  0.8137573261D+00
 S   1 1.00       0.000000000000
      0.1612777588D+00  0.1000000000D+01
 ****
     48 0
 S   6 1.00       0.000000000000
      0.3047524880D+04  0.1834737132D-02
      0.4573695180D+03  0.1403732281D-01
      0.1039486850D+03  0.6884262226D-01
      0.2921015530D+02  0.2321844432D+00
      0.9286662960D+01  0.4679413484D+00
      0.3163926960D+01  0.3623119853D+00
 SP   3 1.00       0.000000000000
      0.7868272350D+01 -0.1193324198D+00  0.6899906659D-01
      0.1881288540D+01 -0.1608541517D+00  0.3164239610D+00
      0.5442492580D+00  0.1143456438D+01  0.7443082909D+00
 SP   1 1.00       0.000000000000
      0.1687144782D+00  0.1000000000D+01  0.1000000000D+01
 D   1 1.00       0.000000000000
      0.8000000000D+00  0.1000000000D+01
 ****
     49 0
 S   3 1.00       0.000000000000
      0.1873113696D+02  0.3349460434D-01
      0.2825394365D+01  0.2347269535D+00
      0.6401216923D+00  0.8137573261D+00
 S   1 1.00       0.000000000000
      0.1612777588D+00  0.1000000000D+01
 ****
     50 0
 S   3 1.00       0.000000000000
      0.1873113696D+02  0.3349460434D-01
      0.2825394365D+01  0.2347269535D+00
      0.6401216923D+00  0.8137573261D+00
 S   1 1.00       0.000000000000
      0.1612777588D+00  0.1000000000D+01
 ****
     51 0
 S   6 1.00       0.000000000000
      0.3047524880D+04  0.1834737132D-02
      0.4573695180D+03  0.1403732281D-01
      0.1039486850D+03  0.6884262226D-01
      0.2921015530D+02  0.2321844432D+00
      0.9286662960D+01  0.4679413484D+00
      0.3163926960D+01  0.3623119853D+00
 SP   3 1.00       0.000000000000
      0.7868272350D+01 -0.1193324198D+00  0.6899906659D-01
      0.1881288540D+01 -0.1608541517D+00  0.3164239610D+00
      0.5442492580D+00  0.1143456438D+01  0.7443082909D+00
 SP   1 1.00       0.000000000000
      0.1687144782D+00  0.1000000000D+01  0.1000000000D+01
 D   1 1.00       0.000000000000
      0.8000000000D+00  0.1000000000D+01
 ****
     52 0
 S   3 1.00       0.000000000000
      0.1873113696D+02  0.3349460434D-01
      0.2825394365D+01  0.2347269535D+00
      0.6401216923D+00  0.8137573261D+00
 S   1 1.00       0.000000000000
      0.1612777588D+00  0.1000000000D+01
 ****
     53 0
 S   3 1.00       0.000000000000
      0.1873113696D+02  0.3349460434D-01
      0.2825394365D+01  0.2347269535D+00
      0.6401216923D+00  0.8137573261D+00
 S   1 1.00       0.000000000000
      0.1612777588D+00  0.1000000000D+01
 ****
     54 0
 S   6 1.00       0.000000000000
      0.3047524880D+04  0.1834737132D-02
      0.4573695180D+03  0.1403732281D-01
      0.1039486850D+03  0.6884262226D-01
      0.2921015530D+02  0.2321844432D+00
      0.9286662960D+01  0.4679413484D+00
      0.3163926960D+01  0.3623119853D+00
 SP   3 1.00       0.000000000000
      0.7868272350D+01 -0.1193324198D+00  0.6899906659D-01
      0.1881288540D+01 -0.1608541517D+00  0.3164239610D+00
      0.5442492580D+00  0.1143456438D+01  0.7443082909D+00
 SP   1 1.00       0.000000000000
      0.1687144782D+00  0.1000000000D+01  0.1000000000D+01
 D   1 1.00       0.000000000000
      0.8000000000D+00  0.1000000000D+01
 ****
     55 0
 S   3 1.00       0.000000000000
      0.1873113696D+02  0.3349460434D-01
      0.2825394365D+01  0.2347269535D+00
      0.6401216923D+00  0.8137573261D+00
 S   1 1.00       0.000000000000
      0.1612777588D+00  0.1000000000D+01
 ****
     56 0
 S   6 1.00       0.000000000000
      0.3047524880D+04  0.1834737132D-02
      0.4573695180D+03  0.1403732281D-01
      0.1039486850D+03  0.6884262226D-01
      0.2921015530D+02  0.2321844432D+00
      0.9286662960D+01  0.4679413484D+00
      0.3163926960D+01  0.3623119853D+00
 SP   3 1.00       0.000000000000
      0.7868272350D+01 -0.1193324198D+00  0.6899906659D-01
      0.1881288540D+01 -0.1608541517D+00  0.3164239610D+00
      0.5442492580D+00  0.1143456438D+01  0.7443082909D+00
 SP   1 1.00       0.000000000000
      0.1687144782D+00  0.1000000000D+01  0.1000000000D+01
 D   1 1.00       0.000000000000
      0.8000000000D+00  0.1000000000D+01
 ****
     57 0
 S   3 1.00       0.000000000000
      0.1873113696D+02  0.3349460434D-01
      0.2825394365D+01  0.2347269535D+00
      0.6401216923D+00  0.8137573261D+00
 S   1 1.00       0.000000000000
      0.1612777588D+00  0.1000000000D+01
 ****
     58 0
 S   3 1.00       0.000000000000
      0.1873113696D+02  0.3349460434D-01
      0.2825394365D+01  0.2347269535D+00
      0.6401216923D+00  0.8137573261D+00
 S   1 1.00       0.000000000000
      0.1612777588D+00  0.1000000000D+01
 ****
     59 0
 S   3 1.00       0.000000000000
      0.1873113696D+02  0.3349460434D-01
      0.2825394365D+01  0.2347269535D+00
      0.6401216923D+00  0.8137573261D+00
 S   1 1.00       0.000000000000
      0.1612777588D+00  0.1000000000D+01
 ****
     60 0
 S   6 1.00       0.000000000000
      0.3047524880D+04  0.1834737132D-02
      0.4573695180D+03  0.1403732281D-01
      0.1039486850D+03  0.6884262226D-01
      0.2921015530D+02  0.2321844432D+00
      0.9286662960D+01  0.4679413484D+00
      0.3163926960D+01  0.3623119853D+00
 SP   3 1.00       0.000000000000
      0.7868272350D+01 -0.1193324198D+00  0.6899906659D-01
      0.1881288540D+01 -0.1608541517D+00  0.3164239610D+00
      0.5442492580D+00  0.1143456438D+01  0.7443082909D+00
 SP   1 1.00       0.000000000000
      0.1687144782D+00  0.1000000000D+01  0.1000000000D+01
 D   1 1.00       0.000000000000
      0.8000000000D+00  0.1000000000D+01
 ****
     61 0
 S   3 1.00       0.000000000000
      0.1873113696D+02  0.3349460434D-01
      0.2825394365D+01  0.2347269535D+00
      0.6401216923D+00  0.8137573261D+00
 S   1 1.00       0.000000000000
      0.1612777588D+00  0.1000000000D+01
 ****
     62 0
 S   3 1.00       0.000000000000
      0.1873113696D+02  0.3349460434D-01
      0.2825394365D+01  0.2347269535D+00
      0.6401216923D+00  0.8137573261D+00
 S   1 1.00       0.000000000000
      0.1612777588D+00  0.1000000000D+01
 ****
     63 0
 S   6 1.00       0.000000000000
      0.3047524880D+04  0.1834737132D-02
      0.4573695180D+03  0.1403732281D-01
      0.1039486850D+03  0.6884262226D-01
      0.2921015530D+02  0.2321844432D+00
      0.9286662960D+01  0.4679413484D+00
      0.3163926960D+01  0.3623119853D+00
 SP   3 1.00       0.000000000000
      0.7868272350D+01 -0.1193324198D+00  0.6899906659D-01
      0.1881288540D+01 -0.1608541517D+00  0.3164239610D+00
      0.5442492580D+00  0.1143456438D+01  0.7443082909D+00
 SP   1 1.00       0.000000000000
      0.1687144782D+00  0.1000000000D+01  0.1000000000D+01
 D   1 1.00       0.000000000000
      0.8000000000D+00  0.1000000000D+01
 ****
     64 0
 S   3 1.00       0.000000000000
      0.1873113696D+02  0.3349460434D-01
      0.2825394365D+01  0.2347269535D+00
      0.6401216923D+00  0.8137573261D+00
 S   1 1.00       0.000000000000
      0.1612777588D+00  0.1000000000D+01
 ****
     65 0
 S   3 1.00       0.000000000000
      0.1873113696D+02  0.3349460434D-01
      0.2825394365D+01  0.2347269535D+00
      0.6401216923D+00  0.8137573261D+00
 S   1 1.00       0.000000000000
      0.1612777588D+00  0.1000000000D+01
 ****
     66 0
 S   6 1.00       0.000000000000
      0.3047524880D+04  0.1834737132D-02
      0.4573695180D+03  0.1403732281D-01
      0.1039486850D+03  0.6884262226D-01
      0.2921015530D+02  0.2321844432D+00
      0.9286662960D+01  0.4679413484D+00
      0.3163926960D+01  0.3623119853D+00
 SP   3 1.00       0.000000000000
      0.7868272350D+01 -0.1193324198D+00  0.6899906659D-01
      0.1881288540D+01 -0.1608541517D+00  0.3164239610D+00
      0.5442492580D+00  0.1143456438D+01  0.7443082909D+00
 SP   1 1.00       0.000000000000
      0.1687144782D+00  0.1000000000D+01  0.1000000000D+01
 D   1 1.00       0.000000000000
      0.8000000000D+00  0.1000000000D+01
 ****
     67 0
 S   3 1.00       0.000000000000
      0.1873113696D+02  0.3349460434D-01
      0.2825394365D+01  0.2347269535D+00
      0.6401216923D+00  0.8137573261D+00
 S   1 1.00       0.000000000000
      0.1612777588D+00  0.1000000000D+01
 ****
     68 0
 S   6 1.00       0.000000000000
      0.3047524880D+04  0.1834737132D-02
      0.4573695180D+03  0.1403732281D-01
      0.1039486850D+03  0.6884262226D-01
      0.2921015530D+02  0.2321844432D+00
      0.9286662960D+01  0.4679413484D+00
      0.3163926960D+01  0.3623119853D+00
 SP   3 1.00       0.000000000000
      0.7868272350D+01 -0.1193324198D+00  0.6899906659D-01
      0.1881288540D+01 -0.1608541517D+00  0.3164239610D+00
      0.5442492580D+00  0.1143456438D+01  0.7443082909D+00
 SP   1 1.00       0.000000000000
      0.1687144782D+00  0.1000000000D+01  0.1000000000D+01
 D   1 1.00       0.000000000000
      0.8000000000D+00  0.1000000000D+01
 ****
     69 0
 S   3 1.00       0.000000000000
      0.1873113696D+02  0.3349460434D-01
      0.2825394365D+01  0.2347269535D+00
      0.6401216923D+00  0.8137573261D+00
 S   1 1.00       0.000000000000
      0.1612777588D+00  0.1000000000D+01
 ****
     70 0
 S   3 1.00       0.000000000000
      0.1873113696D+02  0.3349460434D-01
      0.2825394365D+01  0.2347269535D+00
      0.6401216923D+00  0.8137573261D+00
 S   1 1.00       0.000000000000
      0.1612777588D+00  0.1000000000D+01
 ****
     71 0
 S   3 1.00       0.000000000000
      0.1873113696D+02  0.3349460434D-01
      0.2825394365D+01  0.2347269535D+00
      0.6401216923D+00  0.8137573261D+00
 S   1 1.00       0.000000000000
      0.1612777588D+00  0.1000000000D+01
 ****
     72 0
 S   6 1.00       0.000000000000
      0.3047524880D+04  0.1834737132D-02
      0.4573695180D+03  0.1403732281D-01
      0.1039486850D+03  0.6884262226D-01
      0.2921015530D+02  0.2321844432D+00
      0.9286662960D+01  0.4679413484D+00
      0.3163926960D+01  0.3623119853D+00
 SP   3 1.00       0.000000000000
      0.7868272350D+01 -0.1193324198D+00  0.6899906659D-01
      0.1881288540D+01 -0.1608541517D+00  0.3164239610D+00
      0.5442492580D+00  0.1143456438D+01  0.7443082909D+00
 SP   1 1.00       0.000000000000
      0.1687144782D+00  0.1000000000D+01  0.1000000000D+01
 D   1 1.00       0.000000000000
      0.8000000000D+00  0.1000000000D+01
 ****
     73 0
 S   3 1.00       0.000000000000
      0.1873113696D+02  0.3349460434D-01
      0.2825394365D+01  0.2347269535D+00
      0.6401216923D+00  0.8137573261D+00
 S   1 1.00       0.000000000000
      0.1612777588D+00  0.1000000000D+01
 ****
     74 0
 S   3 1.00       0.000000000000
      0.1873113696D+02  0.3349460434D-01
      0.2825394365D+01  0.2347269535D+00
      0.6401216923D+00  0.8137573261D+00
 S   1 1.00       0.000000000000
      0.1612777588D+00  0.1000000000D+01
 ****
     75 0
 S   3 1.00       0.000000000000
      0.1873113696D+02  0.3349460434D-01
      0.2825394365D+01  0.2347269535D+00
      0.6401216923D+00  0.8137573261D+00
 S   1 1.00       0.000000000000
      0.1612777588D+00  0.1000000000D+01
 ****

 AO basis set (Overlap normalization):
 Atom O1       Shell     1 S   6     bf    1 -     1          0.000000000000          0.000000000000          0.000000000000
      0.5484671660D+04  0.1831074430D-02
      0.8252349460D+03  0.1395017220D-01
      0.1880469580D+03  0.6844507810D-01
      0.5296450000D+02  0.2327143360D+00
      0.1689757040D+02  0.4701928980D+00
      0.5799635340D+01  0.3585208530D+00
 Atom O1       Shell     2 SP   3    bf    2 -     5          0.000000000000          0.000000000000          0.000000000000
      0.1553961625D+02 -0.1107775495D+00  0.7087426823D-01
      0.3599933586D+01 -0.1480262627D+00  0.3397528391D+00
      0.1013761750D+01  0.1130767015D+01  0.7271585773D+00
 Atom O1       Shell     3 SP   1    bf    6 -     9          0.000000000000          0.000000000000          0.000000000000
      0.2700058226D+00  0.1000000000D+01  0.1000000000D+01
 Atom O1       Shell     4 D   1     bf   10 -    15          0.000000000000          0.000000000000          0.000000000000
      0.8000000000D+00  0.1000000000D+01
 Atom H2       Shell     5 S   3     bf   16 -    16         -0.890057077959          0.859198681688         -1.343800315767
      0.1873113696D+02  0.3349460434D-01
      0.2825394365D+01  0.2347269535D+00
      0.6401216923D+00  0.8137573261D+00
 Atom H2       Shell     6 S   1     bf   17 -    17         -0.890057077959          0.859198681688         -1.343800315767
      0.1612777588D+00  0.1000000000D+01
 Atom O3       Shell     7 S   6     bf   18 -    18         -6.179646755221         11.084588668566          0.000000000000
      0.5484671660D+04  0.1831074430D-02
      0.8252349460D+03  0.1395017220D-01
      0.1880469580D+03  0.6844507810D-01
      0.5296450000D+02  0.2327143360D+00
      0.1689757040D+02  0.4701928980D+00
      0.5799635340D+01  0.3585208530D+00
 Atom O3       Shell     8 SP   3    bf   19 -    22         -6.179646755221         11.084588668566          0.000000000000
      0.1553961625D+02 -0.1107775495D+00  0.7087426823D-01
      0.3599933586D+01 -0.1480262627D+00  0.3397528391D+00
      0.1013761750D+01  0.1130767015D+01  0.7271585773D+00
 Atom O3       Shell     9 SP   1    bf   23 -    26         -6.179646755221         11.084588668566          0.000000000000
      0.2700058226D+00  0.1000000000D+01  0.1000000000D+01
 Atom O3       Shell    10 D   1     bf   27 -    32         -6.179646755221         11.084588668566          0.000000000000
      0.8000000000D+00  0.1000000000D+01
 Atom H4       Shell    11 S   3     bf   33 -    33         -5.613000714665         12.380928191252          1.158237505415
      0.1873113696D+02  0.3349460434D-01
      0.2825394365D+01  0.2347269535D+00
      0.6401216923D+00  0.8137573261D+00
 Atom H4       Shell    12 S   1     bf   34 -    34         -5.613000714665         12.380928191252          1.158237505415
      0.1612777588D+00  0.1000000000D+01
 Atom C5       Shell    13 S   6     bf   35 -    35          7.906192334223          2.150057885206         -0.710456769296
      0.3047524880D+04  0.1834737132D-02
      0.4573695180D+03  0.1403732281D-01
      0.1039486850D+03  0.6884262226D-01
      0.2921015530D+02  0.2321844432D+00
      0.9286662960D+01  0.4679413484D+00
      0.3163926960D+01  0.3623119853D+00
 Atom C5       Shell    14 SP   3    bf   36 -    39          7.906192334223          2.150057885206         -0.710456769296
      0.7868272350D+01 -0.1193324198D+00  0.6899906659D-01
      0.1881288540D+01 -0.1608541517D+00  0.3164239610D+00
      0.5442492580D+00  0.1143456438D+01  0.7443082909D+00
 Atom C5       Shell    15 SP   1    bf   40 -    43          7.906192334223          2.150057885206         -0.710456769296
      0.1687144782D+00  0.1000000000D+01  0.1000000000D+01
 Atom C5       Shell    16 D   1     bf   44 -    49          7.906192334223          2.150057885206         -0.710456769296
      0.8000000000D+00  0.1000000000D+01
 Atom C6       Shell    17 S   6     bf   50 -    50          5.285752512760          1.098865296087          0.099385478336
      0.3047524880D+04  0.1834737132D-02
      0.4573695180D+03  0.1403732281D-01
      0.1039486850D+03  0.6884262226D-01
      0.2921015530D+02  0.2321844432D+00
      0.9286662960D+01  0.4679413484D+00
      0.3163926960D+01  0.3623119853D+00
 Atom C6       Shell    18 SP   3    bf   51 -    54          5.285752512760          1.098865296087          0.099385478336
      0.7868272350D+01 -0.1193324198D+00  0.6899906659D-01
      0.1881288540D+01 -0.1608541517D+00  0.3164239610D+00
      0.5442492580D+00  0.1143456438D+01  0.7443082909D+00
 Atom C6       Shell    19 SP   1    bf   55 -    58          5.285752512760          1.098865296087          0.099385478336
      0.1687144782D+00  0.1000000000D+01  0.1000000000D+01
 Atom C6       Shell    20 D   1     bf   59 -    64          5.285752512760          1.098865296087          0.099385478336
      0.8000000000D+00  0.1000000000D+01
 Atom H7       Shell    21 S   3     bf   65 -    65          4.444215816222          0.315237631727         -1.630863056819
      0.1873113696D+02  0.3349460434D-01
      0.2825394365D+01  0.2347269535D+00
      0.6401216923D+00  0.8137573261D+00
 Atom H7       Shell    22 S   1     bf   66 -    66          4.444215816222          0.315237631727         -1.630863056819
      0.1612777588D+00  0.1000000000D+01
 Atom C8       Shell    23 S   6     bf   67 -    67          3.408684578095          3.085216376477          1.063870100339
      0.3047524880D+04  0.1834737132D-02
      0.4573695180D+03  0.1403732281D-01
      0.1039486850D+03  0.6884262226D-01
      0.2921015530D+02  0.2321844432D+00
      0.9286662960D+01  0.4679413484D+00
      0.3163926960D+01  0.3623119853D+00
 Atom C8       Shell    24 SP   3    bf   68 -    71          3.408684578095          3.085216376477          1.063870100339
      0.7868272350D+01 -0.1193324198D+00  0.6899906659D-01
      0.1881288540D+01 -0.1608541517D+00  0.3164239610D+00
      0.5442492580D+00  0.1143456438D+01  0.7443082909D+00
 Atom C8       Shell    25 SP   1    bf   72 -    75          3.408684578095          3.085216376477          1.063870100339
      0.1687144782D+00  0.1000000000D+01  0.1000000000D+01
 Atom C8       Shell    26 D   1     bf   76 -    81          3.408684578095          3.085216376477          1.063870100339
      0.8000000000D+00  0.1000000000D+01
 Atom H9       Shell    27 S   3     bf   82 -    82          4.152704451984          3.931920226769          2.809720308933
      0.1873113696D+02  0.3349460434D-01
      0.2825394365D+01  0.2347269535D+00
      0.6401216923D+00  0.8137573261D+00
 Atom H9       Shell    28 S   1     bf   83 -    83          4.152704451984          3.931920226769          2.809720308933
      0.1612777588D+00  0.1000000000D+01
 Atom C10      Shell    29 S   6     bf   84 -    84          3.021909473881          5.188904728751         -0.936048533382
      0.3047524880D+04  0.1834737132D-02
      0.4573695180D+03  0.1403732281D-01
      0.1039486850D+03  0.6884262226D-01
      0.2921015530D+02  0.2321844432D+00
      0.9286662960D+01  0.4679413484D+00
      0.3163926960D+01  0.3623119853D+00
 Atom C10      Shell    30 SP   3    bf   85 -    88          3.021909473881          5.188904728751         -0.936048533382
      0.7868272350D+01 -0.1193324198D+00  0.6899906659D-01
      0.1881288540D+01 -0.1608541517D+00  0.3164239610D+00
      0.5442492580D+00  0.1143456438D+01  0.7443082909D+00
 Atom C10      Shell    31 SP   1    bf   89 -    92          3.021909473881          5.188904728751         -0.936048533382
      0.1687144782D+00  0.1000000000D+01  0.1000000000D+01
 Atom C10      Shell    32 D   1     bf   93 -    98          3.021909473881          5.188904728751         -0.936048533382
      0.8000000000D+00  0.1000000000D+01
 Atom H11      Shell    33 S   3     bf   99 -    99          2.015758204784          4.288226388371         -2.523328439556
      0.1873113696D+02  0.3349460434D-01
      0.2825394365D+01  0.2347269535D+00
      0.6401216923D+00  0.8137573261D+00
 Atom H11      Shell    34 S   1     bf  100 -   100          2.015758204784          4.288226388371         -2.523328439556
      0.1612777588D+00  0.1000000000D+01
 Atom C12      Shell    35 S   6     bf  101 -   101          9.250262313910         -0.377679304316         -1.483584208193
      0.3047524880D+04  0.1834737132D-02
      0.4573695180D+03  0.1403732281D-01
      0.1039486850D+03  0.6884262226D-01
      0.2921015530D+02  0.2321844432D+00
      0.9286662960D+01  0.4679413484D+00
      0.3163926960D+01  0.3623119853D+00
 Atom C12      Shell    36 SP   3    bf  102 -   105          9.250262313910         -0.377679304316         -1.483584208193
      0.7868272350D+01 -0.1193324198D+00  0.6899906659D-01
      0.1881288540D+01 -0.1608541517D+00  0.3164239610D+00
      0.5442492580D+00  0.1143456438D+01  0.7443082909D+00
 Atom C12      Shell    37 SP   1    bf  106 -   109          9.250262313910         -0.377679304316         -1.483584208193
      0.1687144782D+00  0.1000000000D+01  0.1000000000D+01
 Atom C12      Shell    38 D   1     bf  110 -   115          9.250262313910         -0.377679304316         -1.483584208193
      0.8000000000D+00  0.1000000000D+01
 Atom H13      Shell    39 S   3     bf  116 -   116          8.414191706903         -0.937405167773         -3.306061431976
      0.1873113696D+02  0.3349460434D-01
      0.2825394365D+01  0.2347269535D+00
      0.6401216923D+00  0.8137573261D+00
 Atom H13      Shell    40 S   1     bf  117 -   117          8.414191706903         -0.937405167773         -3.306061431976
      0.1612777588D+00  0.1000000000D+01
 Atom C14      Shell    41 S   6     bf  118 -   118          7.393683791532          4.058782115207         -2.853839064656
      0.3047524880D+04  0.1834737132D-02
      0.4573695180D+03  0.1403732281D-01
      0.1039486850D+03  0.6884262226D-01
      0.2921015530D+02  0.2321844432D+00
      0.9286662960D+01  0.4679413484D+00
      0.3163926960D+01  0.3623119853D+00
 Atom C14      Shell    42 SP   3    bf  119 -   122          7.393683791532          4.058782115207         -2.853839064656
      0.7868272350D+01 -0.1193324198D+00  0.6899906659D-01
      0.1881288540D+01 -0.1608541517D+00  0.3164239610D+00
      0.5442492580D+00  0.1143456438D+01  0.7443082909D+00
 Atom C14      Shell    43 SP   1    bf  123 -   126          7.393683791532          4.058782115207         -2.853839064656
      0.1687144782D+00  0.1000000000D+01  0.1000000000D+01
 Atom C14      Shell    44 D   1     bf  127 -   132          7.393683791532          4.058782115207         -2.853839064656
      0.8000000000D+00  0.1000000000D+01
 Atom H15      Shell    45 S   3     bf  133 -   133          6.587016378290          3.035807408033         -4.472498950411
      0.1873113696D+02  0.3349460434D-01
      0.2825394365D+01  0.2347269535D+00
      0.6401216923D+00  0.8137573261D+00
 Atom H15      Shell    46 S   1     bf  134 -   134          6.587016378290          3.035807408033         -4.472498950411
      0.1612777588D+00  0.1000000000D+01
 Atom H16      Shell    47 S   3     bf  135 -   135          9.134102265816          4.948560326280         -3.530050878377
      0.1873113696D+02  0.3349460434D-01
      0.2825394365D+01  0.2347269535D+00
      0.6401216923D+00  0.8137573261D+00
 Atom H16      Shell    48 S   1     bf  136 -   136          9.134102265816          4.948560326280         -3.530050878377
      0.1612777588D+00  0.1000000000D+01
 Atom C17      Shell    49 S   6     bf  137 -   137          1.241156892887          7.353359605884          0.030512066162
      0.3047524880D+04  0.1834737132D-02
      0.4573695180D+03  0.1403732281D-01
      0.1039486850D+03  0.6884262226D-01
      0.2921015530D+02  0.2321844432D+00
      0.9286662960D+01  0.4679413484D+00
      0.3163926960D+01  0.3623119853D+00
 Atom C17      Shell    50 SP   3    bf  138 -   141          1.241156892887          7.353359605884          0.030512066162
      0.7868272350D+01 -0.1193324198D+00  0.6899906659D-01
      0.1881288540D+01 -0.1608541517D+00  0.3164239610D+00
      0.5442492580D+00  0.1143456438D+01  0.7443082909D+00
 Atom C17      Shell    51 SP   1    bf  142 -   145          1.241156892887          7.353359605884          0.030512066162
      0.1687144782D+00  0.1000000000D+01  0.1000000000D+01
 Atom C17      Shell    52 D   1     bf  146 -   151          1.241156892887          7.353359605884          0.030512066162
      0.8000000000D+00  0.1000000000D+01
 Atom C18      Shell    53 S   6     bf  152 -   152          5.903707414619         -1.172678546859          1.792525499213
      0.3047524880D+04  0.1834737132D-02
      0.4573695180D+03  0.1403732281D-01
      0.1039486850D+03  0.6884262226D-01
      0.2921015530D+02  0.2321844432D+00
      0.9286662960D+01  0.4679413484D+00
      0.3163926960D+01  0.3623119853D+00
 Atom C18      Shell    54 SP   3    bf  153 -   156          5.903707414619         -1.172678546859          1.792525499213
      0.7868272350D+01 -0.1193324198D+00  0.6899906659D-01
      0.1881288540D+01 -0.1608541517D+00  0.3164239610D+00
      0.5442492580D+00  0.1143456438D+01  0.7443082909D+00
 Atom C18      Shell    55 SP   1    bf  157 -   160          5.903707414619         -1.172678546859          1.792525499213
      0.1687144782D+00  0.1000000000D+01  0.1000000000D+01
 Atom C18      Shell    56 D   1     bf  161 -   166          5.903707414619         -1.172678546859          1.792525499213
      0.8000000000D+00  0.1000000000D+01
 Atom H19      Shell    57 S   3     bf  167 -   167          4.348264707263         -2.531618649204          1.856670703219
      0.1873113696D+02  0.3349460434D-01
      0.2825394365D+01  0.2347269535D+00
      0.6401216923D+00  0.8137573261D+00
 Atom H19      Shell    58 S   1     bf  168 -   168          4.348264707263         -2.531618649204          1.856670703219
      0.1612777588D+00  0.1000000000D+01
 Atom H20      Shell    59 S   3     bf  169 -   169          6.266509623186         -0.567948420910          3.743117216401
      0.1873113696D+02  0.3349460434D-01
      0.2825394365D+01  0.2347269535D+00
      0.6401216923D+00  0.8137573261D+00
 Atom H20      Shell    60 S   1     bf  170 -   170          6.266509623186         -0.567948420910          3.743117216401
      0.1612777588D+00  0.1000000000D+01
 Atom C21      Shell    61 S   6     bf  171 -   171          5.558226624758          6.162268625833         -2.015554832458
      0.3047524880D+04  0.1834737132D-02
      0.4573695180D+03  0.1403732281D-01
      0.1039486850D+03  0.6884262226D-01
      0.2921015530D+02  0.2321844432D+00
      0.9286662960D+01  0.4679413484D+00
      0.3163926960D+01  0.3623119853D+00
 Atom C21      Shell    62 SP   3    bf  172 -   175          5.558226624758          6.162268625833         -2.015554832458
      0.7868272350D+01 -0.1193324198D+00  0.6899906659D-01
      0.1881288540D+01 -0.1608541517D+00  0.3164239610D+00
      0.5442492580D+00  0.1143456438D+01  0.7443082909D+00
 Atom C21      Shell    63 SP   1    bf  176 -   179          5.558226624758          6.162268625833         -2.015554832458
      0.1687144782D+00  0.1000000000D+01  0.1000000000D+01
 Atom C21      Shell    64 D   1     bf  180 -   185          5.558226624758          6.162268625833         -2.015554832458
      0.8000000000D+00  0.1000000000D+01
 Atom H22      Shell    65 S   3     bf  186 -   186          6.514834376911          7.337461150955         -0.606638995008
      0.1873113696D+02  0.3349460434D-01
      0.2825394365D+01  0.2347269535D+00
      0.6401216923D+00  0.8137573261D+00
 Atom H22      Shell    66 S   1     bf  187 -   187          6.514834376911          7.337461150955         -0.606638995008
      0.1612777588D+00  0.1000000000D+01
 Atom H23      Shell    67 S   3     bf  188 -   188          5.195015838503          7.400910595593         -3.635712817501
      0.1873113696D+02  0.3349460434D-01
      0.2825394365D+01  0.2347269535D+00
      0.6401216923D+00  0.8137573261D+00
 Atom H23      Shell    68 S   1     bf  189 -   189          5.195015838503          7.400910595593         -3.635712817501
      0.1612777588D+00  0.1000000000D+01
 Atom C24      Shell    69 S   6     bf  190 -   190          8.323673220425         -2.299570031072          0.571913009645
      0.3047524880D+04  0.1834737132D-02
      0.4573695180D+03  0.1403732281D-01
      0.1039486850D+03  0.6884262226D-01
      0.2921015530D+02  0.2321844432D+00
      0.9286662960D+01  0.4679413484D+00
      0.3163926960D+01  0.3623119853D+00
 Atom C24      Shell    70 SP   3    bf  191 -   194          8.323673220425         -2.299570031072          0.571913009645
      0.7868272350D+01 -0.1193324198D+00  0.6899906659D-01
      0.1881288540D+01 -0.1608541517D+00  0.3164239610D+00
      0.5442492580D+00  0.1143456438D+01  0.7443082909D+00
 Atom C24      Shell    71 SP   1    bf  195 -   198          8.323673220425         -2.299570031072          0.571913009645
      0.1687144782D+00  0.1000000000D+01  0.1000000000D+01
 Atom C24      Shell    72 D   1     bf  199 -   204          8.323673220425         -2.299570031072          0.571913009645
      0.8000000000D+00  0.1000000000D+01
 Atom H25      Shell    73 S   3     bf  205 -   205          9.800855130967         -2.599233333697          1.994494817364
      0.1873113696D+02  0.3349460434D-01
      0.2825394365D+01  0.2347269535D+00
      0.6401216923D+00  0.8137573261D+00
 Atom H25      Shell    74 S   1     bf  206 -   206          9.800855130967         -2.599233333697          1.994494817364
      0.1612777588D+00  0.1000000000D+01
 Atom H26      Shell    75 S   3     bf  207 -   207          7.939379421110         -4.149127994099         -0.267424064572
      0.1873113696D+02  0.3349460434D-01
      0.2825394365D+01  0.2347269535D+00
      0.6401216923D+00  0.8137573261D+00
 Atom H26      Shell    76 S   1     bf  208 -   208          7.939379421110         -4.149127994099         -0.267424064572
      0.1612777588D+00  0.1000000000D+01
 Atom C27      Shell    77 S   6     bf  209 -   209          0.853364738068          1.882136917147          1.791365018395
      0.3047524880D+04  0.1834737132D-02
      0.4573695180D+03  0.1403732281D-01
      0.1039486850D+03  0.6884262226D-01
      0.2921015530D+02  0.2321844432D+00
      0.9286662960D+01  0.4679413484D+00
      0.3163926960D+01  0.3623119853D+00
 Atom C27      Shell    78 SP   3    bf  210 -   213          0.853364738068          1.882136917147          1.791365018395
      0.7868272350D+01 -0.1193324198D+00  0.6899906659D-01
      0.1881288540D+01 -0.1608541517D+00  0.3164239610D+00
      0.5442492580D+00  0.1143456438D+01  0.7443082909D+00
 Atom C27      Shell    79 SP   1    bf  214 -   217          0.853364738068          1.882136917147          1.791365018395
      0.1687144782D+00  0.1000000000D+01  0.1000000000D+01
 Atom C27      Shell    80 D   1     bf  218 -   223          0.853364738068          1.882136917147          1.791365018395
      0.8000000000D+00  0.1000000000D+01
 Atom H28      Shell    81 S   3     bf  224 -   224          1.110730395147          0.800172670188          3.538718145080
      0.1873113696D+02  0.3349460434D-01
      0.2825394365D+01  0.2347269535D+00
      0.6401216923D+00  0.8137573261D+00
 Atom H28      Shell    82 S   1     bf  225 -   225          1.110730395147          0.800172670188          3.538718145080
      0.1612777588D+00  0.1000000000D+01
 Atom C29      Shell    83 S   6     bf  226 -   226         12.159477365144         -0.428075465691         -1.839826742717
      0.3047524880D+04  0.1834737132D-02
      0.4573695180D+03  0.1403732281D-01
      0.1039486850D+03  0.6884262226D-01
      0.2921015530D+02  0.2321844432D+00
      0.9286662960D+01  0.4679413484D+00
      0.3163926960D+01  0.3623119853D+00
 Atom C29      Shell    84 SP   3    bf  227 -   230         12.159477365144         -0.428075465691         -1.839826742717
      0.7868272350D+01 -0.1193324198D+00  0.6899906659D-01
      0.1881288540D+01 -0.1608541517D+00  0.3164239610D+00
      0.5442492580D+00  0.1143456438D+01  0.7443082909D+00
 Atom C29      Shell    85 SP   1    bf  231 -   234         12.159477365144         -0.428075465691         -1.839826742717
      0.1687144782D+00  0.1000000000D+01  0.1000000000D+01
 Atom C29      Shell    86 D   1     bf  235 -   240         12.159477365144         -0.428075465691         -1.839826742717
      0.8000000000D+00  0.1000000000D+01
 Atom H30      Shell    87 S   3     bf  241 -   241         13.031162468947          0.000000000000          0.000000000000
      0.1873113696D+02  0.3349460434D-01
      0.2825394365D+01  0.2347269535D+00
      0.6401216923D+00  0.8137573261D+00
 Atom H30      Shell    88 S   1     bf  242 -   242         13.031162468947          0.000000000000          0.000000000000
      0.1612777588D+00  0.1000000000D+01
 Atom C31      Shell    89 S   6     bf  243 -   243          9.339731416568          3.422026989456          1.494661707195
      0.3047524880D+04  0.1834737132D-02
      0.4573695180D+03  0.1403732281D-01
      0.1039486850D+03  0.6884262226D-01
      0.2921015530D+02  0.2321844432D+00
      0.9286662960D+01  0.4679413484D+00
      0.3163926960D+01  0.3623119853D+00
 Atom C31      Shell    90 SP   3    bf  244 -   247          9.339731416568          3.422026989456          1.494661707195
      0.7868272350D+01 -0.1193324198D+00  0.6899906659D-01
      0.1881288540D+01 -0.1608541517D+00  0.3164239610D+00
      0.5442492580D+00  0.1143456438D+01  0.7443082909D+00
 Atom C31      Shell    91 SP   1    bf  248 -   251          9.339731416568          3.422026989456          1.494661707195
      0.1687144782D+00  0.1000000000D+01  0.1000000000D+01
 Atom C31      Shell    92 D   1     bf  252 -   257          9.339731416568          3.422026989456          1.494661707195
      0.8000000000D+00  0.1000000000D+01
 Atom H32      Shell    93 S   3     bf  258 -   258          8.261132526188          4.959734711541          2.354411999942
      0.1873113696D+02  0.3349460434D-01
      0.2825394365D+01  0.2347269535D+00
      0.6401216923D+00  0.8137573261D+00
 Atom H32      Shell    94 S   1     bf  259 -   259          8.261132526188          4.959734711541          2.354411999942
      0.1612777588D+00  0.1000000000D+01
 Atom H33      Shell    95 S   3     bf  260 -   260          9.786621203508          2.077260400025          3.000479053568
      0.1873113696D+02  0.3349460434D-01
      0.2825394365D+01  0.2347269535D+00
      0.6401216923D+00  0.8137573261D+00
 Atom H33      Shell    96 S   1     bf  261 -   261          9.786621203508          2.077260400025          3.000479053568
      0.1612777588D+00  0.1000000000D+01
 Atom H34      Shell    97 S   3     bf  262 -   262         11.130019045403          4.226891112639          0.839472397505
      0.1873113696D+02  0.3349460434D-01
      0.2825394365D+01  0.2347269535D+00
      0.6401216923D+00  0.8137573261D+00
 Atom H34      Shell    98 S   1     bf  263 -   263         11.130019045403          4.226891112639          0.839472397505
      0.1612777588D+00  0.1000000000D+01
 Atom C35      Shell    99 S   6     bf  264 -   264         -1.058331142969          6.235732050502          1.398182457577
      0.3047524880D+04  0.1834737132D-02
      0.4573695180D+03  0.1403732281D-01
      0.1039486850D+03  0.6884262226D-01
      0.2921015530D+02  0.2321844432D+00
      0.9286662960D+01  0.4679413484D+00
      0.3163926960D+01  0.3623119853D+00
 Atom C35      Shell   100 SP   3    bf  265 -   268         -1.058331142969          6.235732050502          1.398182457577
      0.7868272350D+01 -0.1193324198D+00  0.6899906659D-01
      0.1881288540D+01 -0.1608541517D+00  0.3164239610D+00
      0.5442492580D+00  0.1143456438D+01  0.7443082909D+00
 Atom C35      Shell   101 SP   1    bf  269 -   272         -1.058331142969          6.235732050502          1.398182457577
      0.1687144782D+00  0.1000000000D+01  0.1000000000D+01
 Atom C35      Shell   102 D   1     bf  273 -   278         -1.058331142969          6.235732050502          1.398182457577
      0.8000000000D+00  0.1000000000D+01
 Atom C36      Shell   103 S   6     bf  279 -   279          0.279106483806          8.891804094393         -2.293203524833
      0.3047524880D+04  0.1834737132D-02
      0.4573695180D+03  0.1403732281D-01
      0.1039486850D+03  0.6884262226D-01
      0.2921015530D+02  0.2321844432D+00
      0.9286662960D+01  0.4679413484D+00
      0.3163926960D+01  0.3623119853D+00
 Atom C36      Shell   104 SP   3    bf  280 -   283          0.279106483806          8.891804094393         -2.293203524833
      0.7868272350D+01 -0.1193324198D+00  0.6899906659D-01
      0.1881288540D+01 -0.1608541517D+00  0.3164239610D+00
      0.5442492580D+00  0.1143456438D+01  0.7443082909D+00
 Atom C36      Shell   105 SP   1    bf  284 -   287          0.279106483806          8.891804094393         -2.293203524833
      0.1687144782D+00  0.1000000000D+01  0.1000000000D+01
 Atom C36      Shell   106 D   1     bf  288 -   293          0.279106483806          8.891804094393         -2.293203524833
      0.8000000000D+00  0.1000000000D+01
 Atom H37      Shell   107 S   3     bf  294 -   294         -0.386255448425          7.549194287192         -3.731034723247
      0.1873113696D+02  0.3349460434D-01
      0.2825394365D+01  0.2347269535D+00
      0.6401216923D+00  0.8137573261D+00
 Atom H37      Shell   108 S   1     bf  295 -   295         -0.386255448425          7.549194287192         -3.731034723247
      0.1612777588D+00  0.1000000000D+01
 Atom H38      Shell   109 S   3     bf  296 -   296          1.865675947440          9.916088079420         -3.140248584076
      0.1873113696D+02  0.3349460434D-01
      0.2825394365D+01  0.2347269535D+00
      0.6401216923D+00  0.8137573261D+00
 Atom H38      Shell   110 S   1     bf  297 -   297          1.865675947440          9.916088079420         -3.140248584076
      0.1612777588D+00  0.1000000000D+01
 Atom C39      Shell   111 S   6     bf  298 -   298         -1.180719293759          3.821814842307          2.173712173026
      0.3047524880D+04  0.1834737132D-02
      0.4573695180D+03  0.1403732281D-01
      0.1039486850D+03  0.6884262226D-01
      0.2921015530D+02  0.2321844432D+00
      0.9286662960D+01  0.4679413484D+00
      0.3163926960D+01  0.3623119853D+00
 Atom C39      Shell   112 SP   3    bf  299 -   302         -1.180719293759          3.821814842307          2.173712173026
      0.7868272350D+01 -0.1193324198D+00  0.6899906659D-01
      0.1881288540D+01 -0.1608541517D+00  0.3164239610D+00
      0.5442492580D+00  0.1143456438D+01  0.7443082909D+00
 Atom C39      Shell   113 SP   1    bf  303 -   306         -1.180719293759          3.821814842307          2.173712173026
      0.1687144782D+00  0.1000000000D+01  0.1000000000D+01
 Atom C39      Shell   114 D   1     bf  307 -   312         -1.180719293759          3.821814842307          2.173712173026
      0.8000000000D+00  0.1000000000D+01
 Atom H40      Shell   115 S   3     bf  313 -   313         -2.894358704679          3.148413259217          3.095639841264
[...]
 1599 Fit      -0.001967
 1600 Fit      -0.002329
 1601 Fit      -0.000627
 1602 Fit       0.001829
 1603 Fit       0.002729
 1604 Fit      -0.001395
 1605 Fit       0.000973
 1606 Fit       0.002718
 1607 Fit      -0.001932
 1608 Fit       0.000230
 1609 Fit       0.001546
 1610 Fit       0.001321
 1611 Fit      -0.001193
 1612 Fit       0.002655
 1613 Fit       0.001451
 1614 Fit      -0.000402
 1615 Fit       0.000199
 1616 Fit       0.001537
 1617 Fit       0.002140
 1618 Fit       0.000499
 1619 Fit      -0.001292
 1620 Fit      -0.000210
 1621 Fit       0.000878
 1622 Fit      -0.001552
 1623 Fit      -0.001867
 1624 Fit      -0.001341
 1625 Fit       0.000062
 1626 Fit       0.001385
 1627 Fit       0.002329
 1628 Fit       0.001517
 1629 Fit       0.000124
 1630 Fit      -0.001556
 1631 Fit      -0.001174
 1632 Fit      -0.000763
 1633 Fit       0.000768
 1634 Fit       0.001993
 1635 Fit       0.001586
 1636 Fit      -0.000042
 1637 Fit       0.000994
 1638 Fit      -0.014116
 1639 Fit      -0.018300
 1640 Fit      -0.017110
 1641 Fit      -0.011805
 1642 Fit      -0.019329
 1643 Fit      -0.023289
 1644 Fit      -0.023497
 1645 Fit      -0.008733
 1646 Fit      -0.016251
 1647 Fit      -0.021693
 1648 Fit      -0.024515
 1649 Fit      -0.024368
 1650 Fit      -0.011041
 1651 Fit      -0.017991
 1652 Fit      -0.021726
 1653 Fit      -0.022082
 1654 Fit      -0.009837
 1655 Fit      -0.015200
 1656 Fit      -0.015781
 1657 Fit      -0.005819
 1658 Fit       0.009305
 1659 Fit       0.006005
 1660 Fit      -0.000421
 1661 Fit       0.016600
 1662 Fit       0.012998
 1663 Fit       0.007999
 1664 Fit       0.000983
 1665 Fit       0.007670
 1666 Fit       0.016653
 1667 Fit       0.012691
 1668 Fit       0.006299
 1669 Fit       0.002526
 1670 Fit       0.011620
 1671 Fit      -0.001795
 1672 Fit      -0.003104
 1673 Fit      -0.011617
 1674 Fit      -0.013204
 1675 Fit      -0.008118
 1676 Fit      -0.016468
 1677 Fit      -0.020135
 1678 Fit      -0.018178
 1679 Fit      -0.008599
 1680 Fit      -0.016569
 1681 Fit      -0.021896
 1682 Fit      -0.023721
 1683 Fit      -0.021343
 1684 Fit      -0.014479
 1685 Fit       0.000759
 1686 Fit      -0.006042
 1687 Fit      -0.013657
 1688 Fit      -0.020138
 1689 Fit      -0.024022
 1690 Fit      -0.024103
 1691 Fit      -0.019510
 1692 Fit      -0.011046
 1693 Fit      -0.017693
 1694 Fit      -0.022098
 1695 Fit      -0.022778
 1696 Fit      -0.018454
 1697 Fit      -0.015974
 1698 Fit      -0.017604
 1699 Fit       0.015124
 1700 Fit       0.020872
 1701 Fit       0.015030
 1702 Fit       0.006953
 1703 Fit       0.025454
 1704 Fit       0.022047
 1705 Fit       0.017371
 1706 Fit       0.010511
 1707 Fit       0.001322
 1708 Fit       0.022089
 1709 Fit       0.018232
 1710 Fit       0.013122
 1711 Fit       0.005858
 1712 Fit       0.012239
 1713 Fit       0.006340
 1714 Fit      -0.014178
 1715 Fit      -0.010118
 1716 Fit      -0.006717
 1717 Fit       0.002564
 1718 Fit      -0.001686
 1719 Fit       0.005205
 1720 Fit       0.005106
 1721 Fit       0.007453
 1722 Fit       0.016905
 1723 Fit       0.005925
 1724 Fit       0.008858
 1725 Fit       0.007432
 1726 Fit      -0.004198
 1727 Fit      -0.000615
 1728 Fit      -0.001495
 1729 Fit      -0.001277
 1730 Fit       0.001566
 1731 Fit       0.000512
 1732 Fit       0.001670
 1733 Fit       0.000102
 1734 Fit       0.001176
 1735 Fit       0.002689
 1736 Fit       0.005825
 1737 Fit       0.004889
 1738 Fit       0.002713
 1739 Fit       0.001961
 1740 Fit       0.000935
 1741 Fit       0.001350
 1742 Fit       0.003155
 1743 Fit       0.003767
 1744 Fit       0.002805
 1745 Fit       0.001927
 1746 Fit       0.002311
 1747 Fit       0.005262
 1748 Fit       0.004457
 1749 Fit       0.004407
 1750 Fit       0.002224
 1751 Fit       0.003365
 1752 Fit       0.001717
 1753 Fit      -0.005118
 1754 Fit      -0.004885
 1755 Fit      -0.003509
 1756 Fit      -0.005893
 1757 Fit      -0.005472
 1758 Fit      -0.007934
 1759 Fit      -0.006246
 1760 Fit      -0.019849
 1761 Fit      -0.011342
 1762 Fit      -0.007421
 1763 Fit      -0.006116
 1764 Fit      -0.015469
 1765 Fit      -0.008834
 1766 Fit      -0.019295
 1767 Fit      -0.009655
 1768 Fit       0.001421
 1769 Fit       0.001930
 1770 Fit       0.002879
 1771 Fit       0.002970
 1772 Fit       0.001106
 1773 Fit      -0.001022
 1774 Fit      -0.000156
 1775 Fit      -0.002330
 1776 Fit       0.000472
 1777 Fit       0.004694
 1778 Fit       0.006044
 1779 Fit       0.004622
 1780 Fit       0.004882
 1781 Fit       0.006711
 1782 Fit       0.004936
 1783 Fit       0.005797
 1784 Fit       0.005717
 1785 Fit       0.008376
 1786 Fit       0.004670
 1787 Fit       0.006633
 1788 Fit       0.003610
 1789 Fit       0.005763
 1790 Fit       0.006948
 1791 Fit       0.006307
 1792 Fit       0.004967
 1793 Fit       0.005101
 1794 Fit      -0.004380
 1795 Fit      -0.004484
 1796 Fit      -0.002851
 1797 Fit       0.000787
 1798 Fit       0.001875
 1799 Fit      -0.001935
 1800 Fit       0.000142
 1801 Fit       0.002161
 1802 Fit      -0.002851
 1803 Fit      -0.000563
 1804 Fit       0.001086
 1805 Fit      -0.001752
 1806 Fit       0.000223
 1807 Fit       0.000968
 1808 Fit      -0.004246
 1809 Fit      -0.005344
 1810 Fit      -0.003203
 1811 Fit      -0.002016
 1812 Fit      -0.009189
 1813 Fit      -0.004735
 1814 Fit      -0.002509
 1815 Fit      -0.001613
 1816 Fit      -0.007471
 1817 Fit      -0.004075
 1818 Fit      -0.002352
 1819 Fit      -0.002915
 1820 Fit       0.002979
 1821 Fit       0.002527
 1822 Fit       0.003157
 1823 Fit       0.003562
 1824 Fit       0.001853
 1825 Fit       0.001700
 1826 Fit       0.000519
 1827 Fit       0.001106
 1828 Fit      -0.000158
 1829 Fit      -0.003391
 1830 Fit      -0.003649
 1831 Fit      -0.002700
 1832 Fit      -0.012729
 1833 Fit      -0.011783
 1834 Fit       0.002016
 1835 Fit       0.002336
 1836 Fit       0.001886
 1837 Fit       0.001365
 1838 Fit       0.000653
 1839 Fit       0.001054
 1840 Fit       0.001189
 1841 Fit       0.003246
 1842 Fit       0.000234
 1843 Fit       0.001378
 1844 Fit       0.000309
 1845 Fit       0.000392
 1846 Fit       0.000854
 1847 Fit       0.002429
 1848 Fit       0.003061
 1849 Fit       0.003157
 1850 Fit       0.006278
 1851 Fit       0.003731
 1852 Fit       0.006675
 1853 Fit       0.005448
 1854 Fit       0.002454
 1855 Fit       0.002012
 1856 Fit       0.001264
 1857 Fit       0.003115
 1858 Fit       0.002879
 1859 Fit       0.001400
 1860 Fit       0.002652
 1861 Fit       0.000684
 1862 Fit       0.001146
 1863 Fit       0.001597
 1864 Fit       0.002456
 1865 Fit       0.002825
 1866 Fit       0.002879
 1867 Fit       0.003313
 1868 Fit       0.004203
 1869 Fit       0.004275
 1870 Fit       0.002233
 1871 Fit       0.006410
 1872 Fit       0.006261
 1873 Fit       0.006073
 1874 Fit       0.014370
 1875 Fit       0.007963
 1876 Fit       0.010211
 1877 Fit       0.011577
 1878 Fit       0.006336
 1879 Fit       0.006085
 1880 Fit       0.006734
 1881 Fit       0.008058
 1882 Fit       0.007525
 1883 Fit       0.006486
 1884 Fit       0.009513
 1885 Fit       0.009211
 1886 Fit       0.008456
 1887 Fit       0.008794
 1888 Fit       0.008113
 1889 Fit       0.007315
 1890 Fit       0.007929
 1891 Fit       0.007352
 1892 Fit       0.006612
 1893 Fit       0.006366
 1894 Fit      -0.000150
 1895 Fit       0.000944
 1896 Fit      -0.001185
 1897 Fit      -0.000586
 1898 Fit       0.001371
 1899 Fit       0.002054
 1900 Fit       0.001310
 1901 Fit       0.001909
 1902 Fit       0.003119
 1903 Fit       0.002030
 1904 Fit       0.003445
 1905 Fit       0.001290
 1906 Fit      -0.000981
 1907 Fit       0.004086
 1908 Fit       0.001854
 1909 Fit      -0.001788
 1910 Fit      -0.007827
 1911 Fit       0.002591
 1912 Fit       0.000212
 1913 Fit      -0.005271
 1914 Fit       0.000676
 1915 Fit       0.005432
 1916 Fit       0.005231
 1917 Fit       0.005105
 1918 Fit       0.005736
 1919 Fit       0.005254
 1920 Fit       0.005336
 1921 Fit       0.006599
 1922 Fit       0.008682
 1923 Fit       0.009227
 1924 Fit       0.005732
 1925 Fit       0.007040
 1926 Fit       0.007153
 1927 Fit       0.007501
 1928 Fit       0.008015
 1929 Fit       0.008278
 1930 Fit       0.008567
 1931 Fit       0.009514
 1932 Fit       0.008577
 1933 Fit       0.009509
 1934 Fit       0.006698
 1935 Fit       0.007364
 1936 Fit       0.010514
 1937 Fit       0.008110
 1938 Fit       0.011935
 1939 Fit       0.016613
 1940 Fit       0.009974
 1941 Fit       0.014924
 1942 Fit       0.023001
 1943 Fit       0.005357
 1944 Fit       0.006270
 1945 Fit       0.005475
 1946 Fit       0.003881
 1947 Fit       0.004180
 1948 Fit       0.006472
 1949 Fit       0.006685
 1950 Fit       0.005587
 1951 Fit       0.003279
 1952 Fit       0.002296
 1953 Fit      -0.000152
 1954 Fit       0.002309
 1955 Fit       0.003570
 1956 Fit      -0.001497
 1957 Fit       0.001105
 1958 Fit       0.003997
 1959 Fit      -0.005594
 1960 Fit      -0.000137
 1961 Fit       0.003562
 1962 Fit      -0.012456
 1963 Fit      -0.002713
 1964 Fit       0.001611
 1965 Fit       0.000748
 1966 Fit       0.006358
 1967 Fit       0.006691
 1968 Fit       0.010354
 1969 Fit       0.009777
 1970 Fit       0.005523
 1971 Fit       0.002618
 1972 Fit       0.015339
 1973 Fit       0.016728
 1974 Fit       0.013948
 1975 Fit       0.022593
 1976 Fit       0.008745
 1977 Fit       0.007066
 1978 Fit       0.005718
 1979 Fit       0.003082
 1980 Fit       0.007324
 1981 Fit       0.014573
 1982 Fit       0.018826
 1983 Fit       0.010697
 1984 Fit       0.011615
 1985 Fit       0.013868
 1986 Fit       0.009820
 1987 Fit       0.008669
 1988 Fit       0.008177
 1989 Fit       0.007716
 1990 Fit       0.004407
 1991 Fit       0.001699
 1992 Fit      -0.004264
 1993 Fit       0.006608
 1994 Fit       0.005048
 1995 Fit       0.002953
 1996 Fit      -0.000616
 1997 Fit      -0.004240
 1998 Fit      -0.002918
 1999 Fit       0.003383
 2000 Fit       0.006114
 2001 Fit       0.005122
 2002 Fit       0.003035
 2003 Fit       0.001860
 2004 Fit       0.004485
 2005 Fit       0.004723
 2006 Fit       0.000478
 2007 Fit      -0.000185
 2008 Fit      -0.000788
 2009 Fit      -0.002095
 2010 Fit      -0.002634
 2011 Fit      -0.002273
 2012 Fit      -0.002707
 2013 Fit      -0.003042
 2014 Fit      -0.000270
 2015 Fit      -0.000830
 2016 Fit      -0.000584
 2017 Fit       0.000415
 2018 Fit       0.000925
 2019 Fit       0.000515
 2020 Fit       0.000911
 2021 Fit       0.000885
 2022 Fit      -0.010909
 2023 Fit      -0.008468
 2024 Fit      -0.000451
 2025 Fit      -0.005486
 2026 Fit       0.000987
 2027 Fit       0.006123
 2028 Fit      -0.011825
 2029 Fit      -0.004009
 2030 Fit       0.002195
 2031 Fit       0.007688
 2032 Fit      -0.001909
 2033 Fit      -0.001096
 2034 Fit       0.004402
 2035 Fit       0.004465
 2036 Fit       0.000705
 2037 Fit       0.000203
 2038 Fit       0.000934
 2039 Fit       0.000165
 2040 Fit      -0.000723
 2041 Fit      -0.000184
 2042 Fit       0.001122
 2043 Fit      -0.001068
 2044 Fit      -0.001087
 2045 Fit      -0.000401
 2046 Fit      -0.000682
 2047 Fit       0.000038
 2048 Fit       0.000371
 2049 Fit       0.001236
 2050 Fit       0.001898
 2051 Fit       0.001670
 2052 Fit      -0.000328
 2053 Fit      -0.000006
 2054 Fit       0.000985
 2055 Fit       0.001693
 2056 Fit       0.001474
 2057 Fit       0.000447
 2058 Fit       0.000977
 2059 Fit       0.000712
 2060 Fit       0.000514
 2061 Fit       0.002503
 2062 Fit       0.001521
 2063 Fit       0.000391
 2064 Fit       0.003277
 2065 Fit       0.001749
 2066 Fit       0.000370
 2067 Fit       0.001986
 2068 Fit       0.000753
 2069 Fit       0.000055
 2070 Fit       0.001977
 2071 Fit       0.002459
 2072 Fit       0.004580
 2073 Fit       0.001337
 2074 Fit       0.003455
 2075 Fit       0.000771
 2076 Fit       0.001319
 2077 Fit       0.000087
 2078 Fit       0.002344
 2079 Fit       0.003513
 2080 Fit       0.000761
 2081 Fit      -0.000053
 2082 Fit       0.001253
 2083 Fit       0.001781
 2084 Fit       0.001615
 2085 Fit       0.000641
 2086 Fit       0.001613
 2087 Fit       0.001188
 2088 Fit       0.000349
 2089 Fit      -0.003614
 2090 Fit      -0.002971
 2091 Fit      -0.002069
 2092 Fit      -0.002312
 2093 Fit      -0.002007
 2094 Fit      -0.001588
 2095 Fit      -0.000284
 2096 Fit      -0.000345
 2097 Fit      -0.000152
 2098 Fit       0.000150
 2099 Fit       0.001015
 2100 Fit       0.000950
 2101 Fit       0.000867
 2102 Fit       0.001352
 2103 Fit       0.001559
 2104 Fit       0.000779
 2105 Fit       0.001130
 2106 Fit       0.000273
 2107 Fit       0.000400
 2108 Fit       0.000723
 2109 Fit      -0.000967
 2110 Fit      -0.000681
 2111 Fit      -0.000349
 2112 Fit      -0.000157
 2113 Fit      -0.002835
 2114 Fit      -0.002189
 2115 Fit      -0.001644
 2116 Fit      -0.000144
 2117 Fit      -0.000357
 2118 Fit      -0.000581
 2119 Fit       0.000081
 2120 Fit       0.000223
 2121 Fit       0.000089
 2122 Fit      -0.000616
 2123 Fit       0.000262
 2124 Fit       0.000511
 2125 Fit       0.000381
 2126 Fit       0.000443
 2127 Fit      -0.000402
 2128 Fit       0.000170
 2129 Fit       0.000128
 2130 Fit      -0.000473
 2131 Fit      -0.000164
 2132 Fit      -0.000724
 2133 Fit      -0.002366
 2134 Fit      -0.002030
 2135 Fit      -0.001381
 2136 Fit      -0.002234
 2137 Fit      -0.002211
 2138 Fit      -0.000226
 2139 Fit      -0.002114
 2140 Fit      -0.001958
 2141 Fit      -0.001771
 2142 Fit      -0.001345
 2143 Fit      -0.001852
 2144 Fit      -0.000564
 2145 Fit       0.000000
 2146 Fit      -0.000838
 2147 Fit       0.000730
 2148 Fit       0.001557
 2149 Fit      -0.001207
 2150 Fit       0.000480
 2151 Fit       0.001649
 2152 Fit       0.000334
 2153 Fit       0.001720
 2154 Fit      -0.001914
 2155 Fit      -0.000375
 2156 Fit      -0.001520
 2157 Fit      -0.001116
 2158 Fit      -0.000219
 2159 Fit       0.000730
 2160 Fit      -0.000451
 2161 Fit      -0.000750
 2162 Fit       0.000469
 2163 Fit       0.001056
 2164 Fit       0.001335
 2165 Fit      -0.000061
 2166 Fit       0.000024
 2167 Fit       0.001113
 2168 Fit       0.001693
 2169 Fit       0.000961
 2170 Fit      -0.000317
 2171 Fit      -0.001767
 2172 Fit      -0.000504
 2173 Fit       0.000653
 2174 Fit       0.000708
 2175 Fit      -0.000485
 2176 Fit      -0.000169
 2177 Fit       0.000645
 2178 Fit       0.001308
 2179 Fit       0.001254
 2180 Fit       0.000460
 2181 Fit      -0.000844
 2182 Fit       0.001073
 2183 Fit       0.000207
 2184 Fit      -0.000974
 2185 Fit      -0.000356
 2186 Fit      -0.001957
 2187 Fit      -0.001723
 2188 Fit      -0.001969
 2189 Fit      -0.002048
 2190 Fit       0.000107
 2191 Fit      -0.000785
 2192 Fit      -0.001281
 2193 Fit      -0.001991
 2194 Fit      -0.002330
 2195 Fit      -0.002017
 2196 Fit      -0.001302
 2197 Fit      -0.001547
 2198 Fit      -0.001747
 2199 Fit      -0.000555
 2200 Fit       0.001442
 2201 Fit       0.001890
 2202 Fit      -0.001109
 2203 Fit       0.000658
 2204 Fit       0.002062
 2205 Fit      -0.001518
 2206 Fit       0.000131
 2207 Fit       0.001521
 2208 Fit       0.002859
 2209 Fit      -0.000364
 2210 Fit       0.000582
 2211 Fit      -0.001278
 2212 Fit       0.001080
 2213 Fit      -0.000335
 2214 Fit       0.000705
 2215 Fit       0.001583
 2216 Fit       0.001788
 2217 Fit       0.000794
 2218 Fit      -0.000428
 2219 Fit      -0.000028
 2220 Fit       0.000896
 2221 Fit       0.001265
 2222 Fit      -0.000161
 2223 Fit      -0.001384
 2224 Fit      -0.000623
 2225 Fit       0.000107
 2226 Fit      -0.001594
 2227 Fit      -0.000232
 2228 Fit      -0.000717
 2229 Fit       0.000294
 2230 Fit       0.001227
 2231 Fit       0.001740
 2232 Fit       0.001226
 2233 Fit       0.000246
 2234 Fit      -0.000904
 2235 Fit      -0.000783
 2236 Fit      -0.000493
 2237 Fit       0.000579
 2238 Fit       0.001405
 2239 Fit       0.001103
 2240 Fit      -0.000007
 2241 Fit       0.000632
 -----------------------------------------------------------------
 Leave Link  602 at Thu May 18 14:14:30 2017, MaxMem=   33554432 cpu:      19.3
 (Enter /scratch/michal/g09/l9999.exe)

 Test job not archived.
 1\1\GINC-RZEPICHA\SP\RHF\6-31G(d)\C27H46O2\MICHAL\18-May-2017\0\\#P HF
 /6-31G* SCF(Conver=6) NoSymm Test Pop=mk IOp(6/33=2) GFInput GFPrint\\
 MEP - Input generated by R.E.D.-III.x MOLECULE\\0,1\O,0,0.,0.,0.\H,0,-
 0.47099792,0.45466836,-0.7111085\O,0,-3.27012822,5.86571169,0.\H,0,-2.
 97027205,6.55170502,0.61291289\C,0,4.18377679,1.13776163,-0.37595753\C
 ,0,2.79709976,0.58149447,0.05259253\H,0,2.35177772,0.16681657,-0.86301
 556\C,0,1.80379819,1.63262619,0.56297581\H,0,2.19751655,2.08068257,1.4
 8683995\C,0,1.59912562,2.74585012,-0.49533555\H,0,1.0666933,2.26923167
 ,-1.3352879\C,0,4.89502799,-0.19985928,-0.78507895\H,0,4.45259848,-0.4
 9605345,-1.74949236\C,0,3.91256895,2.14781499,-1.51018659\H,0,3.485698
 94,1.60648009,-2.36674451\H,0,4.83355874,2.61866534,-1.86802247\C,0,0.
 65679194,3.89123031,0.01614629\C,0,3.12410741,-0.62055476,0.94856364\H
 ,0,2.30100258,-1.33967489,0.98250782\H,0,3.31609407,-0.30054536,1.9807
 7232\C,0,2.94128685,3.26093211,-1.06658568\H,0,3.44750187,3.88281721,-
 0.32101953\H,0,2.74908398,3.91639321,-1.92393636\C,0,4.40469816,-1.216
 88005,0.30264333\H,0,5.18638916,-1.37545504,1.0554412\H,0,4.20133864,-
 2.19562397,-0.14151472\C,0,0.45158117,0.99598396,0.94794954\H,0,0.5877
 7321,0.42343314,1.87260899\C,0,6.43451829,-0.22652778,-0.97359438\H,0,
 6.89579418,0.,0.\C,0,4.942373,1.81085869,0.79094091\H,0,4.37160305,2.6
 2457857,1.24590117\H,0,5.17885689,1.09923886,1.58778513\H,0,5.88975241
 ,2.23677444,0.44422966\C,0,-0.56004472,3.29980728,0.73988629\C,0,0.147
 69679,4.70534007,-1.21351104\H,0,-0.20439758,3.99486156,-1.97437854\H,
 0,0.98727319,5.24736781,-1.66174798\C,0,-0.62480974,2.02241731,1.15027
 894\H,0,-1.53162866,1.66606854,1.63814205\C,0,1.39350466,4.84177455,0.
 9989691\H,0,2.15885389,5.43064267,0.48461858\H,0,0.70469918,5.5491881,
 1.46733948\H,0,1.87637428,4.28124954,1.80508229\C,0,-1.72591949,4.2366
 5745,0.99799676\H,0,-2.56918496,3.68317874,1.42260539\H,0,-1.43762306,
 4.99342424,1.74498549\C,0,-0.99036891,5.69257668,-0.91278324\H,0,-0.64
 076911,6.48976123,-0.2402138\H,0,-1.31554381,6.18286493,-1.83736912\C,
 0,6.8988802,-1.64809062,-1.37789104\H,0,6.42738723,-2.38446145,-0.7173
 6516\H,0,6.52547234,-1.86631152,-2.39040574\C,0,-2.17911079,4.98103032
 ,-0.26722602\H,0,-2.59191818,4.25469771,-0.97818923\C,0,6.94070202,0.8
 1084266,-1.99149915\H,0,6.44485981,0.68162998,-2.9619209\H,0,8.0180214
 6,0.71286784,-2.15495351\H,0,6.76214549,1.83616124,-1.66008642\C,0,8.4
 1740693,-1.88707923,-1.33408294\H,0,8.92474281,-1.22889339,-2.04840368
 \H,0,8.78967469,-1.61016224,-0.33825044\C,0,8.78186364,-3.34927116,-1.
 63953416\H,0,8.36740113,-3.61574456,-2.62269841\H,0,8.27315312,-3.9978
 0361,-0.91169254\C,0,10.28715765,-3.70405362,-1.63610595\H,0,10.343413
 92,-4.7789396,-1.8636191\C,0,10.940812,-3.49953449,-0.25933364\H,0,10.
 98140513,-2.43913016,0.01524686\H,0,11.9696987,-3.87725463,-0.25606703
 \H,0,10.38872607,-4.02770458,0.52704413\C,0,11.07321246,-2.96970604,-2
 .73506937\H,0,11.12014676,-1.8907941,-2.54731623\H,0,12.10470268,-3.33
 652756,-2.78750706\H,0,10.61554967,-3.11830724,-3.72023993\\Version=EM
 64L-G09RevC.01\HF=-1198.9270546\RMSD=4.925e-07\Dipole=0.5905441,0.7818
 108,0.1351694\Quadrupole=-7.8928111,5.6813742,2.211437,6.5018985,-1.05
 40305,3.5127023\PG=C01 [X(C27H46O2)]\\@


 WE TEND TO MEET ANY NEW SITUATION BY REORGANIZING. IT CAN BE A
 WONDERFUL METHOD FOR CREATING THE ILLUSION OF PROGRESS WHILE PRODUCING
 CONFUSION, INEFFICIENCY, AND DEMORALIZATION.
     -- PETRONIUS ARBITER, 210 B.C.
 Job cpu time:  0 days  0 hours 38 minutes 11.1 seconds.
 File lengths (MBytes):  RWF=    151 Int=      0 D2E=      0 Chk=     11 Scr=      1
 Normal termination of Gaussian 09 at Thu May 18 14:14:30 2017.
