 Entering Gaussian System, Link 0=/scratch/michal/g09//g09
 Input=JOB2-gau_m1-25-3.com
 Output=JOB2-gau_m1-25-3.log
 Initial command:
 /scratch/michal/g09/l1.exe /scratch/michal/gauss_scratch/Gau-584.inp -scrdir=/scratch/michal/gauss_scratch/
 Entering Link 1 = /scratch/michal/g09/l1.exe PID=       586.
  
 Copyright (c) 1988,1990,1992,1993,1995,1998,2003,2009,2011,
            Gaussian, Inc.  All Rights Reserved.
  
 This is part of the Gaussian(R) 09 program.  It is based on
 the Gaussian(R) 03 system (copyright 2003, Gaussian, Inc.),
 the Gaussian(R) 98 system (copyright 1998, Gaussian, Inc.),
 the Gaussian(R) 94 system (copyright 1995, Gaussian, Inc.),
 the Gaussian 92(TM) system (copyright 1992, Gaussian, Inc.),
 the Gaussian 90(TM) system (copyright 1990, Gaussian, Inc.),
 the Gaussian 88(TM) system (copyright 1988, Gaussian, Inc.),
 the Gaussian 86(TM) system (copyright 1986, Carnegie Mellon
 University), and the Gaussian 82(TM) system (copyright 1983,
 Carnegie Mellon University). Gaussian is a federally registered
 trademark of Gaussian, Inc.
  
 This software contains proprietary and confidential information,
 including trade secrets, belonging to Gaussian, Inc.
  
 This software is provided under written license and may be
 used, copied, transmitted, or stored only in accord with that
 written license.
  
 The following legend is applicable only to US Government
 contracts under FAR:
  
                    RESTRICTED RIGHTS LEGEND
  
 Use, reproduction and disclosure by the US Government is
 subject to restrictions as set forth in subparagraphs (a)
 and (c) of the Commercial Computer Software - Restricted
 Rights clause in FAR 52.227-19.
  
 Gaussian, Inc.
 340 Quinnipiac St., Bldg. 40, Wallingford CT 06492
  
  
 ---------------------------------------------------------------
 Warning -- This program may not be used in any manner that
 competes with the business of Gaussian, Inc. or will provide
 assistance to any competitor of Gaussian, Inc.  The licensee
 of this program is prohibited from giving any competitor of
 Gaussian, Inc. access to this program.  By using this program,
 the user acknowledges that Gaussian, Inc. is engaged in the
 business of creating and licensing software in the field of
 computational chemistry and represents and warrants to the
 licensee that it is not a competitor of Gaussian, Inc. and that
 it will not use this program in any manner prohibited above.
 ---------------------------------------------------------------
  

 Cite this work as:
 Gaussian 09, Revision C.01,
 M. J. Frisch, G. W. Trucks, H. B. Schlegel, G. E. Scuseria, 
 M. A. Robb, J. R. Cheeseman, G. Scalmani, V. Barone, B. Mennucci, 
 G. A. Petersson, H. Nakatsuji, M. Caricato, X. Li, H. P. Hratchian, 
 A. F. Izmaylov, J. Bloino, G. Zheng, J. L. Sonnenberg, M. Hada, 
 M. Ehara, K. Toyota, R. Fukuda, J. Hasegawa, M. Ishida, T. Nakajima, 
 Y. Honda, O. Kitao, H. Nakai, T. Vreven, J. A. Montgomery, Jr., 
 J. E. Peralta, F. Ogliaro, M. Bearpark, J. J. Heyd, E. Brothers, 
 K. N. Kudin, V. N. Staroverov, T. Keith, R. Kobayashi, J. Normand, 
 K. Raghavachari, A. Rendell, J. C. Burant, S. S. Iyengar, J. Tomasi, 
 M. Cossi, N. Rega, J. M. Millam, M. Klene, J. E. Knox, J. B. Cross, 
 V. Bakken, C. Adamo, J. Jaramillo, R. Gomperts, R. E. Stratmann, 
 O. Yazyev, A. J. Austin, R. Cammi, C. Pomelli, J. W. Ochterski, 
 R. L. Martin, K. Morokuma, V. G. Zakrzewski, G. A. Voth, 
 P. Salvador, J. J. Dannenberg, S. Dapprich, A. D. Daniels, 
 O. Farkas, J. B. Foresman, J. V. Ortiz, J. Cioslowski, 
 and D. J. Fox, Gaussian, Inc., Wallingford CT, 2010.
 
 ******************************************
 Gaussian 09:  EM64L-G09RevC.01 23-Sep-2011
                18-May-2017 
 ******************************************
 %Mem=256MB
 %NProc=48
 Will use up to   48 processors via shared memory.
 ----------------------------------------------------------------------
 #P HF/6-31G* SCF(Conver=6) NoSymm Test Pop=mk IOp(6/33=2) GFInput GFPr
 int
 ----------------------------------------------------------------------
 1/38=1/1;
 2/12=2,15=1,17=6,18=5,40=1/2;
 3/5=1,6=6,7=1,11=9,16=1,24=110,25=1,30=1/1,2,3;
 4//1;
 5/5=2,6=6,38=5/2;
 6/7=2,8=2,9=2,10=2,15=8,20=1,28=1,33=2/1,2;
 99/5=1,9=1/99;
 Leave Link    1 at Thu May 18 14:32:36 2017, MaxMem=   33554432 cpu:       6.8
 (Enter /scratch/michal/g09/l101.exe)
 ----------------------------------------------
 MEP - Input generated by R.E.D.-III.x MOLECULE
 ----------------------------------------------
 Charge =  0 Multiplicity = 1
 Symbolic Z-Matrix:
 O                     5.76413   3.44766   0. 
 H                     5.1268    3.29048   0.70943 
 O                     0.        0.        0. 
 H                    -0.08314  -0.74357  -0.61348 
 C                     8.81942   0.37197   0.37195 
 C                     7.89572   1.54659  -0.05609 
 H                     7.71743   2.12784   0.85985 
 C                     6.5098    1.13274  -0.56597 
 H                     6.62591   0.54864  -1.49052 
 C                     5.77696   0.26993   0.49212 
 H                     5.55447   0.94811   1.33279 
 C                     10.10329   1.17591   0.78137 
 H                     9.86699   1.654     1.74531 
 C                     8.07984  -0.36827   1.50567 
 H                     7.98036   0.31323   2.36276 
 H                     8.64237  -1.23654   1.86286 
 C                     4.38798  -0.2507   -0.01897 
 C                     8.77914   2.42518  -0.95182 
 H                     8.42556   3.45944  -0.98467 
 H                     8.785     2.05296  -1.98436 
 C                     6.68248  -0.84734   1.06174 
 H                     6.81025  -1.63796   0.31512 
 H                     6.18885  -1.32026   1.91864 
 C                     10.1868   2.30119  -0.30695 
 H                     10.94199   2.04665  -1.06047 
 H                     10.50154   3.25044   0.13635 
 C                     5.65654   2.36038  -0.94912 
 H                     6.05995   2.78903  -1.87372 
 C                     11.45072   0.43163   0.97155 
 H                     11.73691   0.        0. 
 C                     9.14083  -0.58976  -0.79493 
 H                     8.23985  -1.00794  -1.25116 
 H                     9.70284  -0.09171  -1.59077 
 H                     9.74726  -1.43295  -0.44771 
 C                     3.62892   0.87055  -0.74085 
 C                     3.54115  -0.70302   1.21078 
 H                     3.59135   0.08753   1.97248 
 H                     3.99817  -1.59234   1.65782 
 C                     4.21105   2.00964  -1.15073 
 H                     3.6035    2.77191  -1.63773 
 C                     4.55003  -1.44092  -1.00352 
 H                     4.91834  -2.33441  -0.49056 
 H                     3.59943  -1.70798  -1.47179 
 H                     5.24821  -1.19617  -1.80964 
 C                     2.15085   0.64144  -0.99831 
 H                     1.69632   1.5425   -1.42164 
 H                     2.02242  -0.15741  -1.74611 
 C                     2.06201  -0.98966   0.91062 
 H                     1.96637  -1.85411   0.23709 
 H                     1.53593  -1.25307   1.8352 
 C                     12.56292   1.43474   1.36788 
 H                     12.5456   2.284     0.67483 
 H                     12.32175   1.84633   2.35878 
 C                     1.38714   0.22128   0.26684 
 H                     1.39258   1.05582   0.97884 
 C                     11.37428  -0.71509   1.99491 
 H                     11.02102  -0.34972   2.96762 
 H                     12.35534  -1.17391   2.14945 
 H                     10.69897  -1.51085   1.67313 
 C                     13.99098   0.86266   1.3692 
 H                     14.10853   0.12053   2.1672 
 H                     14.15154   0.31836   0.42759 
 C                     15.09493   1.92915   1.49407 
 H                     15.01297   2.61807   0.6409 
 H                     16.07337   1.43629   1.39291 
 C                     15.10822   2.76361   2.79263 
 H                     14.13681   3.27      2.88565 
 C                     16.18929   3.85332   2.71179 
 H                     17.18824   3.40734   2.62158 
 H                     16.18714   4.48394   3.60821 
 H                     16.03625   4.5043    1.84332 
 C                     15.30996   1.89647   4.04544 
 H                     16.2597   1.34841   3.99078 
 H                     15.33597   2.51546   4.94951 
 H                     14.50835   1.16174   4.17314 
 
 NAtoms=     75 NQM=        0 NQMF=       0 NMMI=     75 NMMIF=      0
                NMic=       0 NMicF=      0.
                    Isotopes and Nuclear Properties:
 (Nuclear quadrupole moments (NQMom) in fm**2, nuclear magnetic moments (NMagM)
  in nuclear magnetons)

  Atom         1           2           3           4           5           6           7           8           9          10
 IAtWgt=          16           1          16           1          12          12           1          12           1          12
 AtmWgt=  15.9949146   1.0078250  15.9949146   1.0078250  12.0000000  12.0000000   1.0078250  12.0000000   1.0078250  12.0000000
 NucSpn=           0           1           0           1           0           0           1           0           1           0
 AtZEff=   0.0000000   0.0000000   0.0000000   0.0000000   0.0000000   0.0000000   0.0000000   0.0000000   0.0000000   0.0000000
 NQMom=    0.0000000   0.0000000   0.0000000   0.0000000   0.0000000   0.0000000   0.0000000   0.0000000   0.0000000   0.0000000
 NMagM=    0.0000000   2.7928460   0.0000000   2.7928460   0.0000000   0.0000000   2.7928460   0.0000000   2.7928460   0.0000000

  Atom        11          12          13          14          15          16          17          18          19          20
 IAtWgt=           1          12           1          12           1           1          12          12           1           1
 AtmWgt=   1.0078250  12.0000000   1.0078250  12.0000000   1.0078250   1.0078250  12.0000000  12.0000000   1.0078250   1.0078250
 NucSpn=           1           0           1           0           1           1           0           0           1           1
 AtZEff=   0.0000000   0.0000000   0.0000000   0.0000000   0.0000000   0.0000000   0.0000000   0.0000000   0.0000000   0.0000000
 NQMom=    0.0000000   0.0000000   0.0000000   0.0000000   0.0000000   0.0000000   0.0000000   0.0000000   0.0000000   0.0000000
 NMagM=    2.7928460   0.0000000   2.7928460   0.0000000   2.7928460   2.7928460   0.0000000   0.0000000   2.7928460   2.7928460

  Atom        21          22          23          24          25          26          27          28          29          30
 IAtWgt=          12           1           1          12           1           1          12           1          12           1
 AtmWgt=  12.0000000   1.0078250   1.0078250  12.0000000   1.0078250   1.0078250  12.0000000   1.0078250  12.0000000   1.0078250
 NucSpn=           0           1           1           0           1           1           0           1           0           1
 AtZEff=   0.0000000   0.0000000   0.0000000   0.0000000   0.0000000   0.0000000   0.0000000   0.0000000   0.0000000   0.0000000
 NQMom=    0.0000000   0.0000000   0.0000000   0.0000000   0.0000000   0.0000000   0.0000000   0.0000000   0.0000000   0.0000000
 NMagM=    0.0000000   2.7928460   2.7928460   0.0000000   2.7928460   2.7928460   0.0000000   2.7928460   0.0000000   2.7928460

  Atom        31          32          33          34          35          36          37          38          39          40
 IAtWgt=          12           1           1           1          12          12           1           1          12           1
 AtmWgt=  12.0000000   1.0078250   1.0078250   1.0078250  12.0000000  12.0000000   1.0078250   1.0078250  12.0000000   1.0078250
 NucSpn=           0           1           1           1           0           0           1           1           0           1
 AtZEff=   0.0000000   0.0000000   0.0000000   0.0000000   0.0000000   0.0000000   0.0000000   0.0000000   0.0000000   0.0000000
 NQMom=    0.0000000   0.0000000   0.0000000   0.0000000   0.0000000   0.0000000   0.0000000   0.0000000   0.0000000   0.0000000
 NMagM=    0.0000000   2.7928460   2.7928460   2.7928460   0.0000000   0.0000000   2.7928460   2.7928460   0.0000000   2.7928460

  Atom        41          42          43          44          45          46          47          48          49          50
 IAtWgt=          12           1           1           1          12           1           1          12           1           1
 AtmWgt=  12.0000000   1.0078250   1.0078250   1.0078250  12.0000000   1.0078250   1.0078250  12.0000000   1.0078250   1.0078250
 NucSpn=           0           1           1           1           0           1           1           0           1           1
 AtZEff=   0.0000000   0.0000000   0.0000000   0.0000000   0.0000000   0.0000000   0.0000000   0.0000000   0.0000000   0.0000000
 NQMom=    0.0000000   0.0000000   0.0000000   0.0000000   0.0000000   0.0000000   0.0000000   0.0000000   0.0000000   0.0000000
 NMagM=    0.0000000   2.7928460   2.7928460   2.7928460   0.0000000   2.7928460   2.7928460   0.0000000   2.7928460   2.7928460

  Atom        51          52          53          54          55          56          57          58          59          60
 IAtWgt=          12           1           1          12           1          12           1           1           1          12
 AtmWgt=  12.0000000   1.0078250   1.0078250  12.0000000   1.0078250  12.0000000   1.0078250   1.0078250   1.0078250  12.0000000
 NucSpn=           0           1           1           0           1           0           1           1           1           0
 AtZEff=   0.0000000   0.0000000   0.0000000   0.0000000   0.0000000   0.0000000   0.0000000   0.0000000   0.0000000   0.0000000
 NQMom=    0.0000000   0.0000000   0.0000000   0.0000000   0.0000000   0.0000000   0.0000000   0.0000000   0.0000000   0.0000000
 NMagM=    0.0000000   2.7928460   2.7928460   0.0000000   2.7928460   0.0000000   2.7928460   2.7928460   2.7928460   0.0000000

  Atom        61          62          63          64          65          66          67          68          69          70
 IAtWgt=           1           1          12           1           1          12           1          12           1           1
 AtmWgt=   1.0078250   1.0078250  12.0000000   1.0078250   1.0078250  12.0000000   1.0078250  12.0000000   1.0078250   1.0078250
 NucSpn=           1           1           0           1           1           0           1           0           1           1
 AtZEff=   0.0000000   0.0000000   0.0000000   0.0000000   0.0000000   0.0000000   0.0000000   0.0000000   0.0000000   0.0000000
 NQMom=    0.0000000   0.0000000   0.0000000   0.0000000   0.0000000   0.0000000   0.0000000   0.0000000   0.0000000   0.0000000
 NMagM=    2.7928460   2.7928460   0.0000000   2.7928460   2.7928460   0.0000000   2.7928460   0.0000000   2.7928460   2.7928460

  Atom        71          72          73          74          75
 IAtWgt=           1          12           1           1           1
 AtmWgt=   1.0078250  12.0000000   1.0078250   1.0078250   1.0078250
 NucSpn=           1           0           1           1           1
 AtZEff=   0.0000000   0.0000000   0.0000000   0.0000000   0.0000000
 NQMom=    0.0000000   0.0000000   0.0000000   0.0000000   0.0000000
 NMagM=    2.7928460   0.0000000   2.7928460   2.7928460   2.7928460
 Leave Link  101 at Thu May 18 14:32:36 2017, MaxMem=   33554432 cpu:       8.5
 (Enter /scratch/michal/g09/l202.exe)
 Symmetry turned off by external request.
 Stoichiometry    C27H46O2
 Framework group  C1[X(C27H46O2)]
 Deg. of freedom   219
 Full point group                 C1      NOp   1
                          Input orientation:                          
 ---------------------------------------------------------------------
 Center     Atomic      Atomic             Coordinates (Angstroms)
 Number     Number       Type             X           Y           Z
 ---------------------------------------------------------------------
      1          8           0        5.764132    3.447659    0.000000
      2          1           0        5.126797    3.290481    0.709433
      3          8           0        0.000000    0.000000    0.000000
      4          1           0       -0.083136   -0.743571   -0.613480
      5          6           0        8.819425    0.371967    0.371947
      6          6           0        7.895723    1.546590   -0.056090
      7          1           0        7.717430    2.127839    0.859853
      8          6           0        6.509797    1.132742   -0.565970
      9          1           0        6.625913    0.548642   -1.490520
     10          6           0        5.776961    0.269934    0.492124
     11          1           0        5.554472    0.948108    1.332794
     12          6           0       10.103288    1.175912    0.781375
     13          1           0        9.866989    1.654003    1.745311
     14          6           0        8.079844   -0.368270    1.505666
     15          1           0        7.980364    0.313235    2.362762
     16          1           0        8.642371   -1.236536    1.862862
     17          6           0        4.387981   -0.250697   -0.018971
     18          6           0        8.779135    2.425181   -0.951824
     19          1           0        8.425559    3.459443   -0.984669
     20          1           0        8.784996    2.052959   -1.984360
     21          6           0        6.682475   -0.847343    1.061736
     22          1           0        6.810251   -1.637962    0.315116
     23          1           0        6.188846   -1.320257    1.918641
     24          6           0       10.186799    2.301193   -0.306952
     25          1           0       10.941993    2.046649   -1.060469
     26          1           0       10.501544    3.250439    0.136354
     27          6           0        5.656536    2.360377   -0.949122
     28          1           0        6.059949    2.789030   -1.873723
     29          6           0       11.450722    0.431629    0.971547
     30          1           0       11.736914    0.000000    0.000000
     31          6           0        9.140833   -0.589757   -0.794928
     32          1           0        8.239847   -1.007943   -1.251157
     33          1           0        9.702843   -0.091714   -1.590771
     34          1           0        9.747259   -1.432954   -0.447709
     35          6           0        3.628921    0.870554   -0.740854
     36          6           0        3.541149   -0.703023    1.210780
     37          1           0        3.591355    0.087525    1.972484
     38          1           0        3.998165   -1.592338    1.657825
     39          6           0        4.211050    2.009642   -1.150731
     40          1           0        3.603501    2.771907   -1.637725
     41          6           0        4.550028   -1.440917   -1.003518
     42          1           0        4.918337   -2.334412   -0.490559
     43          1           0        3.599432   -1.707982   -1.471790
     44          1           0        5.248213   -1.196168   -1.809644
     45          6           0        2.150849    0.641439   -0.998310
     46          1           0        1.696323    1.542502   -1.421643
     47          1           0        2.022423   -0.157410   -1.746108
     48          6           0        2.062006   -0.989658    0.910621
     49          1           0        1.966373   -1.854113    0.237091
     50          1           0        1.535933   -1.253071    1.835197
     51          6           0       12.562923    1.434745    1.367879
     52          1           0       12.545601    2.284000    0.674829
     53          1           0       12.321755    1.846328    2.358776
     54          6           0        1.387141    0.221281    0.266836
     55          1           0        1.392577    1.055823    0.978839
     56          6           0       11.374276   -0.715090    1.994909
     57          1           0       11.021019   -0.349724    2.967625
     58          1           0       12.355341   -1.173911    2.149449
     59          1           0       10.698969   -1.510854    1.673128
     60          6           0       13.990982    0.862656    1.369204
     61          1           0       14.108535    0.120531    2.167199
     62          1           0       14.151538    0.318358    0.427587
     63          6           0       15.094930    1.929154    1.494071
     64          1           0       15.012972    2.618075    0.640898
     65          1           0       16.073369    1.436288    1.392914
     66          6           0       15.108217    2.763606    2.792634
     67          1           0       14.136807    3.270003    2.885651
     68          6           0       16.189290    3.853320    2.711787
     69          1           0       17.188239    3.407336    2.621581
     70          1           0       16.187141    4.483939    3.608213
     71          1           0       16.036249    4.504298    1.843317
     72          6           0       15.309964    1.896467    4.045440
     73          1           0       16.259701    1.348406    3.990785
     74          1           0       15.335971    2.515461    4.949512
     75          1           0       14.508352    1.161740    4.173142
 ---------------------------------------------------------------------
 Rotational constants (GHZ):      0.4743303      0.0544145      0.0523622
 Leave Link  202 at Thu May 18 14:32:36 2017, MaxMem=   33554432 cpu:       0.1
 (Enter /scratch/michal/g09/l301.exe)
 Standard basis: 6-31G(d) (6D, 7F)
 Ernie: Thresh=  0.10000D-02 Tol=  0.10000D-05 Strict=F.
 AO basis set in the form of general basis input (Overlap normalization):
      1 0
 S   6 1.00       0.000000000000
      0.5484671660D+04  0.1831074430D-02
      0.8252349460D+03  0.1395017220D-01
      0.1880469580D+03  0.6844507810D-01
      0.5296450000D+02  0.2327143360D+00
      0.1689757040D+02  0.4701928980D+00
      0.5799635340D+01  0.3585208530D+00
 SP   3 1.00       0.000000000000
      0.1553961625D+02 -0.1107775495D+00  0.7087426823D-01
      0.3599933586D+01 -0.1480262627D+00  0.3397528391D+00
      0.1013761750D+01  0.1130767015D+01  0.7271585773D+00
 SP   1 1.00       0.000000000000
      0.2700058226D+00  0.1000000000D+01  0.1000000000D+01
 D   1 1.00       0.000000000000
      0.8000000000D+00  0.1000000000D+01
 ****
      2 0
 S   3 1.00       0.000000000000
      0.1873113696D+02  0.3349460434D-01
      0.2825394365D+01  0.2347269535D+00
      0.6401216923D+00  0.8137573261D+00
 S   1 1.00       0.000000000000
      0.1612777588D+00  0.1000000000D+01
 ****
      3 0
 S   6 1.00       0.000000000000
      0.5484671660D+04  0.1831074430D-02
      0.8252349460D+03  0.1395017220D-01
      0.1880469580D+03  0.6844507810D-01
      0.5296450000D+02  0.2327143360D+00
      0.1689757040D+02  0.4701928980D+00
      0.5799635340D+01  0.3585208530D+00
 SP   3 1.00       0.000000000000
      0.1553961625D+02 -0.1107775495D+00  0.7087426823D-01
      0.3599933586D+01 -0.1480262627D+00  0.3397528391D+00
      0.1013761750D+01  0.1130767015D+01  0.7271585773D+00
 SP   1 1.00       0.000000000000
      0.2700058226D+00  0.1000000000D+01  0.1000000000D+01
 D   1 1.00       0.000000000000
      0.8000000000D+00  0.1000000000D+01
 ****
      4 0
 S   3 1.00       0.000000000000
      0.1873113696D+02  0.3349460434D-01
      0.2825394365D+01  0.2347269535D+00
      0.6401216923D+00  0.8137573261D+00
 S   1 1.00       0.000000000000
      0.1612777588D+00  0.1000000000D+01
 ****
      5 0
 S   6 1.00       0.000000000000
      0.3047524880D+04  0.1834737132D-02
      0.4573695180D+03  0.1403732281D-01
      0.1039486850D+03  0.6884262226D-01
      0.2921015530D+02  0.2321844432D+00
      0.9286662960D+01  0.4679413484D+00
      0.3163926960D+01  0.3623119853D+00
 SP   3 1.00       0.000000000000
      0.7868272350D+01 -0.1193324198D+00  0.6899906659D-01
      0.1881288540D+01 -0.1608541517D+00  0.3164239610D+00
      0.5442492580D+00  0.1143456438D+01  0.7443082909D+00
 SP   1 1.00       0.000000000000
      0.1687144782D+00  0.1000000000D+01  0.1000000000D+01
 D   1 1.00       0.000000000000
      0.8000000000D+00  0.1000000000D+01
 ****
      6 0
 S   6 1.00       0.000000000000
      0.3047524880D+04  0.1834737132D-02
      0.4573695180D+03  0.1403732281D-01
      0.1039486850D+03  0.6884262226D-01
      0.2921015530D+02  0.2321844432D+00
      0.9286662960D+01  0.4679413484D+00
      0.3163926960D+01  0.3623119853D+00
 SP   3 1.00       0.000000000000
      0.7868272350D+01 -0.1193324198D+00  0.6899906659D-01
      0.1881288540D+01 -0.1608541517D+00  0.3164239610D+00
      0.5442492580D+00  0.1143456438D+01  0.7443082909D+00
 SP   1 1.00       0.000000000000
      0.1687144782D+00  0.1000000000D+01  0.1000000000D+01
 D   1 1.00       0.000000000000
      0.8000000000D+00  0.1000000000D+01
 ****
      7 0
 S   3 1.00       0.000000000000
      0.1873113696D+02  0.3349460434D-01
      0.2825394365D+01  0.2347269535D+00
      0.6401216923D+00  0.8137573261D+00
 S   1 1.00       0.000000000000
      0.1612777588D+00  0.1000000000D+01
 ****
      8 0
 S   6 1.00       0.000000000000
      0.3047524880D+04  0.1834737132D-02
      0.4573695180D+03  0.1403732281D-01
      0.1039486850D+03  0.6884262226D-01
      0.2921015530D+02  0.2321844432D+00
      0.9286662960D+01  0.4679413484D+00
      0.3163926960D+01  0.3623119853D+00
 SP   3 1.00       0.000000000000
      0.7868272350D+01 -0.1193324198D+00  0.6899906659D-01
      0.1881288540D+01 -0.1608541517D+00  0.3164239610D+00
      0.5442492580D+00  0.1143456438D+01  0.7443082909D+00
 SP   1 1.00       0.000000000000
      0.1687144782D+00  0.1000000000D+01  0.1000000000D+01
 D   1 1.00       0.000000000000
      0.8000000000D+00  0.1000000000D+01
 ****
      9 0
 S   3 1.00       0.000000000000
      0.1873113696D+02  0.3349460434D-01
      0.2825394365D+01  0.2347269535D+00
      0.6401216923D+00  0.8137573261D+00
 S   1 1.00       0.000000000000
      0.1612777588D+00  0.1000000000D+01
 ****
     10 0
 S   6 1.00       0.000000000000
      0.3047524880D+04  0.1834737132D-02
      0.4573695180D+03  0.1403732281D-01
      0.1039486850D+03  0.6884262226D-01
      0.2921015530D+02  0.2321844432D+00
      0.9286662960D+01  0.4679413484D+00
      0.3163926960D+01  0.3623119853D+00
 SP   3 1.00       0.000000000000
      0.7868272350D+01 -0.1193324198D+00  0.6899906659D-01
      0.1881288540D+01 -0.1608541517D+00  0.3164239610D+00
      0.5442492580D+00  0.1143456438D+01  0.7443082909D+00
 SP   1 1.00       0.000000000000
      0.1687144782D+00  0.1000000000D+01  0.1000000000D+01
 D   1 1.00       0.000000000000
      0.8000000000D+00  0.1000000000D+01
 ****
     11 0
 S   3 1.00       0.000000000000
      0.1873113696D+02  0.3349460434D-01
      0.2825394365D+01  0.2347269535D+00
      0.6401216923D+00  0.8137573261D+00
 S   1 1.00       0.000000000000
      0.1612777588D+00  0.1000000000D+01
 ****
     12 0
 S   6 1.00       0.000000000000
      0.3047524880D+04  0.1834737132D-02
      0.4573695180D+03  0.1403732281D-01
      0.1039486850D+03  0.6884262226D-01
      0.2921015530D+02  0.2321844432D+00
      0.9286662960D+01  0.4679413484D+00
      0.3163926960D+01  0.3623119853D+00
 SP   3 1.00       0.000000000000
      0.7868272350D+01 -0.1193324198D+00  0.6899906659D-01
      0.1881288540D+01 -0.1608541517D+00  0.3164239610D+00
      0.5442492580D+00  0.1143456438D+01  0.7443082909D+00
 SP   1 1.00       0.000000000000
      0.1687144782D+00  0.1000000000D+01  0.1000000000D+01
 D   1 1.00       0.000000000000
      0.8000000000D+00  0.1000000000D+01
 ****
     13 0
 S   3 1.00       0.000000000000
      0.1873113696D+02  0.3349460434D-01
      0.2825394365D+01  0.2347269535D+00
      0.6401216923D+00  0.8137573261D+00
 S   1 1.00       0.000000000000
      0.1612777588D+00  0.1000000000D+01
 ****
     14 0
 S   6 1.00       0.000000000000
      0.3047524880D+04  0.1834737132D-02
      0.4573695180D+03  0.1403732281D-01
      0.1039486850D+03  0.6884262226D-01
      0.2921015530D+02  0.2321844432D+00
      0.9286662960D+01  0.4679413484D+00
      0.3163926960D+01  0.3623119853D+00
 SP   3 1.00       0.000000000000
      0.7868272350D+01 -0.1193324198D+00  0.6899906659D-01
      0.1881288540D+01 -0.1608541517D+00  0.3164239610D+00
      0.5442492580D+00  0.1143456438D+01  0.7443082909D+00
 SP   1 1.00       0.000000000000
      0.1687144782D+00  0.1000000000D+01  0.1000000000D+01
 D   1 1.00       0.000000000000
      0.8000000000D+00  0.1000000000D+01
 ****
     15 0
 S   3 1.00       0.000000000000
      0.1873113696D+02  0.3349460434D-01
      0.2825394365D+01  0.2347269535D+00
      0.6401216923D+00  0.8137573261D+00
 S   1 1.00       0.000000000000
      0.1612777588D+00  0.1000000000D+01
 ****
     16 0
 S   3 1.00       0.000000000000
      0.1873113696D+02  0.3349460434D-01
      0.2825394365D+01  0.2347269535D+00
      0.6401216923D+00  0.8137573261D+00
 S   1 1.00       0.000000000000
      0.1612777588D+00  0.1000000000D+01
 ****
     17 0
 S   6 1.00       0.000000000000
      0.3047524880D+04  0.1834737132D-02
      0.4573695180D+03  0.1403732281D-01
      0.1039486850D+03  0.6884262226D-01
      0.2921015530D+02  0.2321844432D+00
      0.9286662960D+01  0.4679413484D+00
      0.3163926960D+01  0.3623119853D+00
 SP   3 1.00       0.000000000000
      0.7868272350D+01 -0.1193324198D+00  0.6899906659D-01
      0.1881288540D+01 -0.1608541517D+00  0.3164239610D+00
      0.5442492580D+00  0.1143456438D+01  0.7443082909D+00
 SP   1 1.00       0.000000000000
      0.1687144782D+00  0.1000000000D+01  0.1000000000D+01
 D   1 1.00       0.000000000000
      0.8000000000D+00  0.1000000000D+01
 ****
     18 0
 S   6 1.00       0.000000000000
      0.3047524880D+04  0.1834737132D-02
      0.4573695180D+03  0.1403732281D-01
      0.1039486850D+03  0.6884262226D-01
      0.2921015530D+02  0.2321844432D+00
      0.9286662960D+01  0.4679413484D+00
      0.3163926960D+01  0.3623119853D+00
 SP   3 1.00       0.000000000000
      0.7868272350D+01 -0.1193324198D+00  0.6899906659D-01
      0.1881288540D+01 -0.1608541517D+00  0.3164239610D+00
      0.5442492580D+00  0.1143456438D+01  0.7443082909D+00
 SP   1 1.00       0.000000000000
      0.1687144782D+00  0.1000000000D+01  0.1000000000D+01
 D   1 1.00       0.000000000000
      0.8000000000D+00  0.1000000000D+01
 ****
     19 0
 S   3 1.00       0.000000000000
      0.1873113696D+02  0.3349460434D-01
      0.2825394365D+01  0.2347269535D+00
      0.6401216923D+00  0.8137573261D+00
 S   1 1.00       0.000000000000
      0.1612777588D+00  0.1000000000D+01
 ****
     20 0
 S   3 1.00       0.000000000000
      0.1873113696D+02  0.3349460434D-01
      0.2825394365D+01  0.2347269535D+00
      0.6401216923D+00  0.8137573261D+00
 S   1 1.00       0.000000000000
      0.1612777588D+00  0.1000000000D+01
 ****
     21 0
 S   6 1.00       0.000000000000
      0.3047524880D+04  0.1834737132D-02
      0.4573695180D+03  0.1403732281D-01
      0.1039486850D+03  0.6884262226D-01
      0.2921015530D+02  0.2321844432D+00
      0.9286662960D+01  0.4679413484D+00
      0.3163926960D+01  0.3623119853D+00
 SP   3 1.00       0.000000000000
      0.7868272350D+01 -0.1193324198D+00  0.6899906659D-01
      0.1881288540D+01 -0.1608541517D+00  0.3164239610D+00
      0.5442492580D+00  0.1143456438D+01  0.7443082909D+00
 SP   1 1.00       0.000000000000
      0.1687144782D+00  0.1000000000D+01  0.1000000000D+01
 D   1 1.00       0.000000000000
      0.8000000000D+00  0.1000000000D+01
 ****
     22 0
 S   3 1.00       0.000000000000
      0.1873113696D+02  0.3349460434D-01
      0.2825394365D+01  0.2347269535D+00
      0.6401216923D+00  0.8137573261D+00
 S   1 1.00       0.000000000000
      0.1612777588D+00  0.1000000000D+01
 ****
     23 0
 S   3 1.00       0.000000000000
      0.1873113696D+02  0.3349460434D-01
      0.2825394365D+01  0.2347269535D+00
      0.6401216923D+00  0.8137573261D+00
 S   1 1.00       0.000000000000
      0.1612777588D+00  0.1000000000D+01
 ****
     24 0
 S   6 1.00       0.000000000000
      0.3047524880D+04  0.1834737132D-02
      0.4573695180D+03  0.1403732281D-01
      0.1039486850D+03  0.6884262226D-01
      0.2921015530D+02  0.2321844432D+00
      0.9286662960D+01  0.4679413484D+00
      0.3163926960D+01  0.3623119853D+00
 SP   3 1.00       0.000000000000
      0.7868272350D+01 -0.1193324198D+00  0.6899906659D-01
      0.1881288540D+01 -0.1608541517D+00  0.3164239610D+00
      0.5442492580D+00  0.1143456438D+01  0.7443082909D+00
 SP   1 1.00       0.000000000000
      0.1687144782D+00  0.1000000000D+01  0.1000000000D+01
 D   1 1.00       0.000000000000
      0.8000000000D+00  0.1000000000D+01
 ****
     25 0
 S   3 1.00       0.000000000000
      0.1873113696D+02  0.3349460434D-01
      0.2825394365D+01  0.2347269535D+00
      0.6401216923D+00  0.8137573261D+00
 S   1 1.00       0.000000000000
      0.1612777588D+00  0.1000000000D+01
 ****
     26 0
 S   3 1.00       0.000000000000
      0.1873113696D+02  0.3349460434D-01
      0.2825394365D+01  0.2347269535D+00
      0.6401216923D+00  0.8137573261D+00
 S   1 1.00       0.000000000000
      0.1612777588D+00  0.1000000000D+01
 ****
     27 0
 S   6 1.00       0.000000000000
      0.3047524880D+04  0.1834737132D-02
      0.4573695180D+03  0.1403732281D-01
      0.1039486850D+03  0.6884262226D-01
      0.2921015530D+02  0.2321844432D+00
      0.9286662960D+01  0.4679413484D+00
      0.3163926960D+01  0.3623119853D+00
 SP   3 1.00       0.000000000000
      0.7868272350D+01 -0.1193324198D+00  0.6899906659D-01
      0.1881288540D+01 -0.1608541517D+00  0.3164239610D+00
      0.5442492580D+00  0.1143456438D+01  0.7443082909D+00
 SP   1 1.00       0.000000000000
      0.1687144782D+00  0.1000000000D+01  0.1000000000D+01
 D   1 1.00       0.000000000000
      0.8000000000D+00  0.1000000000D+01
 ****
     28 0
 S   3 1.00       0.000000000000
      0.1873113696D+02  0.3349460434D-01
      0.2825394365D+01  0.2347269535D+00
      0.6401216923D+00  0.8137573261D+00
 S   1 1.00       0.000000000000
      0.1612777588D+00  0.1000000000D+01
 ****
     29 0
 S   6 1.00       0.000000000000
      0.3047524880D+04  0.1834737132D-02
      0.4573695180D+03  0.1403732281D-01
      0.1039486850D+03  0.6884262226D-01
      0.2921015530D+02  0.2321844432D+00
      0.9286662960D+01  0.4679413484D+00
      0.3163926960D+01  0.3623119853D+00
 SP   3 1.00       0.000000000000
      0.7868272350D+01 -0.1193324198D+00  0.6899906659D-01
      0.1881288540D+01 -0.1608541517D+00  0.3164239610D+00
      0.5442492580D+00  0.1143456438D+01  0.7443082909D+00
 SP   1 1.00       0.000000000000
      0.1687144782D+00  0.1000000000D+01  0.1000000000D+01
 D   1 1.00       0.000000000000
      0.8000000000D+00  0.1000000000D+01
 ****
     30 0
 S   3 1.00       0.000000000000
      0.1873113696D+02  0.3349460434D-01
      0.2825394365D+01  0.2347269535D+00
      0.6401216923D+00  0.8137573261D+00
 S   1 1.00       0.000000000000
      0.1612777588D+00  0.1000000000D+01
 ****
     31 0
 S   6 1.00       0.000000000000
      0.3047524880D+04  0.1834737132D-02
      0.4573695180D+03  0.1403732281D-01
      0.1039486850D+03  0.6884262226D-01
      0.2921015530D+02  0.2321844432D+00
      0.9286662960D+01  0.4679413484D+00
      0.3163926960D+01  0.3623119853D+00
 SP   3 1.00       0.000000000000
      0.7868272350D+01 -0.1193324198D+00  0.6899906659D-01
      0.1881288540D+01 -0.1608541517D+00  0.3164239610D+00
      0.5442492580D+00  0.1143456438D+01  0.7443082909D+00
 SP   1 1.00       0.000000000000
      0.1687144782D+00  0.1000000000D+01  0.1000000000D+01
 D   1 1.00       0.000000000000
      0.8000000000D+00  0.1000000000D+01
 ****
     32 0
 S   3 1.00       0.000000000000
      0.1873113696D+02  0.3349460434D-01
      0.2825394365D+01  0.2347269535D+00
      0.6401216923D+00  0.8137573261D+00
 S   1 1.00       0.000000000000
      0.1612777588D+00  0.1000000000D+01
 ****
     33 0
 S   3 1.00       0.000000000000
      0.1873113696D+02  0.3349460434D-01
      0.2825394365D+01  0.2347269535D+00
      0.6401216923D+00  0.8137573261D+00
 S   1 1.00       0.000000000000
      0.1612777588D+00  0.1000000000D+01
 ****
     34 0
 S   3 1.00       0.000000000000
      0.1873113696D+02  0.3349460434D-01
      0.2825394365D+01  0.2347269535D+00
      0.6401216923D+00  0.8137573261D+00
 S   1 1.00       0.000000000000
      0.1612777588D+00  0.1000000000D+01
 ****
     35 0
 S   6 1.00       0.000000000000
      0.3047524880D+04  0.1834737132D-02
      0.4573695180D+03  0.1403732281D-01
      0.1039486850D+03  0.6884262226D-01
      0.2921015530D+02  0.2321844432D+00
      0.9286662960D+01  0.4679413484D+00
      0.3163926960D+01  0.3623119853D+00
 SP   3 1.00       0.000000000000
      0.7868272350D+01 -0.1193324198D+00  0.6899906659D-01
      0.1881288540D+01 -0.1608541517D+00  0.3164239610D+00
      0.5442492580D+00  0.1143456438D+01  0.7443082909D+00
 SP   1 1.00       0.000000000000
      0.1687144782D+00  0.1000000000D+01  0.1000000000D+01
 D   1 1.00       0.000000000000
      0.8000000000D+00  0.1000000000D+01
 ****
     36 0
 S   6 1.00       0.000000000000
      0.3047524880D+04  0.1834737132D-02
      0.4573695180D+03  0.1403732281D-01
      0.1039486850D+03  0.6884262226D-01
      0.2921015530D+02  0.2321844432D+00
      0.9286662960D+01  0.4679413484D+00
      0.3163926960D+01  0.3623119853D+00
 SP   3 1.00       0.000000000000
      0.7868272350D+01 -0.1193324198D+00  0.6899906659D-01
      0.1881288540D+01 -0.1608541517D+00  0.3164239610D+00
      0.5442492580D+00  0.1143456438D+01  0.7443082909D+00
 SP   1 1.00       0.000000000000
      0.1687144782D+00  0.1000000000D+01  0.1000000000D+01
 D   1 1.00       0.000000000000
      0.8000000000D+00  0.1000000000D+01
 ****
     37 0
 S   3 1.00       0.000000000000
      0.1873113696D+02  0.3349460434D-01
      0.2825394365D+01  0.2347269535D+00
      0.6401216923D+00  0.8137573261D+00
 S   1 1.00       0.000000000000
      0.1612777588D+00  0.1000000000D+01
 ****
     38 0
 S   3 1.00       0.000000000000
      0.1873113696D+02  0.3349460434D-01
      0.2825394365D+01  0.2347269535D+00
      0.6401216923D+00  0.8137573261D+00
 S   1 1.00       0.000000000000
      0.1612777588D+00  0.1000000000D+01
 ****
     39 0
 S   6 1.00       0.000000000000
      0.3047524880D+04  0.1834737132D-02
      0.4573695180D+03  0.1403732281D-01
      0.1039486850D+03  0.6884262226D-01
      0.2921015530D+02  0.2321844432D+00
      0.9286662960D+01  0.4679413484D+00
      0.3163926960D+01  0.3623119853D+00
 SP   3 1.00       0.000000000000
      0.7868272350D+01 -0.1193324198D+00  0.6899906659D-01
      0.1881288540D+01 -0.1608541517D+00  0.3164239610D+00
      0.5442492580D+00  0.1143456438D+01  0.7443082909D+00
 SP   1 1.00       0.000000000000
      0.1687144782D+00  0.1000000000D+01  0.1000000000D+01
 D   1 1.00       0.000000000000
      0.8000000000D+00  0.1000000000D+01
 ****
     40 0
 S   3 1.00       0.000000000000
      0.1873113696D+02  0.3349460434D-01
      0.2825394365D+01  0.2347269535D+00
      0.6401216923D+00  0.8137573261D+00
 S   1 1.00       0.000000000000
      0.1612777588D+00  0.1000000000D+01
 ****
     41 0
 S   6 1.00       0.000000000000
      0.3047524880D+04  0.1834737132D-02
      0.4573695180D+03  0.1403732281D-01
      0.1039486850D+03  0.6884262226D-01
      0.2921015530D+02  0.2321844432D+00
      0.9286662960D+01  0.4679413484D+00
      0.3163926960D+01  0.3623119853D+00
 SP   3 1.00       0.000000000000
      0.7868272350D+01 -0.1193324198D+00  0.6899906659D-01
      0.1881288540D+01 -0.1608541517D+00  0.3164239610D+00
      0.5442492580D+00  0.1143456438D+01  0.7443082909D+00
 SP   1 1.00       0.000000000000
      0.1687144782D+00  0.1000000000D+01  0.1000000000D+01
 D   1 1.00       0.000000000000
      0.8000000000D+00  0.1000000000D+01
 ****
     42 0
 S   3 1.00       0.000000000000
      0.1873113696D+02  0.3349460434D-01
      0.2825394365D+01  0.2347269535D+00
      0.6401216923D+00  0.8137573261D+00
 S   1 1.00       0.000000000000
      0.1612777588D+00  0.1000000000D+01
 ****
     43 0
 S   3 1.00       0.000000000000
      0.1873113696D+02  0.3349460434D-01
      0.2825394365D+01  0.2347269535D+00
      0.6401216923D+00  0.8137573261D+00
 S   1 1.00       0.000000000000
      0.1612777588D+00  0.1000000000D+01
 ****
     44 0
 S   3 1.00       0.000000000000
      0.1873113696D+02  0.3349460434D-01
      0.2825394365D+01  0.2347269535D+00
      0.6401216923D+00  0.8137573261D+00
 S   1 1.00       0.000000000000
      0.1612777588D+00  0.1000000000D+01
 ****
     45 0
 S   6 1.00       0.000000000000
      0.3047524880D+04  0.1834737132D-02
      0.4573695180D+03  0.1403732281D-01
      0.1039486850D+03  0.6884262226D-01
      0.2921015530D+02  0.2321844432D+00
      0.9286662960D+01  0.4679413484D+00
      0.3163926960D+01  0.3623119853D+00
 SP   3 1.00       0.000000000000
      0.7868272350D+01 -0.1193324198D+00  0.6899906659D-01
      0.1881288540D+01 -0.1608541517D+00  0.3164239610D+00
      0.5442492580D+00  0.1143456438D+01  0.7443082909D+00
 SP   1 1.00       0.000000000000
      0.1687144782D+00  0.1000000000D+01  0.1000000000D+01
 D   1 1.00       0.000000000000
      0.8000000000D+00  0.1000000000D+01
 ****
     46 0
 S   3 1.00       0.000000000000
      0.1873113696D+02  0.3349460434D-01
      0.2825394365D+01  0.2347269535D+00
      0.6401216923D+00  0.8137573261D+00
 S   1 1.00       0.000000000000
      0.1612777588D+00  0.1000000000D+01
 ****
     47 0
 S   3 1.00       0.000000000000
      0.1873113696D+02  0.3349460434D-01
      0.2825394365D+01  0.2347269535D+00
      0.6401216923D+00  0.8137573261D+00
 S   1 1.00       0.000000000000
      0.1612777588D+00  0.1000000000D+01
 ****
     48 0
 S   6 1.00       0.000000000000
      0.3047524880D+04  0.1834737132D-02
      0.4573695180D+03  0.1403732281D-01
      0.1039486850D+03  0.6884262226D-01
      0.2921015530D+02  0.2321844432D+00
      0.9286662960D+01  0.4679413484D+00
      0.3163926960D+01  0.3623119853D+00
 SP   3 1.00       0.000000000000
      0.7868272350D+01 -0.1193324198D+00  0.6899906659D-01
      0.1881288540D+01 -0.1608541517D+00  0.3164239610D+00
      0.5442492580D+00  0.1143456438D+01  0.7443082909D+00
 SP   1 1.00       0.000000000000
      0.1687144782D+00  0.1000000000D+01  0.1000000000D+01
 D   1 1.00       0.000000000000
      0.8000000000D+00  0.1000000000D+01
 ****
     49 0
 S   3 1.00       0.000000000000
      0.1873113696D+02  0.3349460434D-01
      0.2825394365D+01  0.2347269535D+00
      0.6401216923D+00  0.8137573261D+00
 S   1 1.00       0.000000000000
      0.1612777588D+00  0.1000000000D+01
 ****
     50 0
 S   3 1.00       0.000000000000
      0.1873113696D+02  0.3349460434D-01
      0.2825394365D+01  0.2347269535D+00
      0.6401216923D+00  0.8137573261D+00
 S   1 1.00       0.000000000000
      0.1612777588D+00  0.1000000000D+01
 ****
     51 0
 S   6 1.00       0.000000000000
      0.3047524880D+04  0.1834737132D-02
      0.4573695180D+03  0.1403732281D-01
      0.1039486850D+03  0.6884262226D-01
      0.2921015530D+02  0.2321844432D+00
      0.9286662960D+01  0.4679413484D+00
      0.3163926960D+01  0.3623119853D+00
 SP   3 1.00       0.000000000000
      0.7868272350D+01 -0.1193324198D+00  0.6899906659D-01
      0.1881288540D+01 -0.1608541517D+00  0.3164239610D+00
      0.5442492580D+00  0.1143456438D+01  0.7443082909D+00
 SP   1 1.00       0.000000000000
      0.1687144782D+00  0.1000000000D+01  0.1000000000D+01
 D   1 1.00       0.000000000000
      0.8000000000D+00  0.1000000000D+01
 ****
     52 0
 S   3 1.00       0.000000000000
      0.1873113696D+02  0.3349460434D-01
      0.2825394365D+01  0.2347269535D+00
      0.6401216923D+00  0.8137573261D+00
 S   1 1.00       0.000000000000
      0.1612777588D+00  0.1000000000D+01
 ****
     53 0
 S   3 1.00       0.000000000000
      0.1873113696D+02  0.3349460434D-01
      0.2825394365D+01  0.2347269535D+00
      0.6401216923D+00  0.8137573261D+00
 S   1 1.00       0.000000000000
      0.1612777588D+00  0.1000000000D+01
 ****
     54 0
 S   6 1.00       0.000000000000
      0.3047524880D+04  0.1834737132D-02
      0.4573695180D+03  0.1403732281D-01
      0.1039486850D+03  0.6884262226D-01
      0.2921015530D+02  0.2321844432D+00
      0.9286662960D+01  0.4679413484D+00
      0.3163926960D+01  0.3623119853D+00
 SP   3 1.00       0.000000000000
      0.7868272350D+01 -0.1193324198D+00  0.6899906659D-01
      0.1881288540D+01 -0.1608541517D+00  0.3164239610D+00
      0.5442492580D+00  0.1143456438D+01  0.7443082909D+00
 SP   1 1.00       0.000000000000
      0.1687144782D+00  0.1000000000D+01  0.1000000000D+01
 D   1 1.00       0.000000000000
      0.8000000000D+00  0.1000000000D+01
 ****
     55 0
 S   3 1.00       0.000000000000
      0.1873113696D+02  0.3349460434D-01
      0.2825394365D+01  0.2347269535D+00
      0.6401216923D+00  0.8137573261D+00
 S   1 1.00       0.000000000000
      0.1612777588D+00  0.1000000000D+01
 ****
     56 0
 S   6 1.00       0.000000000000
      0.3047524880D+04  0.1834737132D-02
      0.4573695180D+03  0.1403732281D-01
      0.1039486850D+03  0.6884262226D-01
      0.2921015530D+02  0.2321844432D+00
      0.9286662960D+01  0.4679413484D+00
      0.3163926960D+01  0.3623119853D+00
 SP   3 1.00       0.000000000000
      0.7868272350D+01 -0.1193324198D+00  0.6899906659D-01
      0.1881288540D+01 -0.1608541517D+00  0.3164239610D+00
      0.5442492580D+00  0.1143456438D+01  0.7443082909D+00
 SP   1 1.00       0.000000000000
      0.1687144782D+00  0.1000000000D+01  0.1000000000D+01
 D   1 1.00       0.000000000000
      0.8000000000D+00  0.1000000000D+01
 ****
     57 0
 S   3 1.00       0.000000000000
      0.1873113696D+02  0.3349460434D-01
      0.2825394365D+01  0.2347269535D+00
      0.6401216923D+00  0.8137573261D+00
 S   1 1.00       0.000000000000
      0.1612777588D+00  0.1000000000D+01
 ****
     58 0
 S   3 1.00       0.000000000000
      0.1873113696D+02  0.3349460434D-01
      0.2825394365D+01  0.2347269535D+00
      0.6401216923D+00  0.8137573261D+00
 S   1 1.00       0.000000000000
      0.1612777588D+00  0.1000000000D+01
 ****
     59 0
 S   3 1.00       0.000000000000
      0.1873113696D+02  0.3349460434D-01
      0.2825394365D+01  0.2347269535D+00
      0.6401216923D+00  0.8137573261D+00
 S   1 1.00       0.000000000000
      0.1612777588D+00  0.1000000000D+01
 ****
     60 0
 S   6 1.00       0.000000000000
      0.3047524880D+04  0.1834737132D-02
      0.4573695180D+03  0.1403732281D-01
      0.1039486850D+03  0.6884262226D-01
      0.2921015530D+02  0.2321844432D+00
      0.9286662960D+01  0.4679413484D+00
      0.3163926960D+01  0.3623119853D+00
 SP   3 1.00       0.000000000000
      0.7868272350D+01 -0.1193324198D+00  0.6899906659D-01
      0.1881288540D+01 -0.1608541517D+00  0.3164239610D+00
      0.5442492580D+00  0.1143456438D+01  0.7443082909D+00
 SP   1 1.00       0.000000000000
      0.1687144782D+00  0.1000000000D+01  0.1000000000D+01
 D   1 1.00       0.000000000000
      0.8000000000D+00  0.1000000000D+01
 ****
     61 0
 S   3 1.00       0.000000000000
      0.1873113696D+02  0.3349460434D-01
      0.2825394365D+01  0.2347269535D+00
      0.6401216923D+00  0.8137573261D+00
 S   1 1.00       0.000000000000
      0.1612777588D+00  0.1000000000D+01
 ****
     62 0
 S   3 1.00       0.000000000000
      0.1873113696D+02  0.3349460434D-01
      0.2825394365D+01  0.2347269535D+00
      0.6401216923D+00  0.8137573261D+00
 S   1 1.00       0.000000000000
      0.1612777588D+00  0.1000000000D+01
 ****
     63 0
 S   6 1.00       0.000000000000
      0.3047524880D+04  0.1834737132D-02
      0.4573695180D+03  0.1403732281D-01
      0.1039486850D+03  0.6884262226D-01
      0.2921015530D+02  0.2321844432D+00
      0.9286662960D+01  0.4679413484D+00
      0.3163926960D+01  0.3623119853D+00
 SP   3 1.00       0.000000000000
      0.7868272350D+01 -0.1193324198D+00  0.6899906659D-01
      0.1881288540D+01 -0.1608541517D+00  0.3164239610D+00
      0.5442492580D+00  0.1143456438D+01  0.7443082909D+00
 SP   1 1.00       0.000000000000
      0.1687144782D+00  0.1000000000D+01  0.1000000000D+01
 D   1 1.00       0.000000000000
      0.8000000000D+00  0.1000000000D+01
 ****
     64 0
 S   3 1.00       0.000000000000
      0.1873113696D+02  0.3349460434D-01
      0.2825394365D+01  0.2347269535D+00
      0.6401216923D+00  0.8137573261D+00
 S   1 1.00       0.000000000000
      0.1612777588D+00  0.1000000000D+01
 ****
     65 0
 S   3 1.00       0.000000000000
      0.1873113696D+02  0.3349460434D-01
      0.2825394365D+01  0.2347269535D+00
      0.6401216923D+00  0.8137573261D+00
 S   1 1.00       0.000000000000
      0.1612777588D+00  0.1000000000D+01
 ****
     66 0
 S   6 1.00       0.000000000000
      0.3047524880D+04  0.1834737132D-02
      0.4573695180D+03  0.1403732281D-01
      0.1039486850D+03  0.6884262226D-01
      0.2921015530D+02  0.2321844432D+00
      0.9286662960D+01  0.4679413484D+00
      0.3163926960D+01  0.3623119853D+00
 SP   3 1.00       0.000000000000
      0.7868272350D+01 -0.1193324198D+00  0.6899906659D-01
      0.1881288540D+01 -0.1608541517D+00  0.3164239610D+00
      0.5442492580D+00  0.1143456438D+01  0.7443082909D+00
 SP   1 1.00       0.000000000000
      0.1687144782D+00  0.1000000000D+01  0.1000000000D+01
 D   1 1.00       0.000000000000
      0.8000000000D+00  0.1000000000D+01
 ****
     67 0
 S   3 1.00       0.000000000000
      0.1873113696D+02  0.3349460434D-01
      0.2825394365D+01  0.2347269535D+00
      0.6401216923D+00  0.8137573261D+00
 S   1 1.00       0.000000000000
      0.1612777588D+00  0.1000000000D+01
 ****
     68 0
 S   6 1.00       0.000000000000
      0.3047524880D+04  0.1834737132D-02
      0.4573695180D+03  0.1403732281D-01
      0.1039486850D+03  0.6884262226D-01
      0.2921015530D+02  0.2321844432D+00
      0.9286662960D+01  0.4679413484D+00
      0.3163926960D+01  0.3623119853D+00
 SP   3 1.00       0.000000000000
      0.7868272350D+01 -0.1193324198D+00  0.6899906659D-01
      0.1881288540D+01 -0.1608541517D+00  0.3164239610D+00
      0.5442492580D+00  0.1143456438D+01  0.7443082909D+00
 SP   1 1.00       0.000000000000
      0.1687144782D+00  0.1000000000D+01  0.1000000000D+01
 D   1 1.00       0.000000000000
      0.8000000000D+00  0.1000000000D+01
 ****
     69 0
 S   3 1.00       0.000000000000
      0.1873113696D+02  0.3349460434D-01
      0.2825394365D+01  0.2347269535D+00
      0.6401216923D+00  0.8137573261D+00
 S   1 1.00       0.000000000000
      0.1612777588D+00  0.1000000000D+01
 ****
     70 0
 S   3 1.00       0.000000000000
      0.1873113696D+02  0.3349460434D-01
      0.2825394365D+01  0.2347269535D+00
      0.6401216923D+00  0.8137573261D+00
 S   1 1.00       0.000000000000
      0.1612777588D+00  0.1000000000D+01
 ****
     71 0
 S   3 1.00       0.000000000000
      0.1873113696D+02  0.3349460434D-01
      0.2825394365D+01  0.2347269535D+00
      0.6401216923D+00  0.8137573261D+00
 S   1 1.00       0.000000000000
      0.1612777588D+00  0.1000000000D+01
 ****
     72 0
 S   6 1.00       0.000000000000
      0.3047524880D+04  0.1834737132D-02
      0.4573695180D+03  0.1403732281D-01
      0.1039486850D+03  0.6884262226D-01
      0.2921015530D+02  0.2321844432D+00
      0.9286662960D+01  0.4679413484D+00
      0.3163926960D+01  0.3623119853D+00
 SP   3 1.00       0.000000000000
      0.7868272350D+01 -0.1193324198D+00  0.6899906659D-01
      0.1881288540D+01 -0.1608541517D+00  0.3164239610D+00
      0.5442492580D+00  0.1143456438D+01  0.7443082909D+00
 SP   1 1.00       0.000000000000
      0.1687144782D+00  0.1000000000D+01  0.1000000000D+01
 D   1 1.00       0.000000000000
      0.8000000000D+00  0.1000000000D+01
 ****
     73 0
 S   3 1.00       0.000000000000
      0.1873113696D+02  0.3349460434D-01
      0.2825394365D+01  0.2347269535D+00
      0.6401216923D+00  0.8137573261D+00
 S   1 1.00       0.000000000000
      0.1612777588D+00  0.1000000000D+01
 ****
     74 0
 S   3 1.00       0.000000000000
      0.1873113696D+02  0.3349460434D-01
      0.2825394365D+01  0.2347269535D+00
      0.6401216923D+00  0.8137573261D+00
 S   1 1.00       0.000000000000
      0.1612777588D+00  0.1000000000D+01
 ****
     75 0
 S   3 1.00       0.000000000000
      0.1873113696D+02  0.3349460434D-01
      0.2825394365D+01  0.2347269535D+00
      0.6401216923D+00  0.8137573261D+00
 S   1 1.00       0.000000000000
      0.1612777588D+00  0.1000000000D+01
 ****

 AO basis set (Overlap normalization):
 Atom O1       Shell     1 S   6     bf    1 -     1         10.892631421823          6.515131271784          0.000000000000
      0.5484671660D+04  0.1831074430D-02
      0.8252349460D+03  0.1395017220D-01
      0.1880469580D+03  0.6844507810D-01
      0.5296450000D+02  0.2327143360D+00
      0.1689757040D+02  0.4701928980D+00
      0.5799635340D+01  0.3585208530D+00
 Atom O1       Shell     2 SP   3    bf    2 -     5         10.892631421823          6.515131271784          0.000000000000
      0.1553961625D+02 -0.1107775495D+00  0.7087426823D-01
      0.3599933586D+01 -0.1480262627D+00  0.3397528391D+00
      0.1013761750D+01  0.1130767015D+01  0.7271585773D+00
 Atom O1       Shell     3 SP   1    bf    6 -     9         10.892631421823          6.515131271784          0.000000000000
      0.2700058226D+00  0.1000000000D+01  0.1000000000D+01
 Atom O1       Shell     4 D   1     bf   10 -    15         10.892631421823          6.515131271784          0.000000000000
      0.8000000000D+00  0.1000000000D+01
 Atom H2       Shell     5 S   3     bf   16 -    16          9.688242382283          6.218107085087          1.340634627652
      0.1873113696D+02  0.3349460434D-01
      0.2825394365D+01  0.2347269535D+00
      0.6401216923D+00  0.8137573261D+00
 Atom H2       Shell     6 S   1     bf   17 -    17          9.688242382283          6.218107085087          1.340634627652
      0.1612777588D+00  0.1000000000D+01
 Atom O3       Shell     7 S   6     bf   18 -    18          0.000000000000          0.000000000000          0.000000000000
      0.5484671660D+04  0.1831074430D-02
      0.8252349460D+03  0.1395017220D-01
      0.1880469580D+03  0.6844507810D-01
      0.5296450000D+02  0.2327143360D+00
      0.1689757040D+02  0.4701928980D+00
      0.5799635340D+01  0.3585208530D+00
 Atom O3       Shell     8 SP   3    bf   19 -    22          0.000000000000          0.000000000000          0.000000000000
      0.1553961625D+02 -0.1107775495D+00  0.7087426823D-01
      0.3599933586D+01 -0.1480262627D+00  0.3397528391D+00
      0.1013761750D+01  0.1130767015D+01  0.7271585773D+00
 Atom O3       Shell     9 SP   1    bf   23 -    26          0.000000000000          0.000000000000          0.000000000000
      0.2700058226D+00  0.1000000000D+01  0.1000000000D+01
 Atom O3       Shell    10 D   1     bf   27 -    32          0.000000000000          0.000000000000          0.000000000000
      0.8000000000D+00  0.1000000000D+01
 Atom H4       Shell    11 S   3     bf   33 -    33         -0.157104082811         -1.405145210205         -1.159309868304
      0.1873113696D+02  0.3349460434D-01
      0.2825394365D+01  0.2347269535D+00
      0.6401216923D+00  0.8137573261D+00
 Atom H4       Shell    12 S   1     bf   34 -    34         -0.157104082811         -1.405145210205         -1.159309868304
      0.1612777588D+00  0.1000000000D+01
 Atom C5       Shell    13 S   6     bf   35 -    35         16.666297427093          0.702914815608          0.702878249407
      0.3047524880D+04  0.1834737132D-02
      0.4573695180D+03  0.1403732281D-01
      0.1039486850D+03  0.6884262226D-01
      0.2921015530D+02  0.2321844432D+00
      0.9286662960D+01  0.4679413484D+00
      0.3163926960D+01  0.3623119853D+00
 Atom C5       Shell    14 SP   3    bf   36 -    39         16.666297427093          0.702914815608          0.702878249407
      0.7868272350D+01 -0.1193324198D+00  0.6899906659D-01
      0.1881288540D+01 -0.1608541517D+00  0.3164239610D+00
      0.5442492580D+00  0.1143456438D+01  0.7443082909D+00
 Atom C5       Shell    15 SP   1    bf   40 -    43         16.666297427093          0.702914815608          0.702878249407
      0.1687144782D+00  0.1000000000D+01  0.1000000000D+01
 Atom C5       Shell    16 D   1     bf   44 -    49         16.666297427093          0.702914815608          0.702878249407
      0.8000000000D+00  0.1000000000D+01
 Atom C6       Shell    17 S   6     bf   50 -    50         14.920754091126          2.922632465825         -0.105995494684
      0.3047524880D+04  0.1834737132D-02
      0.4573695180D+03  0.1403732281D-01
      0.1039486850D+03  0.6884262226D-01
      0.2921015530D+02  0.2321844432D+00
      0.9286662960D+01  0.4679413484D+00
      0.3163926960D+01  0.3623119853D+00
 Atom C6       Shell    18 SP   3    bf   51 -    54         14.920754091126          2.922632465825         -0.105995494684
      0.7868272350D+01 -0.1193324198D+00  0.6899906659D-01
      0.1881288540D+01 -0.1608541517D+00  0.3164239610D+00
      0.5442492580D+00  0.1143456438D+01  0.7443082909D+00
 Atom C6       Shell    19 SP   1    bf   55 -    58         14.920754091126          2.922632465825         -0.105995494684
      0.1687144782D+00  0.1000000000D+01  0.1000000000D+01
 Atom C6       Shell    20 D   1     bf   59 -    64         14.920754091126          2.922632465825         -0.105995494684
      0.8000000000D+00  0.1000000000D+01
 Atom H7       Shell    21 S   3     bf   65 -    65         14.583829111921          4.021033229435          1.624886363287
      0.1873113696D+02  0.3349460434D-01
      0.2825394365D+01  0.2347269535D+00
      0.6401216923D+00  0.8137573261D+00
 Atom H7       Shell    22 S   1     bf   66 -    66         14.583829111921          4.021033229435          1.624886363287
      0.1612777588D+00  0.1000000000D+01
 Atom C8       Shell    23 S   6     bf   67 -    67         12.301734285468          2.140571875758         -1.069527789203
      0.3047524880D+04  0.1834737132D-02
      0.4573695180D+03  0.1403732281D-01
      0.1039486850D+03  0.6884262226D-01
      0.2921015530D+02  0.2321844432D+00
      0.9286662960D+01  0.4679413484D+00
      0.3163926960D+01  0.3623119853D+00
 Atom C8       Shell    24 SP   3    bf   68 -    71         12.301734285468          2.140571875758         -1.069527789203
      0.7868272350D+01 -0.1193324198D+00  0.6899906659D-01
      0.1881288540D+01 -0.1608541517D+00  0.3164239610D+00
      0.5442492580D+00  0.1143456438D+01  0.7443082909D+00
 Atom C8       Shell    25 SP   1    bf   72 -    75         12.301734285468          2.140571875758         -1.069527789203
      0.1687144782D+00  0.1000000000D+01  0.1000000000D+01
 Atom C8       Shell    26 D   1     bf   76 -    81         12.301734285468          2.140571875758         -1.069527789203
      0.8000000000D+00  0.1000000000D+01
 Atom H9       Shell    27 S   3     bf   82 -    82         12.521160685765          1.036783654122         -2.816674009774
      0.1873113696D+02  0.3349460434D-01
      0.2825394365D+01  0.2347269535D+00
      0.6401216923D+00  0.8137573261D+00
 Atom H9       Shell    28 S   1     bf   83 -    83         12.521160685765          1.036783654122         -2.816674009774
      0.1612777588D+00  0.1000000000D+01
 Atom C10      Shell    29 S   6     bf   84 -    84         10.916874604998          0.510102089845          0.929979866879
      0.3047524880D+04  0.1834737132D-02
      0.4573695180D+03  0.1403732281D-01
      0.1039486850D+03  0.6884262226D-01
      0.2921015530D+02  0.2321844432D+00
      0.9286662960D+01  0.4679413484D+00
      0.3163926960D+01  0.3623119853D+00
 Atom C10      Shell    30 SP   3    bf   85 -    88         10.916874604998          0.510102089845          0.929979866879
      0.7868272350D+01 -0.1193324198D+00  0.6899906659D-01
      0.1881288540D+01 -0.1608541517D+00  0.3164239610D+00
      0.5442492580D+00  0.1143456438D+01  0.7443082909D+00
 Atom C10      Shell    31 SP   1    bf   89 -    92         10.916874604998          0.510102089845          0.929979866879
      0.1687144782D+00  0.1000000000D+01  0.1000000000D+01
 Atom C10      Shell    32 D   1     bf   93 -    98         10.916874604998          0.510102089845          0.929979866879
      0.8000000000D+00  0.1000000000D+01
 Atom H11      Shell    33 S   3     bf   99 -    99         10.496430136891          1.791664029761          2.518616105087
      0.1873113696D+02  0.3349460434D-01
      0.2825394365D+01  0.2347269535D+00
      0.6401216923D+00  0.8137573261D+00
 Atom H11      Shell    34 S   1     bf  100 -   100         10.496430136891          1.791664029761          2.518616105087
      0.1612777588D+00  0.1000000000D+01
 Atom C12      Shell    35 S   6     bf  101 -   101         19.092446700266          2.222151239531          1.476584379138
      0.3047524880D+04  0.1834737132D-02
      0.4573695180D+03  0.1403732281D-01
      0.1039486850D+03  0.6884262226D-01
      0.2921015530D+02  0.2321844432D+00
      0.9286662960D+01  0.4679413484D+00
      0.3163926960D+01  0.3623119853D+00
 Atom C12      Shell    36 SP   3    bf  102 -   105         19.092446700266          2.222151239531          1.476584379138
      0.7868272350D+01 -0.1193324198D+00  0.6899906659D-01
      0.1881288540D+01 -0.1608541517D+00  0.3164239610D+00
      0.5442492580D+00  0.1143456438D+01  0.7443082909D+00
 Atom C12      Shell    37 SP   1    bf  106 -   109         19.092446700266          2.222151239531          1.476584379138
      0.1687144782D+00  0.1000000000D+01  0.1000000000D+01
 Atom C12      Shell    38 D   1     bf  110 -   115         19.092446700266          2.222151239531          1.476584379138
      0.8000000000D+00  0.1000000000D+01
 Atom H13      Shell    39 S   3     bf  116 -   116         18.645906531558          3.125611767005          3.298160600398
      0.1873113696D+02  0.3349460434D-01
      0.2825394365D+01  0.2347269535D+00
      0.6401216923D+00  0.8137573261D+00
 Atom H13      Shell    40 S   1     bf  117 -   117         18.645906531558          3.125611767005          3.298160600398
      0.1612777588D+00  0.1000000000D+01
 Atom C14      Shell    41 S   6     bf  118 -   118         15.268692923357         -0.695928668170          2.845295763988
      0.3047524880D+04  0.1834737132D-02
      0.4573695180D+03  0.1403732281D-01
      0.1039486850D+03  0.6884262226D-01
      0.2921015530D+02  0.2321844432D+00
      0.9286662960D+01  0.4679413484D+00
      0.3163926960D+01  0.3623119853D+00
 Atom C14      Shell    42 SP   3    bf  119 -   122         15.268692923357         -0.695928668170          2.845295763988
      0.7868272350D+01 -0.1193324198D+00  0.6899906659D-01
      0.1881288540D+01 -0.1608541517D+00  0.3164239610D+00
      0.5442492580D+00  0.1143456438D+01  0.7443082909D+00
 Atom C14      Shell    43 SP   1    bf  123 -   126         15.268692923357         -0.695928668170          2.845295763988
      0.1687144782D+00  0.1000000000D+01  0.1000000000D+01
 Atom C14      Shell    44 D   1     bf  127 -   132         15.268692923357         -0.695928668170          2.845295763988
      0.8000000000D+00  0.1000000000D+01
 Atom H15      Shell    45 S   3     bf  133 -   133         15.080701474774          0.591928251851          4.464973267265
      0.1873113696D+02  0.3349460434D-01
      0.2825394365D+01  0.2347269535D+00
      0.6401216923D+00  0.8137573261D+00
 Atom H15      Shell    46 S   1     bf  134 -   134         15.080701474774          0.591928251851          4.464973267265
      0.1612777588D+00  0.1000000000D+01
 Atom H16      Shell    47 S   3     bf  135 -   135         16.331715122478         -2.336714034406          3.520299267921
      0.1873113696D+02  0.3349460434D-01
      0.2825394365D+01  0.2347269535D+00
      0.6401216923D+00  0.8137573261D+00
 Atom H16      Shell    48 S   1     bf  136 -   136         16.331715122478         -2.336714034406          3.520299267921
      0.1612777588D+00  0.1000000000D+01
 Atom C17      Shell    49 S   6     bf  137 -   137          8.292081780491         -0.473749447124         -0.035850126748
      0.3047524880D+04  0.1834737132D-02
      0.4573695180D+03  0.1403732281D-01
      0.1039486850D+03  0.6884262226D-01
      0.2921015530D+02  0.2321844432D+00
      0.9286662960D+01  0.4679413484D+00
      0.3163926960D+01  0.3623119853D+00
 Atom C17      Shell    50 SP   3    bf  138 -   141          8.292081780491         -0.473749447124         -0.035850126748
      0.7868272350D+01 -0.1193324198D+00  0.6899906659D-01
      0.1881288540D+01 -0.1608541517D+00  0.3164239610D+00
      0.5442492580D+00  0.1143456438D+01  0.7443082909D+00
 Atom C17      Shell    51 SP   1    bf  142 -   145          8.292081780491         -0.473749447124         -0.035850126748
      0.1687144782D+00  0.1000000000D+01  0.1000000000D+01
 Atom C17      Shell    52 D   1     bf  146 -   151          8.292081780491         -0.473749447124         -0.035850126748
      0.8000000000D+00  0.1000000000D+01
 Atom C18      Shell    53 S   6     bf  152 -   152         16.590161532830          4.582928630774         -1.798686743400
      0.3047524880D+04  0.1834737132D-02
      0.4573695180D+03  0.1403732281D-01
      0.1039486850D+03  0.6884262226D-01
      0.2921015530D+02  0.2321844432D+00
      0.9286662960D+01  0.4679413484D+00
      0.3163926960D+01  0.3623119853D+00
 Atom C18      Shell    54 SP   3    bf  153 -   156         16.590161532830          4.582928630774         -1.798686743400
      0.7868272350D+01 -0.1193324198D+00  0.6899906659D-01
      0.1881288540D+01 -0.1608541517D+00  0.3164239610D+00
      0.5442492580D+00  0.1143456438D+01  0.7443082909D+00
 Atom C18      Shell    55 SP   1    bf  157 -   160         16.590161532830          4.582928630774         -1.798686743400
      0.1687144782D+00  0.1000000000D+01  0.1000000000D+01
 Atom C18      Shell    56 D   1     bf  161 -   166         16.590161532830          4.582928630774         -1.798686743400
      0.8000000000D+00  0.1000000000D+01
 Atom H19      Shell    57 S   3     bf  167 -   167         15.921999857949          6.537399445486         -1.860754004549
      0.1873113696D+02  0.3349460434D-01
      0.2825394365D+01  0.2347269535D+00
      0.6401216923D+00  0.8137573261D+00
 Atom H19      Shell    58 S   1     bf  168 -   168         15.921999857949          6.537399445486         -1.860754004549
      0.1612777588D+00  0.1000000000D+01
 Atom H20      Shell    59 S   3     bf  169 -   169         16.601236612982          3.879530309837         -3.749897383690
      0.1873113696D+02  0.3349460434D-01
      0.2825394365D+01  0.2347269535D+00
      0.6401216923D+00  0.8137573261D+00
 Atom H20      Shell    60 S   1     bf  170 -   170         16.601236612982          3.879530309837         -3.749897383690
      0.1612777588D+00  0.1000000000D+01
 Atom C21      Shell    61 S   6     bf  171 -   171         12.628047715444         -1.601245398035          2.006389925275
      0.3047524880D+04  0.1834737132D-02
      0.4573695180D+03  0.1403732281D-01
      0.1039486850D+03  0.6884262226D-01
      0.2921015530D+02  0.2321844432D+00
      0.9286662960D+01  0.4679413484D+00
      0.3163926960D+01  0.3623119853D+00
 Atom C21      Shell    62 SP   3    bf  172 -   175         12.628047715444         -1.601245398035          2.006389925275
      0.7868272350D+01 -0.1193324198D+00  0.6899906659D-01
      0.1881288540D+01 -0.1608541517D+00  0.3164239610D+00
      0.5442492580D+00  0.1143456438D+01  0.7443082909D+00
 Atom C21      Shell    63 SP   1    bf  176 -   179         12.628047715444         -1.601245398035          2.006389925275
      0.1687144782D+00  0.1000000000D+01  0.1000000000D+01
 Atom C21      Shell    64 D   1     bf  180 -   185         12.628047715444         -1.601245398035          2.006389925275
      0.8000000000D+00  0.1000000000D+01
 Atom H22      Shell    65 S   3     bf  186 -   186         12.869509172827         -3.095299029156          0.595482165303
      0.1873113696D+02  0.3349460434D-01
      0.2825394365D+01  0.2347269535D+00
      0.6401216923D+00  0.8137573261D+00
 Atom H22      Shell    66 S   1     bf  187 -   187         12.869509172827         -3.095299029156          0.595482165303
      0.1612777588D+00  0.1000000000D+01
 Atom H23      Shell    67 S   3     bf  188 -   188         11.695224320961         -2.494923682594          3.625706849908
      0.1873113696D+02  0.3349460434D-01
      0.2825394365D+01  0.2347269535D+00
      0.6401216923D+00  0.8137573261D+00
 Atom H23      Shell    68 S   1     bf  189 -   189         11.695224320961         -2.494923682594          3.625706849908
      0.1612777588D+00  0.1000000000D+01
 Atom C24      Shell    69 S   6     bf  190 -   190         19.250260658699          4.348624038687         -0.580055915140
      0.3047524880D+04  0.1834737132D-02
      0.4573695180D+03  0.1403732281D-01
      0.1039486850D+03  0.6884262226D-01
      0.2921015530D+02  0.2321844432D+00
      0.9286662960D+01  0.4679413484D+00
      0.3163926960D+01  0.3623119853D+00
 Atom C24      Shell    70 SP   3    bf  191 -   194         19.250260658699          4.348624038687         -0.580055915140
      0.7868272350D+01 -0.1193324198D+00  0.6899906659D-01
      0.1881288540D+01 -0.1608541517D+00  0.3164239610D+00
      0.5442492580D+00  0.1143456438D+01  0.7443082909D+00
 Atom C24      Shell    71 SP   1    bf  195 -   198         19.250260658699          4.348624038687         -0.580055915140
      0.1687144782D+00  0.1000000000D+01  0.1000000000D+01
 Atom C24      Shell    72 D   1     bf  199 -   204         19.250260658699          4.348624038687         -0.580055915140
      0.8000000000D+00  0.1000000000D+01
 Atom H25      Shell    73 S   3     bf  205 -   205         20.677369872287          3.867605174178         -2.003995869032
      0.1873113696D+02  0.3349460434D-01
      0.2825394365D+01  0.2347269535D+00
      0.6401216923D+00  0.8137573261D+00
 Atom H25      Shell    74 S   1     bf  206 -   206         20.677369872287          3.867605174178         -2.003995869032
      0.1612777588D+00  0.1000000000D+01
 Atom H26      Shell    75 S   3     bf  207 -   207         19.845041773400          6.142438803555          0.257671811610
      0.1873113696D+02  0.3349460434D-01
      0.2825394365D+01  0.2347269535D+00
      0.6401216923D+00  0.8137573261D+00
 Atom H26      Shell    76 S   1     bf  208 -   208         19.845041773400          6.142438803555          0.257671811610
      0.1612777588D+00  0.1000000000D+01
 Atom C27      Shell    77 S   6     bf  209 -   209         10.689304014192          4.460466610588         -1.793580060882
      0.3047524880D+04  0.1834737132D-02
      0.4573695180D+03  0.1403732281D-01
      0.1039486850D+03  0.6884262226D-01
      0.2921015530D+02  0.2321844432D+00
      0.9286662960D+01  0.4679413484D+00
      0.3163926960D+01  0.3623119853D+00
 Atom C27      Shell    78 SP   3    bf  210 -   213         10.689304014192          4.460466610588         -1.793580060882
      0.7868272350D+01 -0.1193324198D+00  0.6899906659D-01
      0.1881288540D+01 -0.1608541517D+00  0.3164239610D+00
      0.5442492580D+00  0.1143456438D+01  0.7443082909D+00
 Atom C27      Shell    79 SP   1    bf  214 -   217         10.689304014192          4.460466610588         -1.793580060882
      0.1687144782D+00  0.1000000000D+01  0.1000000000D+01
 Atom C27      Shell    80 D   1     bf  218 -   223         10.689304014192          4.460466610588         -1.793580060882
      0.8000000000D+00  0.1000000000D+01
 Atom H28      Shell    81 S   3     bf  224 -   224         11.451643308953          5.270502271690         -3.540822789766
      0.1873113696D+02  0.3349460434D-01
      0.2825394365D+01  0.2347269535D+00
      0.6401216923D+00  0.8137573261D+00
 Atom H28      Shell    82 S   1     bf  225 -   225         11.451643308953          5.270502271690         -3.540822789766
      0.1612777588D+00  0.1000000000D+01
 Atom C29      Shell    83 S   6     bf  226 -   226         21.638727847918          0.815660279758          1.835957112720
      0.3047524880D+04  0.1834737132D-02
      0.4573695180D+03  0.1403732281D-01
      0.1039486850D+03  0.6884262226D-01
      0.2921015530D+02  0.2321844432D+00
      0.9286662960D+01  0.4679413484D+00
      0.3163926960D+01  0.3623119853D+00
 Atom C29      Shell    84 SP   3    bf  227 -   230         21.638727847918          0.815660279758          1.835957112720
      0.7868272350D+01 -0.1193324198D+00  0.6899906659D-01
      0.1881288540D+01 -0.1608541517D+00  0.3164239610D+00
      0.5442492580D+00  0.1143456438D+01  0.7443082909D+00
 Atom C29      Shell    85 SP   1    bf  231 -   234         21.638727847918          0.815660279758          1.835957112720
      0.1687144782D+00  0.1000000000D+01  0.1000000000D+01
 Atom C29      Shell    86 D   1     bf  235 -   240         21.638727847918          0.815660279758          1.835957112720
      0.8000000000D+00  0.1000000000D+01
 Atom H30      Shell    87 S   3     bf  241 -   241         22.179552235957          0.000000000000          0.000000000000
      0.1873113696D+02  0.3349460434D-01
      0.2825394365D+01  0.2347269535D+00
      0.6401216923D+00  0.8137573261D+00
 Atom H30      Shell    88 S   1     bf  242 -   242         22.179552235957          0.000000000000          0.000000000000
      0.1612777588D+00  0.1000000000D+01
 Atom C31      Shell    89 S   6     bf  243 -   243         17.273670410628         -1.114478553548         -1.502196007493
      0.3047524880D+04  0.1834737132D-02
      0.4573695180D+03  0.1403732281D-01
      0.1039486850D+03  0.6884262226D-01
      0.2921015530D+02  0.2321844432D+00
      0.9286662960D+01  0.4679413484D+00
      0.3163926960D+01  0.3623119853D+00
 Atom C31      Shell    90 SP   3    bf  244 -   247         17.273670410628         -1.114478553548         -1.502196007493
      0.7868272350D+01 -0.1193324198D+00  0.6899906659D-01
      0.1881288540D+01 -0.1608541517D+00  0.3164239610D+00
      0.5442492580D+00  0.1143456438D+01  0.7443082909D+00
 Atom C31      Shell    91 SP   1    bf  248 -   251         17.273670410628         -1.114478553548         -1.502196007493
      0.1687144782D+00  0.1000000000D+01  0.1000000000D+01
 Atom C31      Shell    92 D   1     bf  252 -   257         17.273670410628         -1.114478553548         -1.502196007493
      0.8000000000D+00  0.1000000000D+01
 Atom H32      Shell    93 S   3     bf  258 -   258         15.571054301366         -1.904735660641         -2.364343890270
      0.1873113696D+02  0.3349460434D-01
      0.2825394365D+01  0.2347269535D+00
      0.6401216923D+00  0.8137573261D+00
 Atom H32      Shell    94 S   1     bf  259 -   259         15.571054301366         -1.904735660641         -2.364343890270
      0.1612777588D+00  0.1000000000D+01
 Atom H33      Shell    95 S   3     bf  260 -   260         18.335715564647         -0.173315192928         -3.006121473445
      0.1873113696D+02  0.3349460434D-01
      0.2825394365D+01  0.2347269535D+00
      0.6401216923D+00  0.8137573261D+00
 Atom H33      Shell    96 S   1     bf  261 -   261         18.335715564647         -0.173315192928         -3.006121473445
      0.1612777588D+00  0.1000000000D+01
 Atom H34      Shell    97 S   3     bf  262 -   262         18.419650509839         -2.707891301324         -0.846047151564
      0.1873113696D+02  0.3349460434D-01
      0.2825394365D+01  0.2347269535D+00
      0.6401216923D+00  0.8137573261D+00
 Atom H34      Shell    98 S   1     bf  263 -   263         18.419650509839         -2.707891301324         -0.846047151564
      0.1612777588D+00  0.1000000000D+01
 Atom C35      Shell    99 S   6     bf  264 -   264          6.857666129782          1.645107812409         -1.400011580193
      0.3047524880D+04  0.1834737132D-02
      0.4573695180D+03  0.1403732281D-01
      0.1039486850D+03  0.6884262226D-01
      0.2921015530D+02  0.2321844432D+00
      0.9286662960D+01  0.4679413484D+00
      0.3163926960D+01  0.3623119853D+00
 Atom C35      Shell   100 SP   3    bf  265 -   268          6.857666129782          1.645107812409         -1.400011580193
      0.7868272350D+01 -0.1193324198D+00  0.6899906659D-01
      0.1881288540D+01 -0.1608541517D+00  0.3164239610D+00
      0.5442492580D+00  0.1143456438D+01  0.7443082909D+00
 Atom C35      Shell   101 SP   1    bf  269 -   272          6.857666129782          1.645107812409         -1.400011580193
      0.1687144782D+00  0.1000000000D+01  0.1000000000D+01
 Atom C35      Shell   102 D   1     bf  273 -   278          6.857666129782          1.645107812409         -1.400011580193
      0.8000000000D+00  0.1000000000D+01
 Atom C36      Shell   103 S   6     bf  279 -   279          6.691801484488         -1.328521142990          2.288041737901
      0.3047524880D+04  0.1834737132D-02
      0.4573695180D+03  0.1403732281D-01
      0.1039486850D+03  0.6884262226D-01
      0.2921015530D+02  0.2321844432D+00
      0.9286662960D+01  0.4679413484D+00
      0.3163926960D+01  0.3623119853D+00
 Atom C36      Shell   104 SP   3    bf  280 -   283          6.691801484488         -1.328521142990          2.288041737901
      0.7868272350D+01 -0.1193324198D+00  0.6899906659D-01
      0.1881288540D+01 -0.1608541517D+00  0.3164239610D+00
      0.5442492580D+00  0.1143456438D+01  0.7443082909D+00
 Atom C36      Shell   105 SP   1    bf  284 -   287          6.691801484488         -1.328521142990          2.288041737901
      0.1687144782D+00  0.1000000000D+01  0.1000000000D+01
 Atom C36      Shell   106 D   1     bf  288 -   293          6.691801484488         -1.328521142990          2.288041737901
      0.8000000000D+00  0.1000000000D+01
 Atom H37      Shell   107 S   3     bf  294 -   294          6.786677263689          0.165398525445          3.727454542602
      0.1873113696D+02  0.3349460434D-01
      0.2825394365D+01  0.2347269535D+00
      0.6401216923D+00  0.8137573261D+00
 Atom H37      Shell   108 S   1     bf  295 -   295          6.786677263689          0.165398525445          3.727454542602
      0.1612777588D+00  0.1000000000D+01
 Atom H38      Shell   109 S   3     bf  296 -   296          7.555437224239         -3.009083127829          3.132834716025
      0.1873113696D+02  0.3349460434D-01
      0.2825394365D+01  0.2347269535D+00
      0.6401216923D+00  0.8137573261D+00
 Atom H38      Shell   110 S   1     bf  297 -   297          7.555437224239         -3.009083127829          3.132834716025
      0.1612777588D+00  0.1000000000D+01
 Atom C39      Shell   111 S   6     bf  298 -   298          7.957731534244          3.797672230357         -2.174567179615
      0.3047524880D+04  0.1834737132D-02
      0.4573695180D+03  0.1403732281D-01
      0.1039486850D+03  0.6884262226D-01
      0.2921015530D+02  0.2321844432D+00
      0.9286662960D+01  0.4679413484D+00
      0.3163926960D+01  0.3623119853D+00
 Atom C39      Shell   112 SP   3    bf  299 -   302          7.957731534244          3.797672230357         -2.174567179615
      0.7868272350D+01 -0.1193324198D+00  0.6899906659D-01
      0.1881288540D+01 -0.1608541517D+00  0.3164239610D+00
      0.5442492580D+00  0.1143456438D+01  0.7443082909D+00
 Atom C39      Shell   113 SP   1    bf  303 -   306          7.957731534244          3.797672230357         -2.174567179615
      0.1687144782D+00  0.1000000000D+01  0.1000000000D+01
 Atom C39      Shell   114 D   1     bf  307 -   312          7.957731534244          3.797672230357         -2.174567179615
      0.8000000000D+00  0.1000000000D+01
[...]
 1572 Fit      -0.001572
 1573 Fit      -0.002067
 1574 Fit      -0.000572
 1575 Fit       0.000261
 1576 Fit       0.000423
 1577 Fit       0.000400
 1578 Fit      -0.001526
 1579 Fit       0.000326
 1580 Fit       0.001308
 1581 Fit       0.000626
 1582 Fit      -0.002861
 1583 Fit      -0.003187
 1584 Fit      -0.003164
 1585 Fit      -0.002598
 1586 Fit      -0.003220
 1587 Fit      -0.003613
 1588 Fit      -0.001159
 1589 Fit      -0.002428
 1590 Fit      -0.002682
 1591 Fit      -0.002573
 1592 Fit      -0.000591
 1593 Fit      -0.002764
 1594 Fit      -0.000668
 1595 Fit       0.000143
 1596 Fit       0.001155
 1597 Fit      -0.000438
 1598 Fit       0.001052
 1599 Fit       0.001680
 1600 Fit       0.002441
 1601 Fit       0.000846
 1602 Fit       0.002131
 1603 Fit       0.000230
 1604 Fit      -0.000542
 1605 Fit       0.001300
 1606 Fit       0.001389
 1607 Fit      -0.000252
 1608 Fit      -0.001819
 1609 Fit      -0.001993
 1610 Fit      -0.002381
 1611 Fit      -0.000421
 1612 Fit       0.001729
 1613 Fit       0.002019
 1614 Fit       0.000929
 1615 Fit      -0.000642
 1616 Fit      -0.000259
 1617 Fit      -0.001247
 1618 Fit      -0.000804
 1619 Fit      -0.000177
 1620 Fit       0.001244
 1621 Fit       0.001412
 1622 Fit       0.000453
 1623 Fit      -0.002029
 1624 Fit       0.002656
 1625 Fit       0.000995
 1626 Fit      -0.004523
 1627 Fit      -0.015605
 1628 Fit      -0.015055
 1629 Fit      -0.009710
 1630 Fit      -0.022139
 1631 Fit      -0.020952
 1632 Fit      -0.016407
 1633 Fit      -0.008672
 1634 Fit      -0.024672
 1635 Fit      -0.023530
 1636 Fit      -0.019578
 1637 Fit      -0.013137
 1638 Fit      -0.005184
 1639 Fit      -0.023683
 1640 Fit      -0.022494
 1641 Fit      -0.017622
 1642 Fit      -0.016964
 1643 Fit      -0.018158
 1644 Fit      -0.013965
 1645 Fit       0.011709
 1646 Fit       0.004143
 1647 Fit       0.003648
 1648 Fit       0.009726
 1649 Fit       0.015192
 1650 Fit       0.000454
 1651 Fit       0.007608
 1652 Fit       0.012763
 1653 Fit       0.016416
 1654 Fit       0.001020
 1655 Fit       0.006907
 1656 Fit       0.009722
 1657 Fit      -0.014389
 1658 Fit      -0.017982
 1659 Fit      -0.018381
 1660 Fit      -0.022717
 1661 Fit      -0.022046
 1662 Fit      -0.017649
 1663 Fit      -0.011006
 1664 Fit      -0.021047
 1665 Fit      -0.024430
 1666 Fit      -0.023308
 1667 Fit      -0.018663
 1668 Fit      -0.011755
 1669 Fit      -0.004143
 1670 Fit      -0.017780
 1671 Fit      -0.022800
 1672 Fit      -0.023372
 1673 Fit      -0.019997
 1674 Fit      -0.013467
 1675 Fit      -0.004696
 1676 Fit      -0.019156
 1677 Fit      -0.019635
 1678 Fit      -0.014717
 1679 Fit      -0.005352
 1680 Fit      -0.013109
 1681 Fit      -0.011535
 1682 Fit      -0.003028
 1683 Fit      -0.003710
 1684 Fit      -0.000731
 1685 Fit       0.007542
 1686 Fit       0.013044
 1687 Fit       0.007299
 1688 Fit       0.014154
 1689 Fit       0.018980
 1690 Fit       0.000555
 1691 Fit       0.009892
 1692 Fit       0.016950
 1693 Fit       0.021786
 1694 Fit       0.025257
 1695 Fit       0.004580
 1696 Fit       0.011021
 1697 Fit       0.018511
 1698 Fit       0.022373
 1699 Fit       0.015217
 1700 Fit      -0.000918
 1701 Fit      -0.000227
 1702 Fit      -0.006080
 1703 Fit      -0.009907
 1704 Fit      -0.015783
 1705 Fit       0.004663
 1706 Fit       0.004626
 1707 Fit       0.003796
 1708 Fit       0.006418
 1709 Fit       0.005309
 1710 Fit       0.007542
 1711 Fit       0.007106
 1712 Fit       0.010508
 1713 Fit       0.005409
 1714 Fit       0.017235
 1715 Fit       0.002067
 1716 Fit       0.001275
 1717 Fit       0.001209
 1718 Fit      -0.000283
 1719 Fit      -0.000999
 1720 Fit      -0.000492
 1721 Fit      -0.004136
 1722 Fit       0.002112
 1723 Fit       0.000584
 1724 Fit       0.002461
 1725 Fit       0.001669
 1726 Fit       0.002526
 1727 Fit       0.003530
 1728 Fit       0.003822
 1729 Fit       0.002415
 1730 Fit       0.000936
 1731 Fit       0.002239
 1732 Fit       0.002769
 1733 Fit       0.004848
 1734 Fit       0.005968
 1735 Fit       0.002142
 1736 Fit       0.001102
 1737 Fit       0.003532
 1738 Fit       0.002565
 1739 Fit       0.004535
 1740 Fit       0.004580
 1741 Fit       0.004937
 1742 Fit       0.005521
 1743 Fit      -0.003205
 1744 Fit      -0.004679
 1745 Fit      -0.005033
 1746 Fit      -0.017904
 1747 Fit      -0.009381
 1748 Fit      -0.017097
 1749 Fit      -0.006003
 1750 Fit      -0.007684
 1751 Fit      -0.012208
 1752 Fit      -0.006030
 1753 Fit      -0.007601
 1754 Fit      -0.009520
 1755 Fit      -0.004960
 1756 Fit       0.000835
 1757 Fit      -0.002003
 1758 Fit       0.001029
 1759 Fit      -0.000809
 1760 Fit      -0.000158
 1761 Fit       0.002425
 1762 Fit       0.003183
 1763 Fit       0.002662
 1764 Fit       0.001522
 1765 Fit       0.004510
 1766 Fit       0.007871
 1767 Fit       0.005342
 1768 Fit       0.007723
 1769 Fit       0.005650
 1770 Fit       0.005026
 1771 Fit       0.006461
 1772 Fit       0.004645
 1773 Fit       0.005992
 1774 Fit       0.005207
 1775 Fit       0.005919
 1776 Fit       0.006801
 1777 Fit       0.006702
 1778 Fit       0.004821
 1779 Fit       0.006913
 1780 Fit       0.004924
 1781 Fit       0.007936
 1782 Fit       0.005493
 1783 Fit      -0.003087
 1784 Fit      -0.004649
 1785 Fit      -0.004052
 1786 Fit       0.000237
 1787 Fit      -0.001911
 1788 Fit       0.001280
 1789 Fit      -0.000266
 1790 Fit      -0.002490
 1791 Fit       0.002322
 1792 Fit       0.001211
 1793 Fit      -0.000825
 1794 Fit       0.002669
 1795 Fit       0.000910
 1796 Fit      -0.001724
 1797 Fit      -0.002935
 1798 Fit      -0.001498
 1799 Fit      -0.003371
 1800 Fit      -0.006826
 1801 Fit      -0.001027
 1802 Fit      -0.002311
 1803 Fit      -0.004959
 1804 Fit      -0.001768
 1805 Fit      -0.003152
 1806 Fit      -0.005570
 1807 Fit      -0.003880
 1808 Fit      -0.012099
 1809 Fit      -0.012211
 1810 Fit      -0.002515
 1811 Fit      -0.003460
 1812 Fit      -0.003401
 1813 Fit      -0.000407
 1814 Fit       0.002182
 1815 Fit       0.000663
 1816 Fit       0.001130
 1817 Fit       0.001977
 1818 Fit       0.002673
 1819 Fit       0.003890
 1820 Fit       0.002626
 1821 Fit       0.000863
 1822 Fit       0.000625
 1823 Fit       0.001351
 1824 Fit       0.001835
 1825 Fit       0.002196
 1826 Fit       0.001791
 1827 Fit       0.004444
 1828 Fit       0.003524
 1829 Fit       0.001851
 1830 Fit       0.000757
 1831 Fit       0.000368
 1832 Fit       0.000509
 1833 Fit       0.001630
 1834 Fit       0.000343
 1835 Fit       0.003540
 1836 Fit       0.002142
 1837 Fit       0.000937
 1838 Fit       0.005042
 1839 Fit       0.004057
 1840 Fit       0.007216
 1841 Fit       0.004858
 1842 Fit       0.003153
 1843 Fit       0.002652
 1844 Fit       0.001361
 1845 Fit       0.002635
 1846 Fit       0.003092
 1847 Fit       0.002758
 1848 Fit       0.001576
 1849 Fit       0.002541
 1850 Fit       0.004340
 1851 Fit       0.004166
 1852 Fit       0.003017
 1853 Fit       0.002920
 1854 Fit       0.002840
 1855 Fit       0.002349
 1856 Fit       0.001461
 1857 Fit       0.001214
 1858 Fit       0.000766
 1859 Fit       0.006428
 1860 Fit       0.006197
 1861 Fit       0.006156
 1862 Fit       0.006573
 1863 Fit       0.006900
 1864 Fit       0.008180
 1865 Fit       0.007562
 1866 Fit       0.006327
 1867 Fit       0.011637
 1868 Fit       0.010498
 1869 Fit       0.008234
 1870 Fit       0.006350
 1871 Fit       0.013532
 1872 Fit       0.006449
 1873 Fit       0.007005
 1874 Fit       0.007792
 1875 Fit       0.007350
 1876 Fit       0.008116
 1877 Fit       0.008825
 1878 Fit       0.008681
 1879 Fit       0.009364
 1880 Fit       0.009698
 1881 Fit       0.001817
 1882 Fit       0.002283
 1883 Fit       0.001650
 1884 Fit       0.000446
 1885 Fit      -0.001122
 1886 Fit      -0.000187
 1887 Fit      -0.000057
 1888 Fit       0.000656
 1889 Fit      -0.003798
 1890 Fit       0.000852
 1891 Fit      -0.006549
 1892 Fit      -0.000892
 1893 Fit       0.002384
 1894 Fit      -0.000950
 1895 Fit       0.001183
 1896 Fit       0.003397
 1897 Fit       0.004913
 1898 Fit       0.001702
 1899 Fit       0.002789
 1900 Fit       0.003044
 1901 Fit       0.001400
 1902 Fit       0.007670
 1903 Fit       0.006192
 1904 Fit       0.005303
 1905 Fit       0.005487
 1906 Fit       0.005959
 1907 Fit       0.005155
 1908 Fit       0.003588
 1909 Fit       0.006137
 1910 Fit       0.009650
 1911 Fit       0.008775
 1912 Fit       0.009330
 1913 Fit       0.008579
 1914 Fit       0.008313
 1915 Fit       0.008064
 1916 Fit       0.007481
 1917 Fit       0.007200
 1918 Fit       0.007125
 1919 Fit       0.005819
 1920 Fit       0.021466
 1921 Fit       0.014012
 1922 Fit       0.009427
 1923 Fit       0.017069
 1924 Fit       0.012379
 1925 Fit       0.008455
 1926 Fit       0.011230
 1927 Fit       0.009085
 1928 Fit       0.006779
 1929 Fit       0.005593
 1930 Fit       0.006673
 1931 Fit       0.006671
 1932 Fit       0.005717
 1933 Fit       0.003439
 1934 Fit       0.005438
 1935 Fit       0.005907
 1936 Fit       0.005445
 1937 Fit       0.000686
 1938 Fit       0.001089
 1939 Fit       0.001141
 1940 Fit       0.001212
 1941 Fit      -0.003718
 1942 Fit       0.003069
 1943 Fit      -0.000779
 1944 Fit      -0.006659
 1945 Fit       0.004344
 1946 Fit       0.001438
 1947 Fit      -0.001274
 1948 Fit       0.003553
 1949 Fit       0.003032
 1950 Fit       0.002370
 1951 Fit       0.013453
 1952 Fit       0.016818
 1953 Fit       0.015590
 1954 Fit       0.004412
 1955 Fit       0.007780
 1956 Fit       0.010801
 1957 Fit       0.008994
 1958 Fit       0.006444
 1959 Fit       0.005933
 1960 Fit      -0.000723
 1961 Fit       0.004584
 1962 Fit       0.006374
 1963 Fit       0.007717
 1964 Fit       0.007880
 1965 Fit       0.008304
 1966 Fit       0.008856
 1967 Fit       0.013368
 1968 Fit       0.011475
 1969 Fit       0.010644
 1970 Fit       0.019519
 1971 Fit       0.014846
 1972 Fit       0.021723
 1973 Fit       0.004791
 1974 Fit       0.005832
 1975 Fit       0.002931
 1976 Fit       0.002092
 1977 Fit       0.004247
 1978 Fit       0.005849
 1979 Fit      -0.002441
 1980 Fit      -0.004339
 1981 Fit      -0.000916
 1982 Fit       0.002775
 1983 Fit       0.004973
 1984 Fit       0.006542
 1985 Fit      -0.002897
 1986 Fit       0.002371
 1987 Fit       0.004765
 1988 Fit      -0.000128
 1989 Fit       0.000366
 1990 Fit       0.000772
 1991 Fit       0.000185
 1992 Fit       0.001064
 1993 Fit       0.001784
 1994 Fit       0.000563
 1995 Fit      -0.000699
 1996 Fit      -0.001085
 1997 Fit       0.004539
 1998 Fit       0.007140
 1999 Fit       0.001650
 2000 Fit      -0.002646
 2001 Fit       0.008270
 2002 Fit       0.002746
 2003 Fit      -0.003344
 2004 Fit      -0.011078
 2005 Fit       0.011935
 2006 Fit       0.005336
 2007 Fit       0.000184
 2008 Fit      -0.006807
 2009 Fit       0.002634
 2010 Fit      -0.001293
 2011 Fit      -0.010384
 2012 Fit      -0.000197
 2013 Fit      -0.000886
 2014 Fit      -0.000909
 2015 Fit       0.000931
 2016 Fit      -0.000340
 2017 Fit      -0.000567
 2018 Fit       0.000008
 2019 Fit       0.000442
 2020 Fit       0.000771
 2021 Fit       0.001298
 2022 Fit       0.000686
 2023 Fit       0.001525
 2024 Fit       0.002018
 2025 Fit       0.001622
 2026 Fit       0.000695
 2027 Fit       0.000047
 2028 Fit       0.002125
 2029 Fit       0.002207
 2030 Fit       0.001552
 2031 Fit       0.000548
 2032 Fit       0.000229
 2033 Fit       0.001244
 2034 Fit      -0.000094
 2035 Fit       0.000605
 2036 Fit       0.001777
 2037 Fit       0.000456
 2038 Fit       0.001476
 2039 Fit       0.000358
 2040 Fit       0.001036
 2041 Fit       0.000722
 2042 Fit       0.000147
 2043 Fit      -0.000055
 2044 Fit       0.001059
 2045 Fit       0.003200
 2046 Fit       0.001012
 2047 Fit       0.004329
 2048 Fit       0.002079
 2049 Fit       0.002179
 2050 Fit      -0.000587
 2051 Fit      -0.000264
 2052 Fit      -0.000879
 2053 Fit      -0.000850
 2054 Fit       0.001421
 2055 Fit       0.001831
 2056 Fit       0.000540
 2057 Fit      -0.000261
 2058 Fit       0.000501
 2059 Fit      -0.000562
 2060 Fit       0.000165
 2061 Fit       0.000146
 2062 Fit      -0.000125
 2063 Fit      -0.000401
 2064 Fit      -0.000529
 2065 Fit       0.001274
 2066 Fit       0.000996
 2067 Fit       0.000473
 2068 Fit       0.000588
 2069 Fit       0.000282
 2070 Fit       0.001091
 2071 Fit       0.001916
 2072 Fit       0.001407
 2073 Fit       0.001382
 2074 Fit      -0.003098
 2075 Fit      -0.002391
 2076 Fit       0.000358
 2077 Fit      -0.002382
 2078 Fit      -0.001205
 2079 Fit       0.000353
 2080 Fit       0.000838
 2081 Fit       0.000726
 2082 Fit      -0.000982
 2083 Fit       0.000115
 2084 Fit       0.000667
 2085 Fit       0.000686
 2086 Fit       0.000111
 2087 Fit      -0.000948
 2088 Fit       0.000079
 2089 Fit       0.001658
 2090 Fit      -0.000169
 2091 Fit       0.000945
 2092 Fit       0.001509
 2093 Fit       0.000423
 2094 Fit      -0.000361
 2095 Fit       0.000590
 2096 Fit       0.000857
 2097 Fit      -0.000760
 2098 Fit      -0.002386
 2099 Fit      -0.000271
 2100 Fit      -0.000087
 2101 Fit      -0.001842
 2102 Fit      -0.001125
 2103 Fit      -0.000460
 2104 Fit      -0.000138
 2105 Fit       0.000338
 2106 Fit      -0.001231
 2107 Fit      -0.000475
 2108 Fit      -0.000063
 2109 Fit      -0.001490
 2110 Fit      -0.000908
 2111 Fit      -0.001227
 2112 Fit      -0.000970
 2113 Fit      -0.002493
 2114 Fit      -0.002721
 2115 Fit      -0.003169
 2116 Fit      -0.002839
 2117 Fit      -0.002151
 2118 Fit      -0.003307
 2119 Fit      -0.003034
 2120 Fit      -0.002916
 2121 Fit      -0.002704
 2122 Fit      -0.001272
 2123 Fit      -0.000375
 2124 Fit      -0.000331
 2125 Fit      -0.001792
 2126 Fit       0.001525
 2127 Fit       0.000684
 2128 Fit      -0.000183
 2129 Fit      -0.001666
 2130 Fit       0.001529
 2131 Fit       0.000821
 2132 Fit      -0.000884
 2133 Fit      -0.002372
 2134 Fit       0.000025
 2135 Fit      -0.002280
 2136 Fit      -0.000244
 2137 Fit       0.000750
 2138 Fit       0.001321
 2139 Fit      -0.001846
 2140 Fit      -0.000793
 2141 Fit       0.000064
 2142 Fit       0.000468
 2143 Fit       0.000511
 2144 Fit       0.000558
 2145 Fit      -0.002488
 2146 Fit      -0.001637
 2147 Fit      -0.001068
 2148 Fit      -0.000884
 2149 Fit      -0.000938
 2150 Fit      -0.000854
 2151 Fit      -0.002402
 2152 Fit      -0.002129
 2153 Fit      -0.001336
 2154 Fit      -0.000937
 2155 Fit      -0.000859
 2156 Fit      -0.000816
 2157 Fit      -0.001533
 2158 Fit      -0.000483
 2159 Fit       0.000135
 2160 Fit       0.000315
 2161 Fit       0.000512
 2162 Fit      -0.001235
 2163 Fit       0.000009
 2164 Fit       0.000771
 2165 Fit       0.000315
 2166 Fit      -0.002051
 2167 Fit      -0.002313
 2168 Fit      -0.002277
 2169 Fit      -0.001352
 2170 Fit      -0.002065
 2171 Fit      -0.002485
 2172 Fit      -0.002423
 2173 Fit      -0.002484
 2174 Fit      -0.000847
 2175 Fit      -0.001930
 2176 Fit      -0.000961
 2177 Fit      -0.001104
 2178 Fit      -0.001077
 2179 Fit      -0.000566
 2180 Fit       0.000205
 2181 Fit      -0.001273
 2182 Fit      -0.000425
 2183 Fit       0.000472
 2184 Fit       0.000750
 2185 Fit       0.001391
 2186 Fit       0.000117
 2187 Fit       0.001074
 2188 Fit       0.001522
 2189 Fit      -0.000017
 2190 Fit      -0.000495
 2191 Fit       0.000757
 2192 Fit       0.000847
 2193 Fit      -0.000228
 2194 Fit      -0.001309
 2195 Fit      -0.001473
 2196 Fit      -0.001590
 2197 Fit      -0.000221
 2198 Fit       0.001163
 2199 Fit       0.001429
 2200 Fit       0.000734
 2201 Fit      -0.000322
 2202 Fit      -0.002070
 2203 Fit       0.000340
 2204 Fit      -0.000514
 2205 Fit      -0.001211
 2206 Fit      -0.001018
 2207 Fit      -0.000432
 2208 Fit       0.000583
 2209 Fit       0.000646
 2210 Fit      -0.000122
 2211 Fit       0.001489
 2212 Fit       0.001055
 2213 Fit       0.001213
 2214 Fit      -0.000223
 -----------------------------------------------------------------
 Leave Link  602 at Thu May 18 14:33:52 2017, MaxMem=   33554432 cpu:      17.2
 (Enter /scratch/michal/g09/l9999.exe)

 Test job not archived.
 1\1\GINC-RZEPICHA\SP\RHF\6-31G(d)\C27H46O2\MICHAL\18-May-2017\0\\#P HF
 /6-31G* SCF(Conver=6) NoSymm Test Pop=mk IOp(6/33=2) GFInput GFPrint\\
 MEP - Input generated by R.E.D.-III.x MOLECULE\\0,1\O,0,5.76413229,3.4
 4765898,0.\H,0,5.12679706,3.29048055,0.70943329\O,0,0.,0.,0.\H,0,-0.08
 31359,-0.74357082,-0.61348036\C,0,8.81942475,0.3719665,0.37194715\C,0,
 7.895723,1.54659049,-0.0560904\H,0,7.71742998,2.12783914,0.85985283\C,
 0,6.50979741,1.13274185,-0.56596973\H,0,6.62591286,0.54864228,-1.49051
 969\C,0,5.77696123,0.2699344,0.49212415\H,0,5.5544716,0.94810777,1.332
 79424\C,0,10.10328765,1.17591179,0.7813748\H,0,9.86698877,1.65400251,1
 .74531142\C,0,8.0798443,-0.36826959,1.50566567\H,0,7.98036351,0.313234
 94,2.36276209\H,0,8.64237142,-1.23653581,1.86286214\C,0,4.38798069,-0.
 25069741,-0.01897107\C,0,8.77913537,2.42518138,-0.95182403\H,0,8.42555
 944,3.45944279,-0.98466861\H,0,8.78499605,2.05295902,-1.98436023\C,0,6
 .68247504,-0.84734257,1.06173582\H,0,6.81025094,-1.6379617,0.31511559\
 H,0,6.18884616,-1.32025675,1.91864143\C,0,10.1867992,2.30119273,-0.306
 95237\H,0,10.94199287,2.04664851,-1.06046894\H,0,10.50154381,3.2504386
 2,0.13635405\C,0,5.65653606,2.36037727,-0.94912169\H,0,6.05994864,2.78
 902968,-1.87372272\C,0,11.4507216,0.43162883,0.97154666\H,0,11.7369135
 4,0.,0.\C,0,9.14083269,-0.58975665,-0.79492789\H,0,8.23984705,-1.00794
 27,-1.2511569\H,0,9.70284278,-0.09171445,-1.59077097\H,0,9.74725924,-1
 .43295436,-0.44770887\C,0,3.62892062,0.87055356,-0.74085422\C,0,3.5411
 4883,-0.70302311,1.21077954\H,0,3.59135493,0.08752513,1.97248399\H,0,3
 .99816518,-1.59233821,1.65782473\C,0,4.21105016,2.00964159,-1.15073139
 \H,0,3.60350144,2.77190687,-1.63772527\C,0,4.55002774,-1.44091711,-1.0
 0351829\H,0,4.91833717,-2.3344118,-0.49055864\H,0,3.59943189,-1.707982
 25,-1.47178998\H,0,5.2482131,-1.19616849,-1.80964417\C,0,2.15084897,0.
 64143935,-0.99830979\H,0,1.6963226,1.54250162,-1.42164269\H,0,2.022422
 57,-0.15741033,-1.74610792\C,0,2.06200567,-0.98965836,0.91062129\H,0,1
 .96637254,-1.85411325,0.23709083\H,0,1.53593323,-1.25307144,1.83519664
 \C,0,12.56292337,1.43474465,1.36787915\H,0,12.5456008,2.28400018,0.674
 82949\H,0,12.32175484,1.84632843,2.35877583\C,0,1.38714124,0.22128059,
 0.2668364\H,0,1.39257674,1.0558231,0.97883875\C,0,11.3742755,-0.715090
 42,1.99490864\H,0,11.02101878,-0.34972372,2.96762462\H,0,12.35534117,-
 1.1739108,2.14944935\H,0,10.6989685,-1.51085436,1.67312762\C,0,13.9909
 8204,0.86265627,1.36920444\H,0,14.10853463,0.12053123,2.16719866\H,0,1
 4.15153757,0.31835839,0.4275869\C,0,15.0949301,1.92915413,1.49407068\H
 ,0,15.01297187,2.61807465,0.64089839\H,0,16.0733692,1.4362876,1.392914
 3\C,0,15.10821726,2.76360633,2.7926342\H,0,14.13680734,3.27000309,2.88
 565087\C,0,16.1892899,3.85331995,2.71178695\H,0,17.18823899,3.40733612
 ,2.6215809\H,0,16.18714149,4.48393868,3.60821335\H,0,16.03624907,4.504
 29754,1.84331745\C,0,15.30996393,1.89646737,4.04544039\H,0,16.25970144
 ,1.34840573,3.99078455\H,0,15.33597103,2.51546132,4.94951193\H,0,14.50
 83517,1.16173995,4.1731417\\Version=EM64L-G09RevC.01\HF=-1198.9272223\
 RMSD=4.832e-07\Dipole=0.0725207,-0.9981141,-0.1572408\Quadrupole=-5.76
 24482,-0.6268613,6.3893095,-8.6068319,0.3160788,1.5489914\PG=C01 [X(C2
 7H46O2)]\\@


 WE ARE PERHAPS NOT FAR REMOVED FROM THE TIME WHEN WE SHALL BE ABLE TO SUBMIT
 THE BULK OF CHEMICAL PHENOMENA TO CALCULATION.

            -- JOSEPH LOUIS GAY-LUSSAC
               MEMOIRES DE LA SOCIETE D'ARCUEIL, 2, 207 (1808)
 Job cpu time:  0 days  0 hours 38 minutes 56.0 seconds.
 File lengths (MBytes):  RWF=    151 Int=      0 D2E=      0 Chk=     11 Scr=      1
 Normal termination of Gaussian 09 at Thu May 18 14:33:52 2017.
