 Entering Gaussian System, Link 0=/scratch/michal/g09//g09
 Input=JOB2-gau_m1-13-2.com
 Output=JOB2-gau_m1-13-2.log
 Initial command:
 /scratch/michal/g09/l1.exe /scratch/michal/gauss_scratch/Gau-23865.inp -scrdir=/scratch/michal/gauss_scratch/
 Entering Link 1 = /scratch/michal/g09/l1.exe PID=     23867.
  
 Copyright (c) 1988,1990,1992,1993,1995,1998,2003,2009,2011,
            Gaussian, Inc.  All Rights Reserved.
  
 This is part of the Gaussian(R) 09 program.  It is based on
 the Gaussian(R) 03 system (copyright 2003, Gaussian, Inc.),
 the Gaussian(R) 98 system (copyright 1998, Gaussian, Inc.),
 the Gaussian(R) 94 system (copyright 1995, Gaussian, Inc.),
 the Gaussian 92(TM) system (copyright 1992, Gaussian, Inc.),
 the Gaussian 90(TM) system (copyright 1990, Gaussian, Inc.),
 the Gaussian 88(TM) system (copyright 1988, Gaussian, Inc.),
 the Gaussian 86(TM) system (copyright 1986, Carnegie Mellon
 University), and the Gaussian 82(TM) system (copyright 1983,
 Carnegie Mellon University). Gaussian is a federally registered
 trademark of Gaussian, Inc.
  
 This software contains proprietary and confidential information,
 including trade secrets, belonging to Gaussian, Inc.
  
 This software is provided under written license and may be
 used, copied, transmitted, or stored only in accord with that
 written license.
  
 The following legend is applicable only to US Government
 contracts under FAR:
  
                    RESTRICTED RIGHTS LEGEND
  
 Use, reproduction and disclosure by the US Government is
 subject to restrictions as set forth in subparagraphs (a)
 and (c) of the Commercial Computer Software - Restricted
 Rights clause in FAR 52.227-19.
  
 Gaussian, Inc.
 340 Quinnipiac St., Bldg. 40, Wallingford CT 06492
  
  
 ---------------------------------------------------------------
 Warning -- This program may not be used in any manner that
 competes with the business of Gaussian, Inc. or will provide
 assistance to any competitor of Gaussian, Inc.  The licensee
 of this program is prohibited from giving any competitor of
 Gaussian, Inc. access to this program.  By using this program,
 the user acknowledges that Gaussian, Inc. is engaged in the
 business of creating and licensing software in the field of
 computational chemistry and represents and warrants to the
 licensee that it is not a competitor of Gaussian, Inc. and that
 it will not use this program in any manner prohibited above.
 ---------------------------------------------------------------
  

 Cite this work as:
 Gaussian 09, Revision C.01,
 M. J. Frisch, G. W. Trucks, H. B. Schlegel, G. E. Scuseria, 
 M. A. Robb, J. R. Cheeseman, G. Scalmani, V. Barone, B. Mennucci, 
 G. A. Petersson, H. Nakatsuji, M. Caricato, X. Li, H. P. Hratchian, 
 A. F. Izmaylov, J. Bloino, G. Zheng, J. L. Sonnenberg, M. Hada, 
 M. Ehara, K. Toyota, R. Fukuda, J. Hasegawa, M. Ishida, T. Nakajima, 
 Y. Honda, O. Kitao, H. Nakai, T. Vreven, J. A. Montgomery, Jr., 
 J. E. Peralta, F. Ogliaro, M. Bearpark, J. J. Heyd, E. Brothers, 
 K. N. Kudin, V. N. Staroverov, T. Keith, R. Kobayashi, J. Normand, 
 K. Raghavachari, A. Rendell, J. C. Burant, S. S. Iyengar, J. Tomasi, 
 M. Cossi, N. Rega, J. M. Millam, M. Klene, J. E. Knox, J. B. Cross, 
 V. Bakken, C. Adamo, J. Jaramillo, R. Gomperts, R. E. Stratmann, 
 O. Yazyev, A. J. Austin, R. Cammi, C. Pomelli, J. W. Ochterski, 
 R. L. Martin, K. Morokuma, V. G. Zakrzewski, G. A. Voth, 
 P. Salvador, J. J. Dannenberg, S. Dapprich, A. D. Daniels, 
 O. Farkas, J. B. Foresman, J. V. Ortiz, J. Cioslowski, 
 and D. J. Fox, Gaussian, Inc., Wallingford CT, 2010.
 
 ******************************************
 Gaussian 09:  EM64L-G09RevC.01 23-Sep-2011
                18-May-2017 
 ******************************************
 %Mem=256MB
 %NProc=48
 Will use up to   48 processors via shared memory.
 ----------------------------------------------------------------------
 #P HF/6-31G* SCF(Conver=6) NoSymm Test Pop=mk IOp(6/33=2) GFInput GFPr
 int
 ----------------------------------------------------------------------
 1/38=1/1;
 2/12=2,15=1,17=6,18=5,40=1/2;
 3/5=1,6=6,7=1,11=9,16=1,24=110,25=1,30=1/1,2,3;
 4//1;
 5/5=2,6=6,38=5/2;
 6/7=2,8=2,9=2,10=2,15=8,20=1,28=1,33=2/1,2;
 99/5=1,9=1/99;
 Leave Link    1 at Thu May 18 13:27:29 2017, MaxMem=   33554432 cpu:       6.8
 (Enter /scratch/michal/g09/l101.exe)
 ----------------------------------------------
 MEP - Input generated by R.E.D.-III.x MOLECULE
 ----------------------------------------------
 Charge =  0 Multiplicity = 1
 Symbolic Z-Matrix:
 O                     6.74169   0.90265   0. 
 H                     7.08724   0.        0. 
 O                     9.64327  -2.6621    4.89789 
 H                     9.3941   -2.46297   5.81137 
 C                     2.50118   0.60639   0.8987 
 C                     3.95266   1.06152   0.6006 
 H                     4.2895    0.44244  -0.24231 
 C                     4.94847   0.79179   1.73391 
 H                     4.66775   1.38892   2.61347 
 C                     4.93779  -0.71398   2.1121 
 H                     5.37884  -1.24091   1.24964 
 C                     1.81916   1.05406  -0.43242 
 H                     2.26055   0.38849  -1.18798 
 C                     2.54052  -0.91326   1.13317 
 H                     2.86643  -1.40536   0.20546 
 H                     1.54263  -1.30933   1.36481 
 C                     5.87603  -1.02644   3.33059 
 C                     3.80028   2.49042   0.04598 
 H                     4.6273    2.75341  -0.61935 
 H                     3.79309   3.23014   0.85682 
 C                     3.50511  -1.28285   2.27928 
 H                     3.07353  -0.93255   3.22215 
 H                     3.55347  -2.37488   2.35866 
 C                     2.42472   2.46853  -0.69235 
 H                     1.77491   3.25786  -0.30466 
 H                     2.5365    2.65869  -1.76479 
 C                     6.37526   1.24342   1.35797 
 H                     6.40371   2.33923   1.36163 
 C                     0.27734   0.88015  -0.59815 
 H                     0.        0.        0. 
 C                     1.89246   1.32202   2.12448 
 H                     2.47836   1.15907   3.03269 
 H                     1.82292   2.40354   1.97838 
 H                     0.88291   0.94802   2.32404 
 C                     7.21474  -0.29161   3.17753 
 C                     6.15992  -2.5603    3.36265 
 H                     6.44034  -2.87947   2.34913 
 H                     5.23649  -3.09439   3.61055 
 C                     7.40971   0.713     2.30735 
 H                     8.39511   1.17293   2.23845 
 C                     5.23252  -0.58992   4.67514 
 H                     4.37084  -1.2158    4.92595 
 H                     5.9397   -0.67005   5.50445 
 H                     4.89977   0.45162   4.63555 
 C                     8.35002  -0.74077   4.07923 
 H                     9.27472  -0.2207    3.81063 
 H                     8.127    -0.46801   5.12312 
 C                     7.27128  -2.99529   4.33005 
 H                     6.97527  -2.79604   5.37059 
 H                     7.43426  -4.07618   4.25208 
 C                    -0.57997   2.07296  -0.1111 
 H                    -0.28419   2.35013   0.90578 
 H                    -0.35245   2.94623  -0.73636 
 C                     8.57761  -2.25943   4.03386 
 H                     8.9268   -2.53684   3.03159 
 C                    -0.04659   0.54242  -2.06839 
 H                     0.21145   1.37967  -2.72927 
 H                    -1.10736   0.31917  -2.21701 
 H                     0.52126  -0.33231  -2.40368 
 C                    -2.11113   1.87351  -0.1504 
 H                    -2.57821   2.81184   0.17509 
 H                    -2.43409   1.73919  -1.1899 
 C                    -2.68195   0.70795   0.6789 
 H                    -2.26802  -0.23934   0.30765 
 H                    -3.7645    0.65212   0.4905 
 C                    -2.46583   0.77005   2.20569 
 H                    -1.38522   0.82576   2.39902 
 C                    -2.98638  -0.51564   2.86838 
 H                    -4.06728  -0.62528   2.71223 
 H                    -2.80654  -0.50828   3.94956 
 H                    -2.49929  -1.40541   2.45289 
 C                    -3.11979   2.00647   2.843 
 H                    -4.20192   2.01281   2.65798 
 H                    -2.96904   2.0129    3.92854 
 H                    -2.70902   2.94137   2.44861 
 
 NAtoms=     75 NQM=        0 NQMF=       0 NMMI=     75 NMMIF=      0
                NMic=       0 NMicF=      0.
                    Isotopes and Nuclear Properties:
 (Nuclear quadrupole moments (NQMom) in fm**2, nuclear magnetic moments (NMagM)
  in nuclear magnetons)

  Atom         1           2           3           4           5           6           7           8           9          10
 IAtWgt=          16           1          16           1          12          12           1          12           1          12
 AtmWgt=  15.9949146   1.0078250  15.9949146   1.0078250  12.0000000  12.0000000   1.0078250  12.0000000   1.0078250  12.0000000
 NucSpn=           0           1           0           1           0           0           1           0           1           0
 AtZEff=   0.0000000   0.0000000   0.0000000   0.0000000   0.0000000   0.0000000   0.0000000   0.0000000   0.0000000   0.0000000
 NQMom=    0.0000000   0.0000000   0.0000000   0.0000000   0.0000000   0.0000000   0.0000000   0.0000000   0.0000000   0.0000000
 NMagM=    0.0000000   2.7928460   0.0000000   2.7928460   0.0000000   0.0000000   2.7928460   0.0000000   2.7928460   0.0000000

  Atom        11          12          13          14          15          16          17          18          19          20
 IAtWgt=           1          12           1          12           1           1          12          12           1           1
 AtmWgt=   1.0078250  12.0000000   1.0078250  12.0000000   1.0078250   1.0078250  12.0000000  12.0000000   1.0078250   1.0078250
 NucSpn=           1           0           1           0           1           1           0           0           1           1
 AtZEff=   0.0000000   0.0000000   0.0000000   0.0000000   0.0000000   0.0000000   0.0000000   0.0000000   0.0000000   0.0000000
 NQMom=    0.0000000   0.0000000   0.0000000   0.0000000   0.0000000   0.0000000   0.0000000   0.0000000   0.0000000   0.0000000
 NMagM=    2.7928460   0.0000000   2.7928460   0.0000000   2.7928460   2.7928460   0.0000000   0.0000000   2.7928460   2.7928460

  Atom        21          22          23          24          25          26          27          28          29          30
 IAtWgt=          12           1           1          12           1           1          12           1          12           1
 AtmWgt=  12.0000000   1.0078250   1.0078250  12.0000000   1.0078250   1.0078250  12.0000000   1.0078250  12.0000000   1.0078250
 NucSpn=           0           1           1           0           1           1           0           1           0           1
 AtZEff=   0.0000000   0.0000000   0.0000000   0.0000000   0.0000000   0.0000000   0.0000000   0.0000000   0.0000000   0.0000000
 NQMom=    0.0000000   0.0000000   0.0000000   0.0000000   0.0000000   0.0000000   0.0000000   0.0000000   0.0000000   0.0000000
 NMagM=    0.0000000   2.7928460   2.7928460   0.0000000   2.7928460   2.7928460   0.0000000   2.7928460   0.0000000   2.7928460

  Atom        31          32          33          34          35          36          37          38          39          40
 IAtWgt=          12           1           1           1          12          12           1           1          12           1
 AtmWgt=  12.0000000   1.0078250   1.0078250   1.0078250  12.0000000  12.0000000   1.0078250   1.0078250  12.0000000   1.0078250
 NucSpn=           0           1           1           1           0           0           1           1           0           1
 AtZEff=   0.0000000   0.0000000   0.0000000   0.0000000   0.0000000   0.0000000   0.0000000   0.0000000   0.0000000   0.0000000
 NQMom=    0.0000000   0.0000000   0.0000000   0.0000000   0.0000000   0.0000000   0.0000000   0.0000000   0.0000000   0.0000000
 NMagM=    0.0000000   2.7928460   2.7928460   2.7928460   0.0000000   0.0000000   2.7928460   2.7928460   0.0000000   2.7928460

  Atom        41          42          43          44          45          46          47          48          49          50
 IAtWgt=          12           1           1           1          12           1           1          12           1           1
 AtmWgt=  12.0000000   1.0078250   1.0078250   1.0078250  12.0000000   1.0078250   1.0078250  12.0000000   1.0078250   1.0078250
 NucSpn=           0           1           1           1           0           1           1           0           1           1
 AtZEff=   0.0000000   0.0000000   0.0000000   0.0000000   0.0000000   0.0000000   0.0000000   0.0000000   0.0000000   0.0000000
 NQMom=    0.0000000   0.0000000   0.0000000   0.0000000   0.0000000   0.0000000   0.0000000   0.0000000   0.0000000   0.0000000
 NMagM=    0.0000000   2.7928460   2.7928460   2.7928460   0.0000000   2.7928460   2.7928460   0.0000000   2.7928460   2.7928460

  Atom        51          52          53          54          55          56          57          58          59          60
 IAtWgt=          12           1           1          12           1          12           1           1           1          12
 AtmWgt=  12.0000000   1.0078250   1.0078250  12.0000000   1.0078250  12.0000000   1.0078250   1.0078250   1.0078250  12.0000000
 NucSpn=           0           1           1           0           1           0           1           1           1           0
 AtZEff=   0.0000000   0.0000000   0.0000000   0.0000000   0.0000000   0.0000000   0.0000000   0.0000000   0.0000000   0.0000000
 NQMom=    0.0000000   0.0000000   0.0000000   0.0000000   0.0000000   0.0000000   0.0000000   0.0000000   0.0000000   0.0000000
 NMagM=    0.0000000   2.7928460   2.7928460   0.0000000   2.7928460   0.0000000   2.7928460   2.7928460   2.7928460   0.0000000

  Atom        61          62          63          64          65          66          67          68          69          70
 IAtWgt=           1           1          12           1           1          12           1          12           1           1
 AtmWgt=   1.0078250   1.0078250  12.0000000   1.0078250   1.0078250  12.0000000   1.0078250  12.0000000   1.0078250   1.0078250
 NucSpn=           1           1           0           1           1           0           1           0           1           1
 AtZEff=   0.0000000   0.0000000   0.0000000   0.0000000   0.0000000   0.0000000   0.0000000   0.0000000   0.0000000   0.0000000
 NQMom=    0.0000000   0.0000000   0.0000000   0.0000000   0.0000000   0.0000000   0.0000000   0.0000000   0.0000000   0.0000000
 NMagM=    2.7928460   2.7928460   0.0000000   2.7928460   2.7928460   0.0000000   2.7928460   0.0000000   2.7928460   2.7928460

  Atom        71          72          73          74          75
 IAtWgt=           1          12           1           1           1
 AtmWgt=   1.0078250  12.0000000   1.0078250   1.0078250   1.0078250
 NucSpn=           1           0           1           1           1
 AtZEff=   0.0000000   0.0000000   0.0000000   0.0000000   0.0000000
 NQMom=    0.0000000   0.0000000   0.0000000   0.0000000   0.0000000
 NMagM=    2.7928460   0.0000000   2.7928460   2.7928460   2.7928460
 Leave Link  101 at Thu May 18 13:27:29 2017, MaxMem=   33554432 cpu:      10.8
 (Enter /scratch/michal/g09/l202.exe)
 Symmetry turned off by external request.
 Stoichiometry    C27H46O2
 Framework group  C1[X(C27H46O2)]
 Deg. of freedom   219
 Full point group                 C1      NOp   1
                          Input orientation:                          
 ---------------------------------------------------------------------
 Center     Atomic      Atomic             Coordinates (Angstroms)
 Number     Number       Type             X           Y           Z
 ---------------------------------------------------------------------
      1          8           0        6.741686    0.902646    0.000000
      2          1           0        7.087237    0.000000    0.000000
      3          8           0        9.643266   -2.662096    4.897895
      4          1           0        9.394097   -2.462970    5.811373
      5          6           0        2.501179    0.606393    0.898701
      6          6           0        3.952665    1.061517    0.600602
      7          1           0        4.289496    0.442437   -0.242310
      8          6           0        4.948474    0.791785    1.733905
      9          1           0        4.667753    1.388921    2.613466
     10          6           0        4.937786   -0.713984    2.112096
     11          1           0        5.378843   -1.240909    1.249642
     12          6           0        1.819164    1.054061   -0.432418
     13          1           0        2.260552    0.388485   -1.187980
     14          6           0        2.540524   -0.913259    1.133169
     15          1           0        2.866425   -1.405362    0.205462
     16          1           0        1.542628   -1.309334    1.364808
     17          6           0        5.876030   -1.026437    3.330587
     18          6           0        3.800279    2.490424    0.045984
     19          1           0        4.627304    2.753409   -0.619346
     20          1           0        3.793092    3.230140    0.856816
     21          6           0        3.505113   -1.282849    2.279277
     22          1           0        3.073530   -0.932552    3.222153
     23          1           0        3.553467   -2.374883    2.358661
     24          6           0        2.424716    2.468535   -0.692350
     25          1           0        1.774913    3.257857   -0.304662
     26          1           0        2.536497    2.658692   -1.764791
     27          6           0        6.375259    1.243419    1.357973
     28          1           0        6.403708    2.339225    1.361632
     29          6           0        0.277340    0.880149   -0.598154
     30          1           0        0.000000    0.000000    0.000000
     31          6           0        1.892456    1.322017    2.124485
     32          1           0        2.478360    1.159073    3.032688
     33          1           0        1.822922    2.403544    1.978381
     34          1           0        0.882912    0.948018    2.324043
     35          6           0        7.214743   -0.291606    3.177526
     36          6           0        6.159923   -2.560305    3.362649
     37          1           0        6.440342   -2.879469    2.349130
     38          1           0        5.236495   -3.094393    3.610552
     39          6           0        7.409709    0.713002    2.307346
     40          1           0        8.395109    1.172929    2.238451
     41          6           0        5.232517   -0.589924    4.675142
     42          1           0        4.370842   -1.215802    4.925954
     43          1           0        5.939697   -0.670046    5.504454
     44          1           0        4.899768    0.451621    4.635553
     45          6           0        8.350023   -0.740774    4.079227
     46          1           0        9.274724   -0.220702    3.810633
     47          1           0        8.127002   -0.468014    5.123118
     48          6           0        7.271278   -2.995287    4.330049
     49          1           0        6.975271   -2.796040    5.370588
     50          1           0        7.434258   -4.076182    4.252078
     51          6           0       -0.579973    2.072955   -0.111104
     52          1           0       -0.284192    2.350129    0.905784
     53          1           0       -0.352447    2.946229   -0.736358
     54          6           0        8.577612   -2.259427    4.033859
     55          1           0        8.926797   -2.536840    3.031587
     56          6           0       -0.046592    0.542418   -2.068385
     57          1           0        0.211449    1.379668   -2.729274
     58          1           0       -1.107357    0.319174   -2.217013
     59          1           0        0.521262   -0.332315   -2.403684
     60          6           0       -2.111132    1.873509   -0.150400
     61          1           0       -2.578207    2.811841    0.175092
     62          1           0       -2.434086    1.739195   -1.189905
     63          6           0       -2.681948    0.707955    0.678904
     64          1           0       -2.268018   -0.239344    0.307646
     65          1           0       -3.764499    0.652122    0.490503
     66          6           0       -2.465830    0.770055    2.205694
     67          1           0       -1.385221    0.825758    2.399022
     68          6           0       -2.986375   -0.515640    2.868375
     69          1           0       -4.067284   -0.625280    2.712226
     70          1           0       -2.806537   -0.508280    3.949556
     71          1           0       -2.499288   -1.405408    2.452886
     72          6           0       -3.119791    2.006474    2.843003
     73          1           0       -4.201916    2.012813    2.657980
     74          1           0       -2.969040    2.012895    3.928540
     75          1           0       -2.709020    2.941375    2.448608
 ---------------------------------------------------------------------
 Rotational constants (GHZ):      0.3165869      0.0718690      0.0637792
 Leave Link  202 at Thu May 18 13:27:29 2017, MaxMem=   33554432 cpu:       0.3
 (Enter /scratch/michal/g09/l301.exe)
 Standard basis: 6-31G(d) (6D, 7F)
 Ernie: Thresh=  0.10000D-02 Tol=  0.10000D-05 Strict=F.
 AO basis set in the form of general basis input (Overlap normalization):
      1 0
 S   6 1.00       0.000000000000
      0.5484671660D+04  0.1831074430D-02
      0.8252349460D+03  0.1395017220D-01
      0.1880469580D+03  0.6844507810D-01
      0.5296450000D+02  0.2327143360D+00
      0.1689757040D+02  0.4701928980D+00
      0.5799635340D+01  0.3585208530D+00
 SP   3 1.00       0.000000000000
      0.1553961625D+02 -0.1107775495D+00  0.7087426823D-01
      0.3599933586D+01 -0.1480262627D+00  0.3397528391D+00
      0.1013761750D+01  0.1130767015D+01  0.7271585773D+00
 SP   1 1.00       0.000000000000
      0.2700058226D+00  0.1000000000D+01  0.1000000000D+01
 D   1 1.00       0.000000000000
      0.8000000000D+00  0.1000000000D+01
 ****
      2 0
 S   3 1.00       0.000000000000
      0.1873113696D+02  0.3349460434D-01
      0.2825394365D+01  0.2347269535D+00
      0.6401216923D+00  0.8137573261D+00
 S   1 1.00       0.000000000000
      0.1612777588D+00  0.1000000000D+01
 ****
      3 0
 S   6 1.00       0.000000000000
      0.5484671660D+04  0.1831074430D-02
      0.8252349460D+03  0.1395017220D-01
      0.1880469580D+03  0.6844507810D-01
      0.5296450000D+02  0.2327143360D+00
      0.1689757040D+02  0.4701928980D+00
      0.5799635340D+01  0.3585208530D+00
 SP   3 1.00       0.000000000000
      0.1553961625D+02 -0.1107775495D+00  0.7087426823D-01
      0.3599933586D+01 -0.1480262627D+00  0.3397528391D+00
      0.1013761750D+01  0.1130767015D+01  0.7271585773D+00
 SP   1 1.00       0.000000000000
      0.2700058226D+00  0.1000000000D+01  0.1000000000D+01
 D   1 1.00       0.000000000000
      0.8000000000D+00  0.1000000000D+01
 ****
      4 0
 S   3 1.00       0.000000000000
      0.1873113696D+02  0.3349460434D-01
      0.2825394365D+01  0.2347269535D+00
      0.6401216923D+00  0.8137573261D+00
 S   1 1.00       0.000000000000
      0.1612777588D+00  0.1000000000D+01
 ****
      5 0
 S   6 1.00       0.000000000000
      0.3047524880D+04  0.1834737132D-02
      0.4573695180D+03  0.1403732281D-01
      0.1039486850D+03  0.6884262226D-01
      0.2921015530D+02  0.2321844432D+00
      0.9286662960D+01  0.4679413484D+00
      0.3163926960D+01  0.3623119853D+00
 SP   3 1.00       0.000000000000
      0.7868272350D+01 -0.1193324198D+00  0.6899906659D-01
      0.1881288540D+01 -0.1608541517D+00  0.3164239610D+00
      0.5442492580D+00  0.1143456438D+01  0.7443082909D+00
 SP   1 1.00       0.000000000000
      0.1687144782D+00  0.1000000000D+01  0.1000000000D+01
 D   1 1.00       0.000000000000
      0.8000000000D+00  0.1000000000D+01
 ****
      6 0
 S   6 1.00       0.000000000000
      0.3047524880D+04  0.1834737132D-02
      0.4573695180D+03  0.1403732281D-01
      0.1039486850D+03  0.6884262226D-01
      0.2921015530D+02  0.2321844432D+00
      0.9286662960D+01  0.4679413484D+00
      0.3163926960D+01  0.3623119853D+00
 SP   3 1.00       0.000000000000
      0.7868272350D+01 -0.1193324198D+00  0.6899906659D-01
      0.1881288540D+01 -0.1608541517D+00  0.3164239610D+00
      0.5442492580D+00  0.1143456438D+01  0.7443082909D+00
 SP   1 1.00       0.000000000000
      0.1687144782D+00  0.1000000000D+01  0.1000000000D+01
 D   1 1.00       0.000000000000
      0.8000000000D+00  0.1000000000D+01
 ****
      7 0
 S   3 1.00       0.000000000000
      0.1873113696D+02  0.3349460434D-01
      0.2825394365D+01  0.2347269535D+00
      0.6401216923D+00  0.8137573261D+00
 S   1 1.00       0.000000000000
      0.1612777588D+00  0.1000000000D+01
 ****
      8 0
 S   6 1.00       0.000000000000
      0.3047524880D+04  0.1834737132D-02
      0.4573695180D+03  0.1403732281D-01
      0.1039486850D+03  0.6884262226D-01
      0.2921015530D+02  0.2321844432D+00
      0.9286662960D+01  0.4679413484D+00
      0.3163926960D+01  0.3623119853D+00
 SP   3 1.00       0.000000000000
      0.7868272350D+01 -0.1193324198D+00  0.6899906659D-01
      0.1881288540D+01 -0.1608541517D+00  0.3164239610D+00
      0.5442492580D+00  0.1143456438D+01  0.7443082909D+00
 SP   1 1.00       0.000000000000
      0.1687144782D+00  0.1000000000D+01  0.1000000000D+01
 D   1 1.00       0.000000000000
      0.8000000000D+00  0.1000000000D+01
 ****
      9 0
 S   3 1.00       0.000000000000
      0.1873113696D+02  0.3349460434D-01
      0.2825394365D+01  0.2347269535D+00
      0.6401216923D+00  0.8137573261D+00
 S   1 1.00       0.000000000000
      0.1612777588D+00  0.1000000000D+01
 ****
     10 0
 S   6 1.00       0.000000000000
      0.3047524880D+04  0.1834737132D-02
      0.4573695180D+03  0.1403732281D-01
      0.1039486850D+03  0.6884262226D-01
      0.2921015530D+02  0.2321844432D+00
      0.9286662960D+01  0.4679413484D+00
      0.3163926960D+01  0.3623119853D+00
 SP   3 1.00       0.000000000000
      0.7868272350D+01 -0.1193324198D+00  0.6899906659D-01
      0.1881288540D+01 -0.1608541517D+00  0.3164239610D+00
      0.5442492580D+00  0.1143456438D+01  0.7443082909D+00
 SP   1 1.00       0.000000000000
      0.1687144782D+00  0.1000000000D+01  0.1000000000D+01
 D   1 1.00       0.000000000000
      0.8000000000D+00  0.1000000000D+01
 ****
     11 0
 S   3 1.00       0.000000000000
      0.1873113696D+02  0.3349460434D-01
      0.2825394365D+01  0.2347269535D+00
      0.6401216923D+00  0.8137573261D+00
 S   1 1.00       0.000000000000
      0.1612777588D+00  0.1000000000D+01
 ****
     12 0
 S   6 1.00       0.000000000000
      0.3047524880D+04  0.1834737132D-02
      0.4573695180D+03  0.1403732281D-01
      0.1039486850D+03  0.6884262226D-01
      0.2921015530D+02  0.2321844432D+00
      0.9286662960D+01  0.4679413484D+00
      0.3163926960D+01  0.3623119853D+00
 SP   3 1.00       0.000000000000
      0.7868272350D+01 -0.1193324198D+00  0.6899906659D-01
      0.1881288540D+01 -0.1608541517D+00  0.3164239610D+00
      0.5442492580D+00  0.1143456438D+01  0.7443082909D+00
 SP   1 1.00       0.000000000000
      0.1687144782D+00  0.1000000000D+01  0.1000000000D+01
 D   1 1.00       0.000000000000
      0.8000000000D+00  0.1000000000D+01
 ****
     13 0
 S   3 1.00       0.000000000000
      0.1873113696D+02  0.3349460434D-01
      0.2825394365D+01  0.2347269535D+00
      0.6401216923D+00  0.8137573261D+00
 S   1 1.00       0.000000000000
      0.1612777588D+00  0.1000000000D+01
 ****
     14 0
 S   6 1.00       0.000000000000
      0.3047524880D+04  0.1834737132D-02
      0.4573695180D+03  0.1403732281D-01
      0.1039486850D+03  0.6884262226D-01
      0.2921015530D+02  0.2321844432D+00
      0.9286662960D+01  0.4679413484D+00
      0.3163926960D+01  0.3623119853D+00
 SP   3 1.00       0.000000000000
      0.7868272350D+01 -0.1193324198D+00  0.6899906659D-01
      0.1881288540D+01 -0.1608541517D+00  0.3164239610D+00
      0.5442492580D+00  0.1143456438D+01  0.7443082909D+00
 SP   1 1.00       0.000000000000
      0.1687144782D+00  0.1000000000D+01  0.1000000000D+01
 D   1 1.00       0.000000000000
      0.8000000000D+00  0.1000000000D+01
 ****
     15 0
 S   3 1.00       0.000000000000
      0.1873113696D+02  0.3349460434D-01
      0.2825394365D+01  0.2347269535D+00
      0.6401216923D+00  0.8137573261D+00
 S   1 1.00       0.000000000000
      0.1612777588D+00  0.1000000000D+01
 ****
     16 0
 S   3 1.00       0.000000000000
      0.1873113696D+02  0.3349460434D-01
      0.2825394365D+01  0.2347269535D+00
      0.6401216923D+00  0.8137573261D+00
 S   1 1.00       0.000000000000
      0.1612777588D+00  0.1000000000D+01
 ****
     17 0
 S   6 1.00       0.000000000000
      0.3047524880D+04  0.1834737132D-02
      0.4573695180D+03  0.1403732281D-01
      0.1039486850D+03  0.6884262226D-01
      0.2921015530D+02  0.2321844432D+00
      0.9286662960D+01  0.4679413484D+00
      0.3163926960D+01  0.3623119853D+00
 SP   3 1.00       0.000000000000
      0.7868272350D+01 -0.1193324198D+00  0.6899906659D-01
      0.1881288540D+01 -0.1608541517D+00  0.3164239610D+00
      0.5442492580D+00  0.1143456438D+01  0.7443082909D+00
 SP   1 1.00       0.000000000000
      0.1687144782D+00  0.1000000000D+01  0.1000000000D+01
 D   1 1.00       0.000000000000
      0.8000000000D+00  0.1000000000D+01
 ****
     18 0
 S   6 1.00       0.000000000000
      0.3047524880D+04  0.1834737132D-02
      0.4573695180D+03  0.1403732281D-01
      0.1039486850D+03  0.6884262226D-01
      0.2921015530D+02  0.2321844432D+00
      0.9286662960D+01  0.4679413484D+00
      0.3163926960D+01  0.3623119853D+00
 SP   3 1.00       0.000000000000
      0.7868272350D+01 -0.1193324198D+00  0.6899906659D-01
      0.1881288540D+01 -0.1608541517D+00  0.3164239610D+00
      0.5442492580D+00  0.1143456438D+01  0.7443082909D+00
 SP   1 1.00       0.000000000000
      0.1687144782D+00  0.1000000000D+01  0.1000000000D+01
 D   1 1.00       0.000000000000
      0.8000000000D+00  0.1000000000D+01
 ****
     19 0
 S   3 1.00       0.000000000000
      0.1873113696D+02  0.3349460434D-01
      0.2825394365D+01  0.2347269535D+00
      0.6401216923D+00  0.8137573261D+00
 S   1 1.00       0.000000000000
      0.1612777588D+00  0.1000000000D+01
 ****
     20 0
 S   3 1.00       0.000000000000
      0.1873113696D+02  0.3349460434D-01
      0.2825394365D+01  0.2347269535D+00
      0.6401216923D+00  0.8137573261D+00
 S   1 1.00       0.000000000000
      0.1612777588D+00  0.1000000000D+01
 ****
     21 0
 S   6 1.00       0.000000000000
      0.3047524880D+04  0.1834737132D-02
      0.4573695180D+03  0.1403732281D-01
      0.1039486850D+03  0.6884262226D-01
      0.2921015530D+02  0.2321844432D+00
      0.9286662960D+01  0.4679413484D+00
      0.3163926960D+01  0.3623119853D+00
 SP   3 1.00       0.000000000000
      0.7868272350D+01 -0.1193324198D+00  0.6899906659D-01
      0.1881288540D+01 -0.1608541517D+00  0.3164239610D+00
      0.5442492580D+00  0.1143456438D+01  0.7443082909D+00
 SP   1 1.00       0.000000000000
      0.1687144782D+00  0.1000000000D+01  0.1000000000D+01
 D   1 1.00       0.000000000000
      0.8000000000D+00  0.1000000000D+01
 ****
     22 0
 S   3 1.00       0.000000000000
      0.1873113696D+02  0.3349460434D-01
      0.2825394365D+01  0.2347269535D+00
      0.6401216923D+00  0.8137573261D+00
 S   1 1.00       0.000000000000
      0.1612777588D+00  0.1000000000D+01
 ****
     23 0
 S   3 1.00       0.000000000000
      0.1873113696D+02  0.3349460434D-01
      0.2825394365D+01  0.2347269535D+00
      0.6401216923D+00  0.8137573261D+00
 S   1 1.00       0.000000000000
      0.1612777588D+00  0.1000000000D+01
 ****
     24 0
 S   6 1.00       0.000000000000
      0.3047524880D+04  0.1834737132D-02
      0.4573695180D+03  0.1403732281D-01
      0.1039486850D+03  0.6884262226D-01
      0.2921015530D+02  0.2321844432D+00
      0.9286662960D+01  0.4679413484D+00
      0.3163926960D+01  0.3623119853D+00
 SP   3 1.00       0.000000000000
      0.7868272350D+01 -0.1193324198D+00  0.6899906659D-01
      0.1881288540D+01 -0.1608541517D+00  0.3164239610D+00
      0.5442492580D+00  0.1143456438D+01  0.7443082909D+00
 SP   1 1.00       0.000000000000
      0.1687144782D+00  0.1000000000D+01  0.1000000000D+01
 D   1 1.00       0.000000000000
      0.8000000000D+00  0.1000000000D+01
 ****
     25 0
 S   3 1.00       0.000000000000
      0.1873113696D+02  0.3349460434D-01
      0.2825394365D+01  0.2347269535D+00
      0.6401216923D+00  0.8137573261D+00
 S   1 1.00       0.000000000000
      0.1612777588D+00  0.1000000000D+01
 ****
     26 0
 S   3 1.00       0.000000000000
      0.1873113696D+02  0.3349460434D-01
      0.2825394365D+01  0.2347269535D+00
      0.6401216923D+00  0.8137573261D+00
 S   1 1.00       0.000000000000
      0.1612777588D+00  0.1000000000D+01
 ****
     27 0
 S   6 1.00       0.000000000000
      0.3047524880D+04  0.1834737132D-02
      0.4573695180D+03  0.1403732281D-01
      0.1039486850D+03  0.6884262226D-01
      0.2921015530D+02  0.2321844432D+00
      0.9286662960D+01  0.4679413484D+00
      0.3163926960D+01  0.3623119853D+00
 SP   3 1.00       0.000000000000
      0.7868272350D+01 -0.1193324198D+00  0.6899906659D-01
      0.1881288540D+01 -0.1608541517D+00  0.3164239610D+00
      0.5442492580D+00  0.1143456438D+01  0.7443082909D+00
 SP   1 1.00       0.000000000000
      0.1687144782D+00  0.1000000000D+01  0.1000000000D+01
 D   1 1.00       0.000000000000
      0.8000000000D+00  0.1000000000D+01
 ****
     28 0
 S   3 1.00       0.000000000000
      0.1873113696D+02  0.3349460434D-01
      0.2825394365D+01  0.2347269535D+00
      0.6401216923D+00  0.8137573261D+00
 S   1 1.00       0.000000000000
      0.1612777588D+00  0.1000000000D+01
 ****
     29 0
 S   6 1.00       0.000000000000
      0.3047524880D+04  0.1834737132D-02
      0.4573695180D+03  0.1403732281D-01
      0.1039486850D+03  0.6884262226D-01
      0.2921015530D+02  0.2321844432D+00
      0.9286662960D+01  0.4679413484D+00
      0.3163926960D+01  0.3623119853D+00
 SP   3 1.00       0.000000000000
      0.7868272350D+01 -0.1193324198D+00  0.6899906659D-01
      0.1881288540D+01 -0.1608541517D+00  0.3164239610D+00
      0.5442492580D+00  0.1143456438D+01  0.7443082909D+00
 SP   1 1.00       0.000000000000
      0.1687144782D+00  0.1000000000D+01  0.1000000000D+01
 D   1 1.00       0.000000000000
      0.8000000000D+00  0.1000000000D+01
 ****
     30 0
 S   3 1.00       0.000000000000
      0.1873113696D+02  0.3349460434D-01
      0.2825394365D+01  0.2347269535D+00
      0.6401216923D+00  0.8137573261D+00
 S   1 1.00       0.000000000000
      0.1612777588D+00  0.1000000000D+01
 ****
     31 0
 S   6 1.00       0.000000000000
      0.3047524880D+04  0.1834737132D-02
      0.4573695180D+03  0.1403732281D-01
      0.1039486850D+03  0.6884262226D-01
      0.2921015530D+02  0.2321844432D+00
      0.9286662960D+01  0.4679413484D+00
      0.3163926960D+01  0.3623119853D+00
 SP   3 1.00       0.000000000000
      0.7868272350D+01 -0.1193324198D+00  0.6899906659D-01
      0.1881288540D+01 -0.1608541517D+00  0.3164239610D+00
      0.5442492580D+00  0.1143456438D+01  0.7443082909D+00
 SP   1 1.00       0.000000000000
      0.1687144782D+00  0.1000000000D+01  0.1000000000D+01
 D   1 1.00       0.000000000000
      0.8000000000D+00  0.1000000000D+01
 ****
     32 0
 S   3 1.00       0.000000000000
      0.1873113696D+02  0.3349460434D-01
      0.2825394365D+01  0.2347269535D+00
      0.6401216923D+00  0.8137573261D+00
 S   1 1.00       0.000000000000
      0.1612777588D+00  0.1000000000D+01
 ****
     33 0
 S   3 1.00       0.000000000000
      0.1873113696D+02  0.3349460434D-01
      0.2825394365D+01  0.2347269535D+00
      0.6401216923D+00  0.8137573261D+00
 S   1 1.00       0.000000000000
      0.1612777588D+00  0.1000000000D+01
 ****
     34 0
 S   3 1.00       0.000000000000
      0.1873113696D+02  0.3349460434D-01
      0.2825394365D+01  0.2347269535D+00
      0.6401216923D+00  0.8137573261D+00
 S   1 1.00       0.000000000000
      0.1612777588D+00  0.1000000000D+01
 ****
     35 0
 S   6 1.00       0.000000000000
      0.3047524880D+04  0.1834737132D-02
      0.4573695180D+03  0.1403732281D-01
      0.1039486850D+03  0.6884262226D-01
      0.2921015530D+02  0.2321844432D+00
      0.9286662960D+01  0.4679413484D+00
      0.3163926960D+01  0.3623119853D+00
 SP   3 1.00       0.000000000000
      0.7868272350D+01 -0.1193324198D+00  0.6899906659D-01
      0.1881288540D+01 -0.1608541517D+00  0.3164239610D+00
      0.5442492580D+00  0.1143456438D+01  0.7443082909D+00
 SP   1 1.00       0.000000000000
      0.1687144782D+00  0.1000000000D+01  0.1000000000D+01
 D   1 1.00       0.000000000000
      0.8000000000D+00  0.1000000000D+01
 ****
     36 0
 S   6 1.00       0.000000000000
      0.3047524880D+04  0.1834737132D-02
      0.4573695180D+03  0.1403732281D-01
      0.1039486850D+03  0.6884262226D-01
      0.2921015530D+02  0.2321844432D+00
      0.9286662960D+01  0.4679413484D+00
      0.3163926960D+01  0.3623119853D+00
 SP   3 1.00       0.000000000000
      0.7868272350D+01 -0.1193324198D+00  0.6899906659D-01
      0.1881288540D+01 -0.1608541517D+00  0.3164239610D+00
      0.5442492580D+00  0.1143456438D+01  0.7443082909D+00
 SP   1 1.00       0.000000000000
      0.1687144782D+00  0.1000000000D+01  0.1000000000D+01
 D   1 1.00       0.000000000000
      0.8000000000D+00  0.1000000000D+01
 ****
     37 0
 S   3 1.00       0.000000000000
      0.1873113696D+02  0.3349460434D-01
      0.2825394365D+01  0.2347269535D+00
      0.6401216923D+00  0.8137573261D+00
 S   1 1.00       0.000000000000
      0.1612777588D+00  0.1000000000D+01
 ****
     38 0
 S   3 1.00       0.000000000000
      0.1873113696D+02  0.3349460434D-01
      0.2825394365D+01  0.2347269535D+00
      0.6401216923D+00  0.8137573261D+00
 S   1 1.00       0.000000000000
      0.1612777588D+00  0.1000000000D+01
 ****
     39 0
 S   6 1.00       0.000000000000
      0.3047524880D+04  0.1834737132D-02
      0.4573695180D+03  0.1403732281D-01
      0.1039486850D+03  0.6884262226D-01
      0.2921015530D+02  0.2321844432D+00
      0.9286662960D+01  0.4679413484D+00
      0.3163926960D+01  0.3623119853D+00
 SP   3 1.00       0.000000000000
      0.7868272350D+01 -0.1193324198D+00  0.6899906659D-01
      0.1881288540D+01 -0.1608541517D+00  0.3164239610D+00
      0.5442492580D+00  0.1143456438D+01  0.7443082909D+00
 SP   1 1.00       0.000000000000
      0.1687144782D+00  0.1000000000D+01  0.1000000000D+01
 D   1 1.00       0.000000000000
      0.8000000000D+00  0.1000000000D+01
 ****
     40 0
 S   3 1.00       0.000000000000
      0.1873113696D+02  0.3349460434D-01
      0.2825394365D+01  0.2347269535D+00
      0.6401216923D+00  0.8137573261D+00
 S   1 1.00       0.000000000000
      0.1612777588D+00  0.1000000000D+01
 ****
     41 0
 S   6 1.00       0.000000000000
      0.3047524880D+04  0.1834737132D-02
      0.4573695180D+03  0.1403732281D-01
      0.1039486850D+03  0.6884262226D-01
      0.2921015530D+02  0.2321844432D+00
      0.9286662960D+01  0.4679413484D+00
      0.3163926960D+01  0.3623119853D+00
 SP   3 1.00       0.000000000000
      0.7868272350D+01 -0.1193324198D+00  0.6899906659D-01
      0.1881288540D+01 -0.1608541517D+00  0.3164239610D+00
      0.5442492580D+00  0.1143456438D+01  0.7443082909D+00
 SP   1 1.00       0.000000000000
      0.1687144782D+00  0.1000000000D+01  0.1000000000D+01
 D   1 1.00       0.000000000000
      0.8000000000D+00  0.1000000000D+01
 ****
     42 0
 S   3 1.00       0.000000000000
      0.1873113696D+02  0.3349460434D-01
      0.2825394365D+01  0.2347269535D+00
      0.6401216923D+00  0.8137573261D+00
 S   1 1.00       0.000000000000
      0.1612777588D+00  0.1000000000D+01
 ****
     43 0
 S   3 1.00       0.000000000000
      0.1873113696D+02  0.3349460434D-01
      0.2825394365D+01  0.2347269535D+00
      0.6401216923D+00  0.8137573261D+00
 S   1 1.00       0.000000000000
      0.1612777588D+00  0.1000000000D+01
 ****
     44 0
 S   3 1.00       0.000000000000
      0.1873113696D+02  0.3349460434D-01
      0.2825394365D+01  0.2347269535D+00
      0.6401216923D+00  0.8137573261D+00
 S   1 1.00       0.000000000000
      0.1612777588D+00  0.1000000000D+01
 ****
     45 0
 S   6 1.00       0.000000000000
      0.3047524880D+04  0.1834737132D-02
      0.4573695180D+03  0.1403732281D-01
      0.1039486850D+03  0.6884262226D-01
      0.2921015530D+02  0.2321844432D+00
      0.9286662960D+01  0.4679413484D+00
      0.3163926960D+01  0.3623119853D+00
 SP   3 1.00       0.000000000000
      0.7868272350D+01 -0.1193324198D+00  0.6899906659D-01
      0.1881288540D+01 -0.1608541517D+00  0.3164239610D+00
      0.5442492580D+00  0.1143456438D+01  0.7443082909D+00
 SP   1 1.00       0.000000000000
      0.1687144782D+00  0.1000000000D+01  0.1000000000D+01
 D   1 1.00       0.000000000000
      0.8000000000D+00  0.1000000000D+01
 ****
     46 0
 S   3 1.00       0.000000000000
      0.1873113696D+02  0.3349460434D-01
      0.2825394365D+01  0.2347269535D+00
      0.6401216923D+00  0.8137573261D+00
 S   1 1.00       0.000000000000
      0.1612777588D+00  0.1000000000D+01
 ****
     47 0
 S   3 1.00       0.000000000000
      0.1873113696D+02  0.3349460434D-01
      0.2825394365D+01  0.2347269535D+00
      0.6401216923D+00  0.8137573261D+00
 S   1 1.00       0.000000000000
      0.1612777588D+00  0.1000000000D+01
 ****
     48 0
 S   6 1.00       0.000000000000
      0.3047524880D+04  0.1834737132D-02
      0.4573695180D+03  0.1403732281D-01
      0.1039486850D+03  0.6884262226D-01
      0.2921015530D+02  0.2321844432D+00
      0.9286662960D+01  0.4679413484D+00
      0.3163926960D+01  0.3623119853D+00
 SP   3 1.00       0.000000000000
      0.7868272350D+01 -0.1193324198D+00  0.6899906659D-01
      0.1881288540D+01 -0.1608541517D+00  0.3164239610D+00
      0.5442492580D+00  0.1143456438D+01  0.7443082909D+00
 SP   1 1.00       0.000000000000
      0.1687144782D+00  0.1000000000D+01  0.1000000000D+01
 D   1 1.00       0.000000000000
      0.8000000000D+00  0.1000000000D+01
 ****
     49 0
 S   3 1.00       0.000000000000
      0.1873113696D+02  0.3349460434D-01
      0.2825394365D+01  0.2347269535D+00
      0.6401216923D+00  0.8137573261D+00
 S   1 1.00       0.000000000000
      0.1612777588D+00  0.1000000000D+01
 ****
     50 0
 S   3 1.00       0.000000000000
      0.1873113696D+02  0.3349460434D-01
      0.2825394365D+01  0.2347269535D+00
      0.6401216923D+00  0.8137573261D+00
 S   1 1.00       0.000000000000
      0.1612777588D+00  0.1000000000D+01
 ****
     51 0
 S   6 1.00       0.000000000000
      0.3047524880D+04  0.1834737132D-02
      0.4573695180D+03  0.1403732281D-01
      0.1039486850D+03  0.6884262226D-01
      0.2921015530D+02  0.2321844432D+00
      0.9286662960D+01  0.4679413484D+00
      0.3163926960D+01  0.3623119853D+00
 SP   3 1.00       0.000000000000
      0.7868272350D+01 -0.1193324198D+00  0.6899906659D-01
      0.1881288540D+01 -0.1608541517D+00  0.3164239610D+00
      0.5442492580D+00  0.1143456438D+01  0.7443082909D+00
 SP   1 1.00       0.000000000000
      0.1687144782D+00  0.1000000000D+01  0.1000000000D+01
 D   1 1.00       0.000000000000
      0.8000000000D+00  0.1000000000D+01
 ****
     52 0
 S   3 1.00       0.000000000000
      0.1873113696D+02  0.3349460434D-01
      0.2825394365D+01  0.2347269535D+00
      0.6401216923D+00  0.8137573261D+00
 S   1 1.00       0.000000000000
      0.1612777588D+00  0.1000000000D+01
 ****
     53 0
 S   3 1.00       0.000000000000
      0.1873113696D+02  0.3349460434D-01
      0.2825394365D+01  0.2347269535D+00
      0.6401216923D+00  0.8137573261D+00
 S   1 1.00       0.000000000000
      0.1612777588D+00  0.1000000000D+01
 ****
     54 0
 S   6 1.00       0.000000000000
      0.3047524880D+04  0.1834737132D-02
      0.4573695180D+03  0.1403732281D-01
      0.1039486850D+03  0.6884262226D-01
      0.2921015530D+02  0.2321844432D+00
      0.9286662960D+01  0.4679413484D+00
      0.3163926960D+01  0.3623119853D+00
 SP   3 1.00       0.000000000000
      0.7868272350D+01 -0.1193324198D+00  0.6899906659D-01
      0.1881288540D+01 -0.1608541517D+00  0.3164239610D+00
      0.5442492580D+00  0.1143456438D+01  0.7443082909D+00
 SP   1 1.00       0.000000000000
      0.1687144782D+00  0.1000000000D+01  0.1000000000D+01
 D   1 1.00       0.000000000000
      0.8000000000D+00  0.1000000000D+01
 ****
     55 0
 S   3 1.00       0.000000000000
      0.1873113696D+02  0.3349460434D-01
      0.2825394365D+01  0.2347269535D+00
      0.6401216923D+00  0.8137573261D+00
 S   1 1.00       0.000000000000
      0.1612777588D+00  0.1000000000D+01
 ****
     56 0
 S   6 1.00       0.000000000000
      0.3047524880D+04  0.1834737132D-02
      0.4573695180D+03  0.1403732281D-01
      0.1039486850D+03  0.6884262226D-01
      0.2921015530D+02  0.2321844432D+00
      0.9286662960D+01  0.4679413484D+00
      0.3163926960D+01  0.3623119853D+00
 SP   3 1.00       0.000000000000
      0.7868272350D+01 -0.1193324198D+00  0.6899906659D-01
      0.1881288540D+01 -0.1608541517D+00  0.3164239610D+00
      0.5442492580D+00  0.1143456438D+01  0.7443082909D+00
 SP   1 1.00       0.000000000000
      0.1687144782D+00  0.1000000000D+01  0.1000000000D+01
 D   1 1.00       0.000000000000
      0.8000000000D+00  0.1000000000D+01
 ****
     57 0
 S   3 1.00       0.000000000000
      0.1873113696D+02  0.3349460434D-01
      0.2825394365D+01  0.2347269535D+00
      0.6401216923D+00  0.8137573261D+00
 S   1 1.00       0.000000000000
      0.1612777588D+00  0.1000000000D+01
 ****
     58 0
 S   3 1.00       0.000000000000
      0.1873113696D+02  0.3349460434D-01
      0.2825394365D+01  0.2347269535D+00
      0.6401216923D+00  0.8137573261D+00
 S   1 1.00       0.000000000000
      0.1612777588D+00  0.1000000000D+01
 ****
     59 0
 S   3 1.00       0.000000000000
      0.1873113696D+02  0.3349460434D-01
      0.2825394365D+01  0.2347269535D+00
      0.6401216923D+00  0.8137573261D+00
 S   1 1.00       0.000000000000
      0.1612777588D+00  0.1000000000D+01
 ****
     60 0
 S   6 1.00       0.000000000000
      0.3047524880D+04  0.1834737132D-02
      0.4573695180D+03  0.1403732281D-01
      0.1039486850D+03  0.6884262226D-01
      0.2921015530D+02  0.2321844432D+00
      0.9286662960D+01  0.4679413484D+00
      0.3163926960D+01  0.3623119853D+00
 SP   3 1.00       0.000000000000
      0.7868272350D+01 -0.1193324198D+00  0.6899906659D-01
      0.1881288540D+01 -0.1608541517D+00  0.3164239610D+00
      0.5442492580D+00  0.1143456438D+01  0.7443082909D+00
 SP   1 1.00       0.000000000000
      0.1687144782D+00  0.1000000000D+01  0.1000000000D+01
 D   1 1.00       0.000000000000
      0.8000000000D+00  0.1000000000D+01
 ****
     61 0
 S   3 1.00       0.000000000000
      0.1873113696D+02  0.3349460434D-01
      0.2825394365D+01  0.2347269535D+00
      0.6401216923D+00  0.8137573261D+00
 S   1 1.00       0.000000000000
      0.1612777588D+00  0.1000000000D+01
 ****
     62 0
 S   3 1.00       0.000000000000
      0.1873113696D+02  0.3349460434D-01
      0.2825394365D+01  0.2347269535D+00
      0.6401216923D+00  0.8137573261D+00
 S   1 1.00       0.000000000000
      0.1612777588D+00  0.1000000000D+01
 ****
     63 0
 S   6 1.00       0.000000000000
      0.3047524880D+04  0.1834737132D-02
      0.4573695180D+03  0.1403732281D-01
      0.1039486850D+03  0.6884262226D-01
      0.2921015530D+02  0.2321844432D+00
      0.9286662960D+01  0.4679413484D+00
      0.3163926960D+01  0.3623119853D+00
 SP   3 1.00       0.000000000000
      0.7868272350D+01 -0.1193324198D+00  0.6899906659D-01
      0.1881288540D+01 -0.1608541517D+00  0.3164239610D+00
      0.5442492580D+00  0.1143456438D+01  0.7443082909D+00
 SP   1 1.00       0.000000000000
      0.1687144782D+00  0.1000000000D+01  0.1000000000D+01
 D   1 1.00       0.000000000000
      0.8000000000D+00  0.1000000000D+01
 ****
     64 0
 S   3 1.00       0.000000000000
      0.1873113696D+02  0.3349460434D-01
      0.2825394365D+01  0.2347269535D+00
      0.6401216923D+00  0.8137573261D+00
 S   1 1.00       0.000000000000
      0.1612777588D+00  0.1000000000D+01
 ****
     65 0
 S   3 1.00       0.000000000000
      0.1873113696D+02  0.3349460434D-01
      0.2825394365D+01  0.2347269535D+00
      0.6401216923D+00  0.8137573261D+00
 S   1 1.00       0.000000000000
      0.1612777588D+00  0.1000000000D+01
 ****
     66 0
 S   6 1.00       0.000000000000
      0.3047524880D+04  0.1834737132D-02
      0.4573695180D+03  0.1403732281D-01
      0.1039486850D+03  0.6884262226D-01
      0.2921015530D+02  0.2321844432D+00
      0.9286662960D+01  0.4679413484D+00
      0.3163926960D+01  0.3623119853D+00
 SP   3 1.00       0.000000000000
      0.7868272350D+01 -0.1193324198D+00  0.6899906659D-01
      0.1881288540D+01 -0.1608541517D+00  0.3164239610D+00
      0.5442492580D+00  0.1143456438D+01  0.7443082909D+00
 SP   1 1.00       0.000000000000
      0.1687144782D+00  0.1000000000D+01  0.1000000000D+01
 D   1 1.00       0.000000000000
      0.8000000000D+00  0.1000000000D+01
 ****
     67 0
 S   3 1.00       0.000000000000
      0.1873113696D+02  0.3349460434D-01
      0.2825394365D+01  0.2347269535D+00
      0.6401216923D+00  0.8137573261D+00
 S   1 1.00       0.000000000000
      0.1612777588D+00  0.1000000000D+01
 ****
     68 0
 S   6 1.00       0.000000000000
      0.3047524880D+04  0.1834737132D-02
      0.4573695180D+03  0.1403732281D-01
      0.1039486850D+03  0.6884262226D-01
      0.2921015530D+02  0.2321844432D+00
      0.9286662960D+01  0.4679413484D+00
      0.3163926960D+01  0.3623119853D+00
 SP   3 1.00       0.000000000000
      0.7868272350D+01 -0.1193324198D+00  0.6899906659D-01
      0.1881288540D+01 -0.1608541517D+00  0.3164239610D+00
      0.5442492580D+00  0.1143456438D+01  0.7443082909D+00
 SP   1 1.00       0.000000000000
      0.1687144782D+00  0.1000000000D+01  0.1000000000D+01
 D   1 1.00       0.000000000000
      0.8000000000D+00  0.1000000000D+01
 ****
     69 0
 S   3 1.00       0.000000000000
      0.1873113696D+02  0.3349460434D-01
      0.2825394365D+01  0.2347269535D+00
      0.6401216923D+00  0.8137573261D+00
 S   1 1.00       0.000000000000
      0.1612777588D+00  0.1000000000D+01
 ****
     70 0
 S   3 1.00       0.000000000000
      0.1873113696D+02  0.3349460434D-01
      0.2825394365D+01  0.2347269535D+00
      0.6401216923D+00  0.8137573261D+00
 S   1 1.00       0.000000000000
      0.1612777588D+00  0.1000000000D+01
 ****
     71 0
 S   3 1.00       0.000000000000
      0.1873113696D+02  0.3349460434D-01
      0.2825394365D+01  0.2347269535D+00
      0.6401216923D+00  0.8137573261D+00
 S   1 1.00       0.000000000000
      0.1612777588D+00  0.1000000000D+01
 ****
     72 0
 S   6 1.00       0.000000000000
      0.3047524880D+04  0.1834737132D-02
      0.4573695180D+03  0.1403732281D-01
      0.1039486850D+03  0.6884262226D-01
      0.2921015530D+02  0.2321844432D+00
      0.9286662960D+01  0.4679413484D+00
      0.3163926960D+01  0.3623119853D+00
 SP   3 1.00       0.000000000000
      0.7868272350D+01 -0.1193324198D+00  0.6899906659D-01
      0.1881288540D+01 -0.1608541517D+00  0.3164239610D+00
      0.5442492580D+00  0.1143456438D+01  0.7443082909D+00
 SP   1 1.00       0.000000000000
      0.1687144782D+00  0.1000000000D+01  0.1000000000D+01
 D   1 1.00       0.000000000000
      0.8000000000D+00  0.1000000000D+01
 ****
     73 0
 S   3 1.00       0.000000000000
      0.1873113696D+02  0.3349460434D-01
      0.2825394365D+01  0.2347269535D+00
      0.6401216923D+00  0.8137573261D+00
 S   1 1.00       0.000000000000
      0.1612777588D+00  0.1000000000D+01
 ****
     74 0
 S   3 1.00       0.000000000000
      0.1873113696D+02  0.3349460434D-01
      0.2825394365D+01  0.2347269535D+00
      0.6401216923D+00  0.8137573261D+00
 S   1 1.00       0.000000000000
      0.1612777588D+00  0.1000000000D+01
 ****
     75 0
 S   3 1.00       0.000000000000
      0.1873113696D+02  0.3349460434D-01
      0.2825394365D+01  0.2347269535D+00
      0.6401216923D+00  0.8137573261D+00
 S   1 1.00       0.000000000000
      0.1612777588D+00  0.1000000000D+01
 ****

 AO basis set (Overlap normalization):
 Atom O1       Shell     1 S   6     bf    1 -     1         12.739939817067          1.705753999506          0.000000000000
      0.5484671660D+04  0.1831074430D-02
      0.8252349460D+03  0.1395017220D-01
      0.1880469580D+03  0.6844507810D-01
      0.5296450000D+02  0.2327143360D+00
      0.1689757040D+02  0.4701928980D+00
      0.5799635340D+01  0.3585208530D+00
 Atom O1       Shell     2 SP   3    bf    2 -     5         12.739939817067          1.705753999506          0.000000000000
      0.1553961625D+02 -0.1107775495D+00  0.7087426823D-01
      0.3599933586D+01 -0.1480262627D+00  0.3397528391D+00
      0.1013761750D+01  0.1130767015D+01  0.7271585773D+00
 Atom O1       Shell     3 SP   1    bf    6 -     9         12.739939817067          1.705753999506          0.000000000000
      0.2700058226D+00  0.1000000000D+01  0.1000000000D+01
 Atom O1       Shell     4 D   1     bf   10 -    15         12.739939817067          1.705753999506          0.000000000000
      0.8000000000D+00  0.1000000000D+01
 Atom H2       Shell     5 S   3     bf   16 -    16         13.392937592464          0.000000000000          0.000000000000
      0.1873113696D+02  0.3349460434D-01
      0.2825394365D+01  0.2347269535D+00
      0.6401216923D+00  0.8137573261D+00
 Atom H2       Shell     6 S   1     bf   17 -    17         13.392937592464          0.000000000000          0.000000000000
      0.1612777588D+00  0.1000000000D+01
 Atom O3       Shell     7 S   6     bf   18 -    18         18.223131294136         -5.030632322759          9.255679535123
      0.5484671660D+04  0.1831074430D-02
      0.8252349460D+03  0.1395017220D-01
      0.1880469580D+03  0.6844507810D-01
      0.5296450000D+02  0.2327143360D+00
      0.1689757040D+02  0.4701928980D+00
      0.5799635340D+01  0.3585208530D+00
 Atom O3       Shell     8 SP   3    bf   19 -    22         18.223131294136         -5.030632322759          9.255679535123
      0.1553961625D+02 -0.1107775495D+00  0.7087426823D-01
      0.3599933586D+01 -0.1480262627D+00  0.3397528391D+00
      0.1013761750D+01  0.1130767015D+01  0.7271585773D+00
 Atom O3       Shell     9 SP   1    bf   23 -    26         18.223131294136         -5.030632322759          9.255679535123
      0.2700058226D+00  0.1000000000D+01  0.1000000000D+01
 Atom O3       Shell    10 D   1     bf   27 -    32         18.223131294136         -5.030632322759          9.255679535123
      0.8000000000D+00  0.1000000000D+01
 Atom H4       Shell    11 S   3     bf   33 -    33         17.752271408345         -4.654338735719         10.981904295320
      0.1873113696D+02  0.3349460434D-01
      0.2825394365D+01  0.2347269535D+00
      0.6401216923D+00  0.8137573261D+00
 Atom H4       Shell    12 S   1     bf   34 -    34         17.752271408345         -4.654338735719         10.981904295320
      0.1612777588D+00  0.1000000000D+01
 Atom C5       Shell    13 S   6     bf   35 -    35          4.726543602784          1.145917398098          1.698298614172
      0.3047524880D+04  0.1834737132D-02
      0.4573695180D+03  0.1403732281D-01
      0.1039486850D+03  0.6884262226D-01
      0.2921015530D+02  0.2321844432D+00
      0.9286662960D+01  0.4679413484D+00
      0.3163926960D+01  0.3623119853D+00
 Atom C5       Shell    14 SP   3    bf   36 -    39          4.726543602784          1.145917398098          1.698298614172
      0.7868272350D+01 -0.1193324198D+00  0.6899906659D-01
      0.1881288540D+01 -0.1608541517D+00  0.3164239610D+00
      0.5442492580D+00  0.1143456438D+01  0.7443082909D+00
 Atom C5       Shell    15 SP   1    bf   40 -    43          4.726543602784          1.145917398098          1.698298614172
      0.1687144782D+00  0.1000000000D+01  0.1000000000D+01
 Atom C5       Shell    16 D   1     bf   44 -    49          4.726543602784          1.145917398098          1.698298614172
      0.8000000000D+00  0.1000000000D+01
 Atom C6       Shell    17 S   6     bf   50 -    50          7.469453872611          2.005975508334          1.134973068096
      0.3047524880D+04  0.1834737132D-02
      0.4573695180D+03  0.1403732281D-01
      0.1039486850D+03  0.6884262226D-01
      0.2921015530D+02  0.2321844432D+00
      0.9286662960D+01  0.4679413484D+00
      0.3163926960D+01  0.3623119853D+00
 Atom C6       Shell    18 SP   3    bf   51 -    54          7.469453872611          2.005975508334          1.134973068096
      0.7868272350D+01 -0.1193324198D+00  0.6899906659D-01
      0.1881288540D+01 -0.1608541517D+00  0.3164239610D+00
      0.5442492580D+00  0.1143456438D+01  0.7443082909D+00
 Atom C6       Shell    19 SP   1    bf   55 -    58          7.469453872611          2.005975508334          1.134973068096
      0.1687144782D+00  0.1000000000D+01  0.1000000000D+01
 Atom C6       Shell    20 D   1     bf   59 -    64          7.469453872611          2.005975508334          1.134973068096
      0.8000000000D+00  0.1000000000D+01
 Atom H7       Shell    21 S   3     bf   65 -    65          8.105972801492          0.836085271282         -0.457899444773
      0.1873113696D+02  0.3349460434D-01
      0.2825394365D+01  0.2347269535D+00
      0.6401216923D+00  0.8137573261D+00
 Atom H7       Shell    22 S   1     bf   66 -    66          8.105972801492          0.836085271282         -0.457899444773
      0.1612777588D+00  0.1000000000D+01
 Atom C8       Shell    23 S   6     bf   67 -    67          9.351259936506          1.496257637606          3.276605590441
      0.3047524880D+04  0.1834737132D-02
      0.4573695180D+03  0.1403732281D-01
      0.1039486850D+03  0.6884262226D-01
      0.2921015530D+02  0.2321844432D+00
      0.9286662960D+01  0.4679413484D+00
      0.3163926960D+01  0.3623119853D+00
 Atom C8       Shell    24 SP   3    bf   68 -    71          9.351259936506          1.496257637606          3.276605590441
      0.7868272350D+01 -0.1193324198D+00  0.6899906659D-01
      0.1881288540D+01 -0.1608541517D+00  0.3164239610D+00
      0.5442492580D+00  0.1143456438D+01  0.7443082909D+00
 Atom C8       Shell    25 SP   1    bf   72 -    75          9.351259936506          1.496257637606          3.276605590441
      0.1687144782D+00  0.1000000000D+01  0.1000000000D+01
 Atom C8       Shell    26 D   1     bf   76 -    81          9.351259936506          1.496257637606          3.276605590441
      0.8000000000D+00  0.1000000000D+01
 Atom H9       Shell    27 S   3     bf   82 -    82          8.820775147209          2.624679932268          4.938735356656
      0.1873113696D+02  0.3349460434D-01
      0.2825394365D+01  0.2347269535D+00
      0.6401216923D+00  0.8137573261D+00
 Atom H9       Shell    28 S   1     bf   83 -    83          8.820775147209          2.624679932268          4.938735356656
      0.1612777588D+00  0.1000000000D+01
 Atom C10      Shell    29 S   6     bf   84 -    84          9.331062827057         -1.349233769728          3.991282533932
      0.3047524880D+04  0.1834737132D-02
      0.4573695180D+03  0.1403732281D-01
      0.1039486850D+03  0.6884262226D-01
      0.2921015530D+02  0.2321844432D+00
      0.9286662960D+01  0.4679413484D+00
      0.3163926960D+01  0.3623119853D+00
 Atom C10      Shell    30 SP   3    bf   85 -    88          9.331062827057         -1.349233769728          3.991282533932
      0.7868272350D+01 -0.1193324198D+00  0.6899906659D-01
      0.1881288540D+01 -0.1608541517D+00  0.3164239610D+00
      0.5442492580D+00  0.1143456438D+01  0.7443082909D+00
 Atom C10      Shell    31 SP   1    bf   89 -    92          9.331062827057         -1.349233769728          3.991282533932
      0.1687144782D+00  0.1000000000D+01  0.1000000000D+01
 Atom C10      Shell    32 D   1     bf   93 -    98          9.331062827057         -1.349233769728          3.991282533932
      0.8000000000D+00  0.1000000000D+01
 Atom H11      Shell    33 S   3     bf   99 -    99         10.164541013269         -2.344978732751          2.361480482747
      0.1873113696D+02  0.3349460434D-01
      0.2825394365D+01  0.2347269535D+00
      0.6401216923D+00  0.8137573261D+00
 Atom H11      Shell    34 S   1     bf  100 -   100         10.164541013269         -2.344978732751          2.361480482747
      0.1612777588D+00  0.1000000000D+01
 Atom C12      Shell    35 S   6     bf  101 -   101          3.437721316168          1.991886201616         -0.817151594930
      0.3047524880D+04  0.1834737132D-02
      0.4573695180D+03  0.1403732281D-01
      0.1039486850D+03  0.6884262226D-01
      0.2921015530D+02  0.2321844432D+00
      0.9286662960D+01  0.4679413484D+00
      0.3163926960D+01  0.3623119853D+00
 Atom C12      Shell    36 SP   3    bf  102 -   105          3.437721316168          1.991886201616         -0.817151594930
      0.7868272350D+01 -0.1193324198D+00  0.6899906659D-01
      0.1881288540D+01 -0.1608541517D+00  0.3164239610D+00
      0.5442492580D+00  0.1143456438D+01  0.7443082909D+00
 Atom C12      Shell    37 SP   1    bf  106 -   109          3.437721316168          1.991886201616         -0.817151594930
      0.1687144782D+00  0.1000000000D+01  0.1000000000D+01
 Atom C12      Shell    38 D   1     bf  110 -   115          3.437721316168          1.991886201616         -0.817151594930
      0.8000000000D+00  0.1000000000D+01
 Atom H13      Shell    39 S   3     bf  116 -   116          4.271824189147          0.734131126008         -2.244957229291
      0.1873113696D+02  0.3349460434D-01
      0.2825394365D+01  0.2347269535D+00
      0.6401216923D+00  0.8137573261D+00
 Atom H13      Shell    40 S   1     bf  117 -   117          4.271824189147          0.734131126008         -2.244957229291
      0.1612777588D+00  0.1000000000D+01
 Atom C14      Shell    41 S   6     bf  118 -   118          4.800895293222         -1.725808699194          2.141379506913
      0.3047524880D+04  0.1834737132D-02
      0.4573695180D+03  0.1403732281D-01
      0.1039486850D+03  0.6884262226D-01
      0.2921015530D+02  0.2321844432D+00
      0.9286662960D+01  0.4679413484D+00
      0.3163926960D+01  0.3623119853D+00
 Atom C14      Shell    42 SP   3    bf  119 -   122          4.800895293222         -1.725808699194          2.141379506913
      0.7868272350D+01 -0.1193324198D+00  0.6899906659D-01
      0.1881288540D+01 -0.1608541517D+00  0.3164239610D+00
      0.5442492580D+00  0.1143456438D+01  0.7443082909D+00
 Atom C14      Shell    43 SP   1    bf  123 -   126          4.800895293222         -1.725808699194          2.141379506913
      0.1687144782D+00  0.1000000000D+01  0.1000000000D+01
 Atom C14      Shell    44 D   1     bf  127 -   132          4.800895293222         -1.725808699194          2.141379506913
      0.8000000000D+00  0.1000000000D+01
 Atom H15      Shell    45 S   3     bf  133 -   133          5.416758476121         -2.655749864482          0.388266797331
      0.1873113696D+02  0.3349460434D-01
      0.2825394365D+01  0.2347269535D+00
      0.6401216923D+00  0.8137573261D+00
 Atom H15      Shell    46 S   1     bf  134 -   134          5.416758476121         -2.655749864482          0.388266797331
      0.1612777588D+00  0.1000000000D+01
 Atom H16      Shell    47 S   3     bf  135 -   135          2.915144992942         -2.474283111113          2.579113268382
      0.1873113696D+02  0.3349460434D-01
      0.2825394365D+01  0.2347269535D+00
      0.6401216923D+00  0.8137573261D+00
 Atom H16      Shell    48 S   1     bf  136 -   136          2.915144992942         -2.474283111113          2.579113268382
      0.1612777588D+00  0.1000000000D+01
 Atom C17      Shell    49 S   6     bf  137 -   137         11.104087958846         -1.939685068325          6.293898047640
      0.3047524880D+04  0.1834737132D-02
      0.4573695180D+03  0.1403732281D-01
      0.1039486850D+03  0.6884262226D-01
      0.2921015530D+02  0.2321844432D+00
      0.9286662960D+01  0.4679413484D+00
      0.3163926960D+01  0.3623119853D+00
 Atom C17      Shell    50 SP   3    bf  138 -   141         11.104087958846         -1.939685068325          6.293898047640
      0.7868272350D+01 -0.1193324198D+00  0.6899906659D-01
      0.1881288540D+01 -0.1608541517D+00  0.3164239610D+00
      0.5442492580D+00  0.1143456438D+01  0.7443082909D+00
 Atom C17      Shell    51 SP   1    bf  142 -   145         11.104087958846         -1.939685068325          6.293898047640
      0.1687144782D+00  0.1000000000D+01  0.1000000000D+01
 Atom C17      Shell    52 D   1     bf  146 -   151         11.104087958846         -1.939685068325          6.293898047640
      0.8000000000D+00  0.1000000000D+01
 Atom C18      Shell    53 S   6     bf  152 -   152          7.181486009433          4.706219125793          0.086896448399
      0.3047524880D+04  0.1834737132D-02
      0.4573695180D+03  0.1403732281D-01
      0.1039486850D+03  0.6884262226D-01
      0.2921015530D+02  0.2321844432D+00
      0.9286662960D+01  0.4679413484D+00
      0.3163926960D+01  0.3623119853D+00
 Atom C18      Shell    54 SP   3    bf  153 -   156          7.181486009433          4.706219125793          0.086896448399
      0.7868272350D+01 -0.1193324198D+00  0.6899906659D-01
      0.1881288540D+01 -0.1608541517D+00  0.3164239610D+00
      0.5442492580D+00  0.1143456438D+01  0.7443082909D+00
 Atom C18      Shell    55 SP   1    bf  157 -   160          7.181486009433          4.706219125793          0.086896448399
      0.1687144782D+00  0.1000000000D+01  0.1000000000D+01
 Atom C18      Shell    56 D   1     bf  161 -   166          7.181486009433          4.706219125793          0.086896448399
      0.8000000000D+00  0.1000000000D+01
 Atom H19      Shell    57 S   3     bf  167 -   167          8.744336613305          5.203188261521         -1.170394775032
      0.1873113696D+02  0.3349460434D-01
      0.2825394365D+01  0.2347269535D+00
      0.6401216923D+00  0.8137573261D+00
 Atom H19      Shell    58 S   1     bf  168 -   168          8.744336613305          5.203188261521         -1.170394775032
      0.1612777588D+00  0.1000000000D+01
 Atom H20      Shell    59 S   3     bf  169 -   169          7.167905246915          6.104079120502          1.619147586275
      0.1873113696D+02  0.3349460434D-01
      0.2825394365D+01  0.2347269535D+00
      0.6401216923D+00  0.8137573261D+00
 Atom H20      Shell    60 S   1     bf  170 -   170          7.167905246915          6.104079120502          1.619147586275
      0.1612777588D+00  0.1000000000D+01
 Atom C21      Shell    61 S   6     bf  171 -   171          6.623703710406         -2.424232391675          4.307208611787
      0.3047524880D+04  0.1834737132D-02
      0.4573695180D+03  0.1403732281D-01
      0.1039486850D+03  0.6884262226D-01
      0.2921015530D+02  0.2321844432D+00
      0.9286662960D+01  0.4679413484D+00
      0.3163926960D+01  0.3623119853D+00
 Atom C21      Shell    62 SP   3    bf  172 -   175          6.623703710406         -2.424232391675          4.307208611787
      0.7868272350D+01 -0.1193324198D+00  0.6899906659D-01
      0.1881288540D+01 -0.1608541517D+00  0.3164239610D+00
      0.5442492580D+00  0.1143456438D+01  0.7443082909D+00
 Atom C21      Shell    63 SP   1    bf  176 -   179          6.623703710406         -2.424232391675          4.307208611787
      0.1687144782D+00  0.1000000000D+01  0.1000000000D+01
 Atom C21      Shell    64 D   1     bf  180 -   185          6.623703710406         -2.424232391675          4.307208611787
      0.8000000000D+00  0.1000000000D+01
 Atom H22      Shell    65 S   3     bf  186 -   186          5.808130244667         -1.762267582319          6.088986614872
      0.1873113696D+02  0.3349460434D-01
      0.2825394365D+01  0.2347269535D+00
      0.6401216923D+00  0.8137573261D+00
 Atom H22      Shell    66 S   1     bf  187 -   187          5.808130244667         -1.762267582319          6.088986614872
      0.1612777588D+00  0.1000000000D+01
 Atom H23      Shell    67 S   3     bf  188 -   188          6.715080113651         -4.487878184187          4.457224256284
      0.1873113696D+02  0.3349460434D-01
      0.2825394365D+01  0.2347269535D+00
      0.6401216923D+00  0.8137573261D+00
 Atom H23      Shell    68 S   1     bf  189 -   189          6.715080113651         -4.487878184187          4.457224256284
      0.1612777588D+00  0.1000000000D+01
 Atom C24      Shell    69 S   6     bf  190 -   190          4.582050078197          4.664854721498         -1.308352700686
      0.3047524880D+04  0.1834737132D-02
      0.4573695180D+03  0.1403732281D-01
      0.1039486850D+03  0.6884262226D-01
      0.2921015530D+02  0.2321844432D+00
      0.9286662960D+01  0.4679413484D+00
      0.3163926960D+01  0.3623119853D+00
 Atom C24      Shell    70 SP   3    bf  191 -   194          4.582050078197          4.664854721498         -1.308352700686
      0.7868272350D+01 -0.1193324198D+00  0.6899906659D-01
      0.1881288540D+01 -0.1608541517D+00  0.3164239610D+00
      0.5442492580D+00  0.1143456438D+01  0.7443082909D+00
 Atom C24      Shell    71 SP   1    bf  195 -   198          4.582050078197          4.664854721498         -1.308352700686
      0.1687144782D+00  0.1000000000D+01  0.1000000000D+01
 Atom C24      Shell    72 D   1     bf  199 -   204          4.582050078197          4.664854721498         -1.308352700686
      0.8000000000D+00  0.1000000000D+01
 Atom H25      Shell    73 S   3     bf  205 -   205          3.354099611979          6.156457642385         -0.575726854926
      0.1873113696D+02  0.3349460434D-01
      0.2825394365D+01  0.2347269535D+00
      0.6401216923D+00  0.8137573261D+00
 Atom H25      Shell    74 S   1     bf  206 -   206          3.354099611979          6.156457642385         -0.575726854926
      0.1612777588D+00  0.1000000000D+01
 Atom H26      Shell    75 S   3     bf  207 -   207          4.793284194455          5.024199260365         -3.334972163110
      0.1873113696D+02  0.3349460434D-01
      0.2825394365D+01  0.2347269535D+00
      0.6401216923D+00  0.8137573261D+00
 Atom H26      Shell    76 S   1     bf  208 -   208          4.793284194455          5.024199260365         -3.334972163110
      0.1612777588D+00  0.1000000000D+01
 Atom C27      Shell    77 S   6     bf  209 -   209         12.047492912605          2.349721454016          2.566197028059
      0.3047524880D+04  0.1834737132D-02
      0.4573695180D+03  0.1403732281D-01
      0.1039486850D+03  0.6884262226D-01
      0.2921015530D+02  0.2321844432D+00
      0.9286662960D+01  0.4679413484D+00
      0.3163926960D+01  0.3623119853D+00
 Atom C27      Shell    78 SP   3    bf  210 -   213         12.047492912605          2.349721454016          2.566197028059
      0.7868272350D+01 -0.1193324198D+00  0.6899906659D-01
      0.1881288540D+01 -0.1608541517D+00  0.3164239610D+00
      0.5442492580D+00  0.1143456438D+01  0.7443082909D+00
 Atom C27      Shell    79 SP   1    bf  214 -   217         12.047492912605          2.349721454016          2.566197028059
      0.1687144782D+00  0.1000000000D+01  0.1000000000D+01
 Atom C27      Shell    80 D   1     bf  218 -   223         12.047492912605          2.349721454016          2.566197028059
      0.8000000000D+00  0.1000000000D+01
 Atom H28      Shell    81 S   3     bf  224 -   224         12.101255016373          4.420494839967          2.573111290314
      0.1873113696D+02  0.3349460434D-01
      0.2825394365D+01  0.2347269535D+00
      0.6401216923D+00  0.8137573261D+00
 Atom H28      Shell    82 S   1     bf  225 -   225         12.101255016373          4.420494839967          2.573111290314
      0.1612777588D+00  0.1000000000D+01
 Atom C29      Shell    83 S   6     bf  226 -   226          0.524096400030          1.663241189743         -1.130347736619
      0.3047524880D+04  0.1834737132D-02
      0.4573695180D+03  0.1403732281D-01
      0.1039486850D+03  0.6884262226D-01
      0.2921015530D+02  0.2321844432D+00
      0.9286662960D+01  0.4679413484D+00
      0.3163926960D+01  0.3623119853D+00
 Atom C29      Shell    84 SP   3    bf  227 -   230          0.524096400030          1.663241189743         -1.130347736619
      0.7868272350D+01 -0.1193324198D+00  0.6899906659D-01
      0.1881288540D+01 -0.1608541517D+00  0.3164239610D+00
      0.5442492580D+00  0.1143456438D+01  0.7443082909D+00
 Atom C29      Shell    85 SP   1    bf  231 -   234          0.524096400030          1.663241189743         -1.130347736619
      0.1687144782D+00  0.1000000000D+01  0.1000000000D+01
 Atom C29      Shell    86 D   1     bf  235 -   240          0.524096400030          1.663241189743         -1.130347736619
      0.8000000000D+00  0.1000000000D+01
 Atom H30      Shell    87 S   3     bf  241 -   241          0.000000000000          0.000000000000          0.000000000000
      0.1873113696D+02  0.3349460434D-01
      0.2825394365D+01  0.2347269535D+00
      0.6401216923D+00  0.8137573261D+00
 Atom H30      Shell    88 S   1     bf  242 -   242          0.000000000000          0.000000000000          0.000000000000
      0.1612777588D+00  0.1000000000D+01
 Atom C31      Shell    89 S   6     bf  243 -   243          3.576223596331          2.498250734423          4.014694105328
      0.3047524880D+04  0.1834737132D-02
      0.4573695180D+03  0.1403732281D-01
      0.1039486850D+03  0.6884262226D-01
      0.2921015530D+02  0.2321844432D+00
      0.9286662960D+01  0.4679413484D+00
      0.3163926960D+01  0.3623119853D+00
 Atom C31      Shell    90 SP   3    bf  244 -   247          3.576223596331          2.498250734423          4.014694105328
      0.7868272350D+01 -0.1193324198D+00  0.6899906659D-01
      0.1881288540D+01 -0.1608541517D+00  0.3164239610D+00
      0.5442492580D+00  0.1143456438D+01  0.7443082909D+00
 Atom C31      Shell    91 SP   1    bf  248 -   251          3.576223596331          2.498250734423          4.014694105328
      0.1687144782D+00  0.1000000000D+01  0.1000000000D+01
 Atom C31      Shell    92 D   1     bf  252 -   257          3.576223596331          2.498250734423          4.014694105328
      0.8000000000D+00  0.1000000000D+01
 Atom H32      Shell    93 S   3     bf  258 -   258          4.683422339000          2.190329819926          5.730950012153
      0.1873113696D+02  0.3349460434D-01
      0.2825394365D+01  0.2347269535D+00
      0.6401216923D+00  0.8137573261D+00
 Atom H32      Shell    94 S   1     bf  259 -   259          4.683422339000          2.190329819926          5.730950012153
      0.1612777588D+00  0.1000000000D+01
 Atom H33      Shell    95 S   3     bf  260 -   260          3.444822529030          4.542040645334          3.738597804073
      0.1873113696D+02  0.3349460434D-01
      0.2825394365D+01  0.2347269535D+00
      0.6401216923D+00  0.8137573261D+00
 Atom H33      Shell    96 S   1     bf  261 -   261          3.444822529030          4.542040645334          3.738597804073
      0.1612777588D+00  0.1000000000D+01
 Atom H34      Shell    97 S   3     bf  262 -   262          1.668461482596          1.791494823683          4.391804054057
      0.1873113696D+02  0.3349460434D-01
      0.2825394365D+01  0.2347269535D+00
      0.6401216923D+00  0.8137573261D+00
 Atom H34      Shell    98 S   1     bf  263 -   263          1.668461482596          1.791494823683          4.391804054057
      0.1612777588D+00  0.1000000000D+01
 Atom C35      Shell    99 S   6     bf  264 -   264         13.633888332462         -0.551055970035          6.004653372103
      0.3047524880D+04  0.1834737132D-02
      0.4573695180D+03  0.1403732281D-01
      0.1039486850D+03  0.6884262226D-01
      0.2921015530D+02  0.2321844432D+00
      0.9286662960D+01  0.4679413484D+00
      0.3163926960D+01  0.3623119853D+00
 Atom C35      Shell   100 SP   3    bf  265 -   268         13.633888332462         -0.551055970035          6.004653372103
      0.7868272350D+01 -0.1193324198D+00  0.6899906659D-01
      0.1881288540D+01 -0.1608541517D+00  0.3164239610D+00
      0.5442492580D+00  0.1143456438D+01  0.7443082909D+00
 Atom C35      Shell   101 SP   1    bf  269 -   272         13.633888332462         -0.551055970035          6.004653372103
      0.1687144782D+00  0.1000000000D+01  0.1000000000D+01
 Atom C35      Shell   102 D   1     bf  273 -   278         13.633888332462         -0.551055970035          6.004653372103
      0.8000000000D+00  0.1000000000D+01
 Atom C36      Shell   103 S   6     bf  279 -   279         11.640566864951         -4.838274680843          6.354486012275
      0.3047524880D+04  0.1834737132D-02
      0.4573695180D+03  0.1403732281D-01
      0.1039486850D+03  0.6884262226D-01
      0.2921015530D+02  0.2321844432D+00
      0.9286662960D+01  0.4679413484D+00
      0.3163926960D+01  0.3623119853D+00
 Atom C36      Shell   104 SP   3    bf  280 -   283         11.640566864951         -4.838274680843          6.354486012275
      0.7868272350D+01 -0.1193324198D+00  0.6899906659D-01
      0.1881288540D+01 -0.1608541517D+00  0.3164239610D+00
      0.5442492580D+00  0.1143456438D+01  0.7443082909D+00
 Atom C36      Shell   105 SP   1    bf  284 -   287         11.640566864951         -4.838274680843          6.354486012275
      0.1687144782D+00  0.1000000000D+01  0.1000000000D+01
 Atom C36      Shell   106 D   1     bf  288 -   293         11.640566864951         -4.838274680843          6.354486012275
      0.8000000000D+00  0.1000000000D+01
 Atom H37      Shell   107 S   3     bf  294 -   294         12.170482128587         -5.441407232319          4.439211972600
      0.1873113696D+02  0.3349460434D-01
      0.2825394365D+01  0.2347269535D+00
      0.6401216923D+00  0.8137573261D+00
 Atom H37      Shell   108 S   1     bf  295 -   295         12.170482128587         -5.441407232319          4.439211972600
      0.1612777588D+00  0.1000000000D+01
 Atom H38      Shell   109 S   3     bf  296 -   296          9.895540765924         -5.847555657669          6.822953542577
      0.1873113696D+02  0.3349460434D-01
      0.2825394365D+01  0.2347269535D+00
      0.6401216923D+00  0.8137573261D+00
 Atom H38      Shell   110 S   1     bf  297 -   297          9.895540765924         -5.847555657669          6.822953542577
      0.1612777588D+00  0.1000000000D+01
 Atom C39      Shell   111 S   6     bf  298 -   298         14.002321584755          1.347378323227          4.360252071604
      0.3047524880D+04  0.1834737132D-02
      0.4573695180D+03  0.1403732281D-01
      0.1039486850D+03  0.6884262226D-01
      0.2921015530D+02  0.2321844432D+00
      0.9286662960D+01  0.4679413484D+00
      0.3163926960D+01  0.3623119853D+00
 Atom C39      Shell   112 SP   3    bf  299 -   302         14.002321584755          1.347378323227          4.360252071604
      0.7868272350D+01 -0.1193324198D+00  0.6899906659D-01
      0.1881288540D+01 -0.1608541517D+00  0.3164239610D+00
      0.5442492580D+00  0.1143456438D+01  0.7443082909D+00
 Atom C39      Shell   113 SP   1    bf  303 -   306         14.002321584755          1.347378323227          4.360252071604
      0.1687144782D+00  0.1000000000D+01  0.1000000000D+01
 Atom C39      Shell   114 D   1     bf  307 -   312         14.002321584755          1.347378323227          4.360252071604
      0.8000000000D+00  0.1000000000D+01
 Atom H40      Shell   115 S   3     bf  313 -   313         15.864456544470          2.216515036854          4.230058747172
[...]
 1533 Fit       0.003243
 1534 Fit       0.003415
 1535 Fit       0.003804
 1536 Fit      -0.001067
 1537 Fit      -0.001154
 1538 Fit      -0.000798
 1539 Fit       0.000050
 1540 Fit       0.001210
 1541 Fit       0.002468
 1542 Fit       0.000006
 1543 Fit       0.001717
 1544 Fit       0.002303
 1545 Fit       0.005416
 1546 Fit       0.000496
 1547 Fit       0.002718
 1548 Fit       0.004151
 1549 Fit       0.004980
 1550 Fit      -0.000539
 1551 Fit       0.002256
 1552 Fit       0.004326
 1553 Fit       0.005717
 1554 Fit       0.000838
 1555 Fit      -0.001883
 1556 Fit      -0.001928
 1557 Fit      -0.001782
 1558 Fit      -0.000088
 1559 Fit      -0.001980
 1560 Fit      -0.002400
 1561 Fit      -0.001588
 1562 Fit      -0.001292
 1563 Fit      -0.001627
 1564 Fit      -0.001176
 1565 Fit       0.000384
 1566 Fit       0.000787
 1567 Fit      -0.001573
 1568 Fit       0.000414
 1569 Fit       0.001928
 1570 Fit       0.002607
 1571 Fit       0.000226
 1572 Fit       0.001981
 1573 Fit       0.003054
 1574 Fit      -0.000420
 1575 Fit       0.003417
 1576 Fit       0.003711
 1577 Fit       0.002533
 1578 Fit       0.001633
 1579 Fit       0.001500
 1580 Fit       0.002856
 1581 Fit       0.004462
 1582 Fit       0.002462
 1583 Fit       0.001256
 1584 Fit       0.000273
 1585 Fit      -0.000534
 1586 Fit      -0.001137
 1587 Fit      -0.001369
 1588 Fit      -0.001205
 1589 Fit       0.003781
 1590 Fit       0.000639
 1591 Fit       0.000719
 1592 Fit      -0.000329
 1593 Fit       0.002693
 1594 Fit       0.002692
 1595 Fit       0.002225
 1596 Fit       0.000702
 1597 Fit       0.003294
 1598 Fit       0.002879
 1599 Fit       0.000782
 1600 Fit      -0.007338
 1601 Fit      -0.012790
 1602 Fit      -0.015301
 1603 Fit      -0.011773
 1604 Fit      -0.019088
 1605 Fit      -0.022061
 1606 Fit      -0.021351
 1607 Fit      -0.015019
 1608 Fit      -0.022111
 1609 Fit      -0.024813
 1610 Fit      -0.023632
 1611 Fit      -0.004306
 1612 Fit      -0.004923
 1613 Fit      -0.017688
 1614 Fit      -0.023726
 1615 Fit      -0.023368
 1616 Fit      -0.019674
 1617 Fit      -0.012916
 1618 Fit      -0.010378
 1619 Fit      -0.019582
 1620 Fit       0.013807
 1621 Fit       0.007498
 1622 Fit      -0.000835
 1623 Fit       0.016033
 1624 Fit       0.013231
 1625 Fit       0.007690
 1626 Fit      -0.003694
 1627 Fit       0.004411
 1628 Fit       0.010106
 1629 Fit       0.010437
 1630 Fit       0.005948
 1631 Fit      -0.001365
 1632 Fit       0.001631
 1633 Fit      -0.004527
 1634 Fit      -0.001073
 1635 Fit      -0.005498
 1636 Fit      -0.006484
 1637 Fit      -0.015934
 1638 Fit      -0.012379
 1639 Fit      -0.006297
 1640 Fit      -0.009421
 1641 Fit      -0.014744
 1642 Fit      -0.017197
 1643 Fit      -0.017459
 1644 Fit      -0.022295
 1645 Fit      -0.019335
 1646 Fit      -0.013876
 1647 Fit      -0.016736
 1648 Fit      -0.021184
 1649 Fit      -0.023183
 1650 Fit      -0.023471
 1651 Fit      -0.023011
 1652 Fit      -0.019346
 1653 Fit      -0.019102
 1654 Fit      -0.022851
 1655 Fit      -0.024015
 1656 Fit      -0.018030
 1657 Fit      -0.013345
 1658 Fit      -0.015720
 1659 Fit      -0.018661
 1660 Fit       0.018709
 1661 Fit       0.012674
 1662 Fit       0.017216
 1663 Fit       0.022202
 1664 Fit       0.022242
 1665 Fit       0.017015
 1666 Fit       0.012446
 1667 Fit       0.003005
 1668 Fit       0.007380
 1669 Fit       0.013463
 1670 Fit       0.020155
 1671 Fit       0.014350
 1672 Fit       0.007564
 1673 Fit       0.002744
 1674 Fit       0.001266
 1675 Fit       0.000328
 1676 Fit      -0.016009
 1677 Fit      -0.005296
 1678 Fit      -0.006967
 1679 Fit       0.005125
 1680 Fit       0.006102
 1681 Fit       0.004903
 1682 Fit       0.007880
 1683 Fit       0.011424
 1684 Fit       0.006147
 1685 Fit       0.010191
 1686 Fit      -0.005898
 1687 Fit       0.001378
 1688 Fit      -0.001361
 1689 Fit      -0.003116
 1690 Fit      -0.000736
 1691 Fit       0.002409
 1692 Fit       0.003987
 1693 Fit       0.001129
 1694 Fit       0.002580
 1695 Fit       0.004192
 1696 Fit       0.005923
 1697 Fit       0.001748
 1698 Fit       0.002902
 1699 Fit       0.004078
 1700 Fit       0.004734
 1701 Fit       0.001891
 1702 Fit       0.002750
 1703 Fit       0.003097
 1704 Fit       0.004385
 1705 Fit       0.004602
 1706 Fit       0.004477
 1707 Fit       0.003930
 1708 Fit       0.005092
 1709 Fit       0.003492
 1710 Fit       0.002595
 1711 Fit       0.001881
 1712 Fit      -0.005797
 1713 Fit      -0.004788
 1714 Fit      -0.006230
 1715 Fit      -0.015201
 1716 Fit      -0.008192
 1717 Fit      -0.006282
 1718 Fit      -0.023011
 1719 Fit      -0.011974
 1720 Fit      -0.007337
 1721 Fit      -0.006148
 1722 Fit      -0.013315
 1723 Fit      -0.008050
 1724 Fit      -0.013952
 1725 Fit      -0.007982
 1726 Fit       0.003932
 1727 Fit       0.003586
 1728 Fit       0.002098
 1729 Fit       0.002339
 1730 Fit      -0.000530
 1731 Fit      -0.000269
 1732 Fit       0.000501
 1733 Fit       0.001886
 1734 Fit      -0.003241
 1735 Fit      -0.002192
 1736 Fit       0.007344
 1737 Fit       0.004873
 1738 Fit       0.005452
 1739 Fit       0.005991
 1740 Fit       0.006818
 1741 Fit       0.004683
 1742 Fit       0.006993
 1743 Fit       0.004723
 1744 Fit       0.006035
 1745 Fit       0.007779
 1746 Fit       0.004967
 1747 Fit       0.006377
 1748 Fit       0.007287
 1749 Fit       0.005298
 1750 Fit       0.006553
 1751 Fit      -0.003995
 1752 Fit      -0.004865
 1753 Fit      -0.003667
 1754 Fit      -0.002166
 1755 Fit       0.002072
 1756 Fit       0.002004
 1757 Fit      -0.000825
 1758 Fit       0.000551
 1759 Fit       0.000829
 1760 Fit      -0.002729
 1761 Fit      -0.000860
 1762 Fit      -0.002652
 1763 Fit      -0.005815
 1764 Fit      -0.004556
 1765 Fit      -0.006795
 1766 Fit      -0.004943
 1767 Fit      -0.003439
 1768 Fit      -0.002370
 1769 Fit      -0.001292
 1770 Fit      -0.006581
 1771 Fit      -0.003377
 1772 Fit      -0.002264
 1773 Fit      -0.001060
 1774 Fit      -0.002862
 1775 Fit      -0.001497
 1776 Fit       0.003437
 1777 Fit       0.002443
 1778 Fit       0.003447
 1779 Fit       0.004786
 1780 Fit       0.000660
 1781 Fit       0.001257
 1782 Fit       0.001751
 1783 Fit      -0.005691
 1784 Fit      -0.003765
 1785 Fit      -0.002324
 1786 Fit      -0.002257
 1787 Fit      -0.009851
 1788 Fit       0.004614
 1789 Fit       0.002053
 1790 Fit       0.002167
 1791 Fit       0.002388
 1792 Fit       0.001564
 1793 Fit       0.000887
 1794 Fit       0.001430
 1795 Fit       0.000727
 1796 Fit       0.006223
 1797 Fit       0.006601
 1798 Fit       0.003791
 1799 Fit       0.003768
 1800 Fit       0.006356
 1801 Fit       0.005393
 1802 Fit       0.002905
 1803 Fit       0.002465
 1804 Fit       0.001730
 1805 Fit       0.003344
 1806 Fit       0.003118
 1807 Fit       0.002758
 1808 Fit       0.002764
 1809 Fit       0.003449
 1810 Fit       0.004272
 1811 Fit       0.006557
 1812 Fit       0.006621
 1813 Fit       0.006211
 1814 Fit       0.006386
 1815 Fit       0.006486
 1816 Fit       0.007083
 1817 Fit       0.007091
 1818 Fit       0.007568
 1819 Fit       0.008905
 1820 Fit       0.013843
 1821 Fit       0.008914
 1822 Fit       0.009797
 1823 Fit       0.009377
 1824 Fit       0.010196
 1825 Fit       0.009081
 1826 Fit       0.008016
 1827 Fit       0.009392
 1828 Fit       0.008687
 1829 Fit       0.007714
 1830 Fit       0.008423
 1831 Fit       0.007163
 1832 Fit      -0.000487
 1833 Fit      -0.000962
 1834 Fit       0.000323
 1835 Fit       0.000626
 1836 Fit       0.002971
 1837 Fit       0.007170
 1838 Fit       0.001596
 1839 Fit       0.004296
 1840 Fit       0.002185
 1841 Fit       0.004132
 1842 Fit       0.003055
 1843 Fit       0.001967
 1844 Fit       0.002462
 1845 Fit       0.002109
 1846 Fit       0.001132
 1847 Fit       0.000200
 1848 Fit       0.002224
 1849 Fit      -0.001153
 1850 Fit      -0.002718
 1851 Fit      -0.005473
 1852 Fit       0.000147
 1853 Fit       0.006283
 1854 Fit       0.006433
 1855 Fit       0.008307
 1856 Fit       0.005608
 1857 Fit       0.005274
 1858 Fit       0.005537
 1859 Fit       0.009961
 1860 Fit       0.006880
 1861 Fit       0.008011
 1862 Fit       0.006730
 1863 Fit       0.007842
 1864 Fit       0.008649
 1865 Fit       0.009306
 1866 Fit       0.007272
 1867 Fit       0.008014
 1868 Fit       0.008491
 1869 Fit       0.009379
 1870 Fit       0.011204
 1871 Fit       0.016139
 1872 Fit       0.011014
 1873 Fit       0.007965
 1874 Fit       0.007889
 1875 Fit       0.010639
 1876 Fit       0.015695
 1877 Fit       0.009004
 1878 Fit       0.005484
 1879 Fit       0.005137
 1880 Fit       0.005971
 1881 Fit       0.006161
 1882 Fit       0.005824
 1883 Fit       0.002452
 1884 Fit       0.005368
 1885 Fit       0.006917
 1886 Fit       0.007228
 1887 Fit       0.003188
 1888 Fit       0.003567
 1889 Fit      -0.006037
 1890 Fit       0.000878
 1891 Fit       0.003026
 1892 Fit      -0.007026
 1893 Fit       0.000034
 1894 Fit       0.002919
 1895 Fit       0.003357
 1896 Fit      -0.003904
 1897 Fit       0.001331
 1898 Fit       0.004410
 1899 Fit      -0.000379
 1900 Fit       0.003501
 1901 Fit      -0.003494
 1902 Fit       0.001872
 1903 Fit       0.018595
 1904 Fit       0.018483
 1905 Fit       0.012459
 1906 Fit       0.013277
 1907 Fit       0.024897
 1908 Fit       0.007897
 1909 Fit       0.007463
 1910 Fit       0.008030
 1911 Fit       0.003712
 1912 Fit       0.003534
 1913 Fit       0.005797
 1914 Fit       0.004294
 1915 Fit       0.007954
 1916 Fit       0.005931
 1917 Fit       0.007040
 1918 Fit       0.005767
 1919 Fit       0.015941
 1920 Fit       0.022875
 1921 Fit       0.016436
 1922 Fit       0.012448
 1923 Fit       0.011081
 1924 Fit       0.013771
 1925 Fit       0.009978
 1926 Fit       0.008488
 1927 Fit       0.007193
 1928 Fit       0.005447
 1929 Fit       0.003514
 1930 Fit      -0.000403
 1931 Fit       0.005901
 1932 Fit       0.004293
 1933 Fit       0.001356
 1934 Fit      -0.005026
 1935 Fit       0.006291
 1936 Fit       0.004794
 1937 Fit       0.002169
 1938 Fit      -0.003068
 1939 Fit       0.004995
 1940 Fit       0.002296
 1941 Fit      -0.001809
 1942 Fit       0.005329
 1943 Fit       0.001307
 1944 Fit       0.000596
 1945 Fit       0.002350
 1946 Fit       0.001776
 1947 Fit       0.001354
 1948 Fit       0.000538
 1949 Fit       0.000206
 1950 Fit       0.000110
 1951 Fit       0.000175
 1952 Fit      -0.000448
 1953 Fit      -0.000594
 1954 Fit       0.000041
 1955 Fit      -0.000605
 1956 Fit      -0.000110
 1957 Fit      -0.000357
 1958 Fit      -0.012275
 1959 Fit      -0.003455
 1960 Fit      -0.009539
 1961 Fit      -0.012941
 1962 Fit      -0.002399
 1963 Fit       0.000183
 1964 Fit       0.005124
 1965 Fit       0.000553
 1966 Fit      -0.002300
 1967 Fit       0.003629
 1968 Fit       0.006269
 1969 Fit       0.009545
 1970 Fit       0.004867
 1971 Fit       0.009366
 1972 Fit       0.000049
 1973 Fit      -0.000919
 1974 Fit      -0.003036
 1975 Fit      -0.000958
 1976 Fit      -0.001673
 1977 Fit      -0.003165
 1978 Fit      -0.001887
 1979 Fit      -0.002287
 1980 Fit      -0.003143
 1981 Fit      -0.002868
 1982 Fit      -0.003008
 1983 Fit      -0.002955
 1984 Fit      -0.003125
 1985 Fit      -0.000301
 1986 Fit      -0.000123
 1987 Fit      -0.000964
 1988 Fit      -0.002510
 1989 Fit      -0.000894
 1990 Fit      -0.000222
 1991 Fit      -0.000240
 1992 Fit      -0.000995
 1993 Fit      -0.002162
 1994 Fit      -0.000963
 1995 Fit      -0.001152
 1996 Fit      -0.002433
 1997 Fit      -0.002137
 1998 Fit       0.001212
 1999 Fit       0.000380
 2000 Fit      -0.000903
 2001 Fit      -0.000635
 2002 Fit       0.000625
 2003 Fit       0.000596
 2004 Fit      -0.000319
 2005 Fit      -0.001220
 2006 Fit      -0.001977
 2007 Fit       0.000572
 2008 Fit       0.001663
 2009 Fit       0.000271
 2010 Fit       0.001500
 2011 Fit       0.002012
 2012 Fit       0.001461
 2013 Fit      -0.001675
 2014 Fit      -0.001796
 2015 Fit      -0.000214
 2016 Fit       0.000648
 2017 Fit       0.000164
 2018 Fit      -0.002329
 2019 Fit      -0.002037
 2020 Fit      -0.001118
 2021 Fit      -0.000610
 2022 Fit      -0.001257
 2023 Fit      -0.001736
 2024 Fit      -0.001496
 2025 Fit       0.001633
 2026 Fit       0.001725
 2027 Fit       0.000980
 2028 Fit      -0.000006
 2029 Fit       0.000360
 2030 Fit       0.000543
 2031 Fit       0.000228
 2032 Fit      -0.000381
 2033 Fit      -0.000885
 2034 Fit      -0.001179
 2035 Fit      -0.001261
 2036 Fit      -0.000255
 2037 Fit      -0.001271
 2038 Fit      -0.000849
 2039 Fit      -0.000031
 2040 Fit       0.000759
 2041 Fit       0.001510
 2042 Fit      -0.001159
 2043 Fit      -0.000201
 2044 Fit       0.000726
 2045 Fit      -0.001384
 2046 Fit      -0.001106
 2047 Fit      -0.000491
 2048 Fit      -0.000674
 2049 Fit       0.001294
 2050 Fit       0.002763
 2051 Fit      -0.000324
 2052 Fit       0.000974
 2053 Fit       0.001008
 2054 Fit       0.002524
 2055 Fit       0.002184
 2056 Fit       0.000058
 2057 Fit       0.001294
 2058 Fit       0.001714
 2059 Fit       0.001264
 2060 Fit      -0.000022
 2061 Fit      -0.000462
 2062 Fit       0.000750
 2063 Fit       0.000766
 2064 Fit      -0.000185
 2065 Fit       0.000244
 2066 Fit      -0.000257
 2067 Fit       0.002949
 2068 Fit      -0.000675
 2069 Fit      -0.000691
 2070 Fit       0.003054
 2071 Fit      -0.000951
 2072 Fit      -0.001144
 2073 Fit      -0.000600
 2074 Fit       0.000370
 2075 Fit       0.001357
 2076 Fit       0.002297
 2077 Fit      -0.001083
 2078 Fit      -0.000843
 2079 Fit       0.003422
 2080 Fit      -0.000932
 2081 Fit      -0.001504
 2082 Fit       0.000168
 2083 Fit       0.000197
 2084 Fit      -0.000641
 2085 Fit       0.001684
 2086 Fit       0.001620
 2087 Fit       0.001071
 2088 Fit      -0.000025
 2089 Fit       0.002796
 2090 Fit       0.002243
 2091 Fit       0.001470
 2092 Fit       0.000251
 2093 Fit       0.001472
 2094 Fit       0.000074
 2095 Fit       0.003295
 2096 Fit       0.003864
 2097 Fit       0.003994
 2098 Fit       0.002925
 2099 Fit       0.001858
 2100 Fit       0.002078
 2101 Fit       0.003034
 2102 Fit       0.003630
 2103 Fit       0.003834
 2104 Fit      -0.000014
 2105 Fit      -0.000127
 2106 Fit       0.000154
 2107 Fit       0.000864
 2108 Fit       0.001880
 2109 Fit       0.002945
 2110 Fit       0.001264
 2111 Fit       0.001938
 2112 Fit       0.000668
 2113 Fit       0.002237
 2114 Fit       0.003342
 2115 Fit       0.004034
 2116 Fit      -0.000468
 2117 Fit       0.001403
 2118 Fit       0.003045
 2119 Fit       0.004278
 2120 Fit      -0.000203
 2121 Fit       0.001937
 2122 Fit       0.003677
 2123 Fit       0.005130
 2124 Fit      -0.000955
 2125 Fit      -0.000807
 2126 Fit       0.001494
 2127 Fit       0.000542
 2128 Fit       0.000008
 2129 Fit      -0.000494
 2130 Fit      -0.001141
 2131 Fit      -0.001588
 2132 Fit      -0.001447
 2133 Fit       0.000993
 2134 Fit      -0.001036
 2135 Fit      -0.001486
 2136 Fit      -0.001024
 2137 Fit      -0.000141
 2138 Fit      -0.001219
 2139 Fit      -0.000163
 2140 Fit       0.000102
 2141 Fit      -0.000548
 2142 Fit       0.000690
 2143 Fit       0.001435
 2144 Fit       0.001688
 2145 Fit      -0.000041
 2146 Fit       0.001217
 2147 Fit       0.002097
 2148 Fit       0.002653
 2149 Fit       0.000173
 2150 Fit       0.001433
 2151 Fit       0.002514
 2152 Fit       0.002903
 2153 Fit       0.003307
 2154 Fit       0.002343
 2155 Fit       0.001620
 2156 Fit       0.001566
 2157 Fit       0.002640
 2158 Fit       0.003840
 2159 Fit       0.002738
 2160 Fit       0.001766
 2161 Fit       0.000930
 2162 Fit       0.000239
 2163 Fit      -0.000233
 2164 Fit      -0.000373
 2165 Fit      -0.000185
 2166 Fit       0.003797
 2167 Fit       0.000179
 2168 Fit      -0.000658
 2169 Fit       0.001831
 2170 Fit       0.001747
 2171 Fit       0.001365
 2172 Fit       0.000397
 2173 Fit       0.002337
 2174 Fit       0.002257
 2175 Fit       0.001431
 2176 Fit      -0.000019
 -----------------------------------------------------------------
 Leave Link  602 at Thu May 18 13:28:52 2017, MaxMem=   33554432 cpu:      15.3
 (Enter /scratch/michal/g09/l9999.exe)

 Test job not archived.
 1\1\GINC-RZEPICHA\SP\RHF\6-31G(d)\C27H46O2\MICHAL\18-May-2017\0\\#P HF
 /6-31G* SCF(Conver=6) NoSymm Test Pop=mk IOp(6/33=2) GFInput GFPrint\\
 MEP - Input generated by R.E.D.-III.x MOLECULE\\0,1\O,0,6.74168579,0.9
 0264614,0.\H,0,7.08723733,0.,0.\O,0,9.64326575,-2.66209597,4.89789466\
 H,0,9.39409743,-2.46296998,5.81137346\C,0,2.50117915,0.60639337,0.8987
 0092\C,0,3.95266475,1.06151652,0.60060188\H,0,4.28949606,0.44243727,-0
 .24230995\C,0,4.94847363,0.79178544,1.733905\H,0,4.66775317,1.3889208,
 2.61346619\C,0,4.93778578,-0.71398376,2.11209575\H,0,5.37884344,-1.240
 9093,1.24964165\C,0,1.81916377,1.05406078,-0.432418\H,0,2.260552,0.388
 48546,-1.1879802\C,0,2.54052437,-0.91325863,1.13316923\H,0,2.86642513,
 -1.4053623,0.20546194\H,0,1.54262829,-1.30933423,1.36480796\C,0,5.8760
 3027,-1.02643713,3.3305874\C,0,3.80027872,2.4904239,0.04598362\H,0,4.6
 2730364,2.75340864,-0.61934624\H,0,3.79309209,3.23013955,0.856816\C,0,
 3.50511304,-1.28284853,2.27927663\H,0,3.07353015,-0.93255184,3.2221529
 4\H,0,3.55346735,-2.37488285,2.35866149\C,0,2.42471647,2.4685348,-0.69
 235043\H,0,1.77491307,3.25785707,-0.30466153\H,0,2.53649675,2.65869174
 ,-1.76479126\C,0,6.37525867,1.24341904,1.35797298\H,0,6.40370835,2.339
 22512,1.36163185\C,0,0.27733987,0.88014933,-0.59815426\H,0,0.,0.,0.\C,
 0,1.89245602,1.32201735,2.12448462\H,0,2.47836036,1.15907262,3.0326881
 3\H,0,1.82292157,2.40354439,1.97838075\H,0,0.88291179,0.94801823,2.324
 04261\C,0,7.21474297,-0.29160626,3.17752571\C,0,6.15992268,-2.56030469
 ,3.36264917\H,0,6.44034176,-2.87946869,2.3491298\H,0,5.23649464,-3.094
 39318,3.61055151\C,0,7.40970945,0.7130019,2.30734602\H,0,8.39510883,1.
 17292924,2.23845068\C,0,5.23251665,-0.58992363,4.67514183\H,0,4.370841
 96,-1.21580168,4.92595427\H,0,5.93969675,-0.6700457,5.50445432\H,0,4.8
 9976773,0.45162104,4.63555314\C,0,8.35002336,-0.74077443,4.07922693\H,
 0,9.27472361,-0.22070193,3.81063277\H,0,8.12700196,-0.4680142,5.123118
 23\C,0,7.27127793,-2.99528746,4.33004868\H,0,6.97527113,-2.79603963,5.
 37058758\H,0,7.43425755,-4.07618156,4.25207835\C,0,-0.57997266,2.07295
 546,-0.1111041\H,0,-0.28419179,2.35012883,0.90578435\H,0,-0.35244651,2
 .94622864,-0.73635847\C,0,8.57761242,-2.25942677,4.03385884\H,0,8.9267
 9739,-2.53684,3.03158708\C,0,-0.04659209,0.54241836,-2.06838503\H,0,0.
 21144884,1.37966803,-2.72927394\H,0,-1.10735719,0.31917371,-2.2170132\
 H,0,0.52126157,-0.33231456,-2.40368388\C,0,-2.11113226,1.87350881,-0.1
 5040031\H,0,-2.57820677,2.81184085,0.17509157\H,0,-2.4340855,1.7391945
 7,-1.18990462\C,0,-2.68194839,0.70795486,0.67890423\H,0,-2.26801792,-0
 .23934389,0.30764607\H,0,-3.76449877,0.65212232,0.49050344\C,0,-2.4658
 2961,0.77005472,2.20569434\H,0,-1.3852209,0.82575767,2.39902165\C,0,-2
 .98637513,-0.51564,2.86837523\H,0,-4.06728401,-0.62527984,2.71222594\H
 ,0,-2.80653737,-0.50828048,3.94955618\H,0,-2.49928846,-1.40540767,2.45
 288606\C,0,-3.11979139,2.0064744,2.84300287\H,0,-4.20191621,2.01281333
 ,2.65797954\H,0,-2.96903977,2.01289506,3.92854003\H,0,-2.70901992,2.94
 137467,2.44860831\\Version=EM64L-G09RevC.01\HF=-1198.9216064\RMSD=5.04
 6e-07\Dipole=-0.5817756,-0.2263538,0.7799275\Quadrupole=-16.2304249,3.
 2451325,12.9852924,1.4842385,5.4922987,2.0440214\PG=C01 [X(C27H46O2)]\
 \@


 IT IS A CAPITAL MISTAKE TO THEORIZE BEFORE ONE HAS
 DATA.  INSENSIBLY ONE BEGINS TO TWIST FACTS TO SUIT
 THEORIES RATHER THAN THEORIES TO SUIT FACTS.

                                         -- SHERLOCK HOLMES
 Job cpu time:  0 days  0 hours 41 minutes 19.6 seconds.
 File lengths (MBytes):  RWF=    151 Int=      0 D2E=      0 Chk=     11 Scr=      1
 Normal termination of Gaussian 09 at Thu May 18 13:28:53 2017.
