 Entering Gaussian System, Link 0=/scratch/michal/g09//g09
 Input=JOB2-gau_m1-14-2.com
 Output=JOB2-gau_m1-14-2.log
 Initial command:
 /scratch/michal/g09/l1.exe /scratch/michal/gauss_scratch/Gau-7816.inp -scrdir=/scratch/michal/gauss_scratch/
 Entering Link 1 = /scratch/michal/g09/l1.exe PID=      7818.
  
 Copyright (c) 1988,1990,1992,1993,1995,1998,2003,2009,2011,
            Gaussian, Inc.  All Rights Reserved.
  
 This is part of the Gaussian(R) 09 program.  It is based on
 the Gaussian(R) 03 system (copyright 2003, Gaussian, Inc.),
 the Gaussian(R) 98 system (copyright 1998, Gaussian, Inc.),
 the Gaussian(R) 94 system (copyright 1995, Gaussian, Inc.),
 the Gaussian 92(TM) system (copyright 1992, Gaussian, Inc.),
 the Gaussian 90(TM) system (copyright 1990, Gaussian, Inc.),
 the Gaussian 88(TM) system (copyright 1988, Gaussian, Inc.),
 the Gaussian 86(TM) system (copyright 1986, Carnegie Mellon
 University), and the Gaussian 82(TM) system (copyright 1983,
 Carnegie Mellon University). Gaussian is a federally registered
 trademark of Gaussian, Inc.
  
 This software contains proprietary and confidential information,
 including trade secrets, belonging to Gaussian, Inc.
  
 This software is provided under written license and may be
 used, copied, transmitted, or stored only in accord with that
 written license.
  
 The following legend is applicable only to US Government
 contracts under FAR:
  
                    RESTRICTED RIGHTS LEGEND
  
 Use, reproduction and disclosure by the US Government is
 subject to restrictions as set forth in subparagraphs (a)
 and (c) of the Commercial Computer Software - Restricted
 Rights clause in FAR 52.227-19.
  
 Gaussian, Inc.
 340 Quinnipiac St., Bldg. 40, Wallingford CT 06492
  
  
 ---------------------------------------------------------------
 Warning -- This program may not be used in any manner that
 competes with the business of Gaussian, Inc. or will provide
 assistance to any competitor of Gaussian, Inc.  The licensee
 of this program is prohibited from giving any competitor of
 Gaussian, Inc. access to this program.  By using this program,
 the user acknowledges that Gaussian, Inc. is engaged in the
 business of creating and licensing software in the field of
 computational chemistry and represents and warrants to the
 licensee that it is not a competitor of Gaussian, Inc. and that
 it will not use this program in any manner prohibited above.
 ---------------------------------------------------------------
  

 Cite this work as:
 Gaussian 09, Revision C.01,
 M. J. Frisch, G. W. Trucks, H. B. Schlegel, G. E. Scuseria, 
 M. A. Robb, J. R. Cheeseman, G. Scalmani, V. Barone, B. Mennucci, 
 G. A. Petersson, H. Nakatsuji, M. Caricato, X. Li, H. P. Hratchian, 
 A. F. Izmaylov, J. Bloino, G. Zheng, J. L. Sonnenberg, M. Hada, 
 M. Ehara, K. Toyota, R. Fukuda, J. Hasegawa, M. Ishida, T. Nakajima, 
 Y. Honda, O. Kitao, H. Nakai, T. Vreven, J. A. Montgomery, Jr., 
 J. E. Peralta, F. Ogliaro, M. Bearpark, J. J. Heyd, E. Brothers, 
 K. N. Kudin, V. N. Staroverov, T. Keith, R. Kobayashi, J. Normand, 
 K. Raghavachari, A. Rendell, J. C. Burant, S. S. Iyengar, J. Tomasi, 
 M. Cossi, N. Rega, J. M. Millam, M. Klene, J. E. Knox, J. B. Cross, 
 V. Bakken, C. Adamo, J. Jaramillo, R. Gomperts, R. E. Stratmann, 
 O. Yazyev, A. J. Austin, R. Cammi, C. Pomelli, J. W. Ochterski, 
 R. L. Martin, K. Morokuma, V. G. Zakrzewski, G. A. Voth, 
 P. Salvador, J. J. Dannenberg, S. Dapprich, A. D. Daniels, 
 O. Farkas, J. B. Foresman, J. V. Ortiz, J. Cioslowski, 
 and D. J. Fox, Gaussian, Inc., Wallingford CT, 2010.
 
 ******************************************
 Gaussian 09:  EM64L-G09RevC.01 23-Sep-2011
                28-Apr-2017 
 ******************************************
 %Mem=256MB
 %NProc=48
 Will use up to   48 processors via shared memory.
 ----------------------------------------------------------------------
 #P HF/6-31G* SCF(Conver=6) NoSymm Test Pop=chelpg IOp(6/33=2) GFInput 
 GFPrint
 ----------------------------------------------------------------------
 1/38=1/1;
 2/12=2,15=1,17=6,18=5,40=1/2;
 3/5=1,6=6,7=1,11=9,16=1,24=110,25=1,30=1/1,2,3;
 4//1;
 5/5=2,6=6,38=5/2;
 6/7=2,8=2,9=2,10=2,15=8,20=3,28=1,33=2/1,2;
 99/5=1,9=1/99;
 Leave Link    1 at Fri Apr 28 13:10:21 2017, MaxMem=   33554432 cpu:       5.8
 (Enter /scratch/michal/g09/l101.exe)
 ----------------------------------------------
 MEP - Input generated by R.E.D.-III.x MOLECULE
 ----------------------------------------------
 Charge =  0 Multiplicity = 1
 Symbolic Z-Matrix:
 C                     7.52134   2.2146    0.0626 
 H                     7.36014   2.18192   1.14711 
 C                     6.82707   1.00734  -0.58278 
 H                     7.20891   0.08049  -0.14401 
 H                     7.10839   0.99139  -1.64846 
 C                     5.31598   1.06255  -0.45749 
 C                     4.62458   2.3596   -0.88938 
 C                     5.41257   3.56488  -0.28784 
 H                     5.21178   3.60267   0.79195 
 H                     5.0279    4.50011  -0.70818 
 C                     6.93441   3.51199  -0.49258 
 H                     7.18153   3.58793  -1.56185 
 H                     7.40789   4.36889   0. 
 C                     4.64074   0.        0. 
 H                     5.18172  -0.89382   0.30255 
 C                     3.14759  -0.1024    0.10385 
 H                     2.84774  -0.20956   1.15792 
 C                     2.38324   1.06205  -0.54731 
 H                     2.32772   0.84152  -1.62121 
 C                     3.16078   2.39191  -0.33043 
 H                     3.26452   2.50216   0.76141 
 C                     2.34375   3.60888  -0.82476 
 H                     2.29278   3.6017   -1.91876 
 H                     2.86486   4.53291  -0.55223 
 C                     0.9116    3.6728   -0.26029 
 H                     0.95823   3.83139   0.82623 
 H                     0.40392   4.54743  -0.68367 
 C                     0.12662   2.37885  -0.54467 
 C                     0.96493   1.20065   0.03633 
 H                     1.11252   1.45039   1.10059 
 C                     0.        0.        0. 
 H                     0.26277  -0.76188   0.74048 
 H                     0.03078  -0.49222  -0.97719 
 C                    -1.39415   0.63172   0.27395 
 H                    -2.11147   0.33183  -0.49672 
 H                    -1.81491   0.29849   1.22916 
 C                    -1.18926   2.1791    0.28523 
 H                    -0.90023   2.43666   1.31376 
 C                    -0.10583   2.22078  -2.0654 
 H                     0.8277    2.05     -2.60749 
 H                    -0.76915   1.38413  -2.29842 
 H                    -0.55679   3.12535  -2.48308 
 C                    -2.50874   2.96536   0.03692 
 H                    -3.21267   2.51752   0.75499 
 C                    -3.16936   2.79873  -1.34661 
 H                    -2.66961   3.39372  -2.11666 
 H                    -4.20947   3.14079  -1.29948 
 H                    -3.18519   1.75888  -1.68569 
 C                     4.65012   2.44182  -2.43918 
 H                     4.30546   3.41862  -2.79275 
 H                     5.66019   2.29578  -2.83079 
 H                     4.018     1.66952  -2.88737 
 O                     2.68702  -1.28767  -0.59315 
 O                     3.16309  -2.45268   0.14603 
 H                     2.31738  -2.82138   0.44997 
 O                     8.94306   2.15128  -0.08127 
 H                     9.15973   2.16909  -1.0241 
 C                    -2.43494   4.47472   0.37503 
 H                    -1.73765   4.96408  -0.31682 
 H                    -3.42117   4.90849   0.15496 
 C                    -2.06093   4.86244   1.81809 
 H                    -1.05017   4.51047   2.05247 
 H                    -2.01327   5.9597    1.86761 
 C                    -3.0515    4.36901   2.88472 
 H                    -3.02142   3.27177   2.95039 
 H                    -4.07041   4.62563   2.55949 
 C                    -2.83197   4.94818   4.29749 
 H                    -2.84069   6.04584   4.2107 
 C                    -3.98294   4.54351   5.23208 
 H                    -4.02206   3.45344   5.3547 
 H                    -3.86093   4.98465   6.22789 
 H                    -4.95223   4.86879   4.83715 
 C                    -1.47943   4.53479   4.90018 
 H                    -1.40842   3.44217   4.98188 
 H                    -1.35603   4.95036   5.90673 
 H                    -0.63512   4.88075   4.29552 
 
 NAtoms=     76 NQM=        0 NQMF=       0 NMMI=     76 NMMIF=      0
                NMic=       0 NMicF=      0.
                    Isotopes and Nuclear Properties:
 (Nuclear quadrupole moments (NQMom) in fm**2, nuclear magnetic moments (NMagM)
  in nuclear magnetons)

  Atom         1           2           3           4           5           6           7           8           9          10
 IAtWgt=          12           1          12           1           1          12          12          12           1           1
 AtmWgt=  12.0000000   1.0078250  12.0000000   1.0078250   1.0078250  12.0000000  12.0000000  12.0000000   1.0078250   1.0078250
 NucSpn=           0           1           0           1           1           0           0           0           1           1
 AtZEff=   0.0000000   0.0000000   0.0000000   0.0000000   0.0000000   0.0000000   0.0000000   0.0000000   0.0000000   0.0000000
 NQMom=    0.0000000   0.0000000   0.0000000   0.0000000   0.0000000   0.0000000   0.0000000   0.0000000   0.0000000   0.0000000
 NMagM=    0.0000000   2.7928460   0.0000000   2.7928460   2.7928460   0.0000000   0.0000000   0.0000000   2.7928460   2.7928460

  Atom        11          12          13          14          15          16          17          18          19          20
 IAtWgt=          12           1           1          12           1          12           1          12           1          12
 AtmWgt=  12.0000000   1.0078250   1.0078250  12.0000000   1.0078250  12.0000000   1.0078250  12.0000000   1.0078250  12.0000000
 NucSpn=           0           1           1           0           1           0           1           0           1           0
 AtZEff=   0.0000000   0.0000000   0.0000000   0.0000000   0.0000000   0.0000000   0.0000000   0.0000000   0.0000000   0.0000000
 NQMom=    0.0000000   0.0000000   0.0000000   0.0000000   0.0000000   0.0000000   0.0000000   0.0000000   0.0000000   0.0000000
 NMagM=    0.0000000   2.7928460   2.7928460   0.0000000   2.7928460   0.0000000   2.7928460   0.0000000   2.7928460   0.0000000

  Atom        21          22          23          24          25          26          27          28          29          30
 IAtWgt=           1          12           1           1          12           1           1          12          12           1
 AtmWgt=   1.0078250  12.0000000   1.0078250   1.0078250  12.0000000   1.0078250   1.0078250  12.0000000  12.0000000   1.0078250
 NucSpn=           1           0           1           1           0           1           1           0           0           1
 AtZEff=   0.0000000   0.0000000   0.0000000   0.0000000   0.0000000   0.0000000   0.0000000   0.0000000   0.0000000   0.0000000
 NQMom=    0.0000000   0.0000000   0.0000000   0.0000000   0.0000000   0.0000000   0.0000000   0.0000000   0.0000000   0.0000000
 NMagM=    2.7928460   0.0000000   2.7928460   2.7928460   0.0000000   2.7928460   2.7928460   0.0000000   0.0000000   2.7928460

  Atom        31          32          33          34          35          36          37          38          39          40
 IAtWgt=          12           1           1          12           1           1          12           1          12           1
 AtmWgt=  12.0000000   1.0078250   1.0078250  12.0000000   1.0078250   1.0078250  12.0000000   1.0078250  12.0000000   1.0078250
 NucSpn=           0           1           1           0           1           1           0           1           0           1
 AtZEff=   0.0000000   0.0000000   0.0000000   0.0000000   0.0000000   0.0000000   0.0000000   0.0000000   0.0000000   0.0000000
 NQMom=    0.0000000   0.0000000   0.0000000   0.0000000   0.0000000   0.0000000   0.0000000   0.0000000   0.0000000   0.0000000
 NMagM=    0.0000000   2.7928460   2.7928460   0.0000000   2.7928460   2.7928460   0.0000000   2.7928460   0.0000000   2.7928460

  Atom        41          42          43          44          45          46          47          48          49          50
 IAtWgt=           1           1          12           1          12           1           1           1          12           1
 AtmWgt=   1.0078250   1.0078250  12.0000000   1.0078250  12.0000000   1.0078250   1.0078250   1.0078250  12.0000000   1.0078250
 NucSpn=           1           1           0           1           0           1           1           1           0           1
 AtZEff=   0.0000000   0.0000000   0.0000000   0.0000000   0.0000000   0.0000000   0.0000000   0.0000000   0.0000000   0.0000000
 NQMom=    0.0000000   0.0000000   0.0000000   0.0000000   0.0000000   0.0000000   0.0000000   0.0000000   0.0000000   0.0000000
 NMagM=    2.7928460   2.7928460   0.0000000   2.7928460   0.0000000   2.7928460   2.7928460   2.7928460   0.0000000   2.7928460

  Atom        51          52          53          54          55          56          57          58          59          60
 IAtWgt=           1           1          16          16           1          16           1          12           1           1
 AtmWgt=   1.0078250   1.0078250  15.9949146  15.9949146   1.0078250  15.9949146   1.0078250  12.0000000   1.0078250   1.0078250
 NucSpn=           1           1           0           0           1           0           1           0           1           1
 AtZEff=   0.0000000   0.0000000   0.0000000   0.0000000   0.0000000   0.0000000   0.0000000   0.0000000   0.0000000   0.0000000
 NQMom=    0.0000000   0.0000000   0.0000000   0.0000000   0.0000000   0.0000000   0.0000000   0.0000000   0.0000000   0.0000000
 NMagM=    2.7928460   2.7928460   0.0000000   0.0000000   2.7928460   0.0000000   2.7928460   0.0000000   2.7928460   2.7928460

  Atom        61          62          63          64          65          66          67          68          69          70
 IAtWgt=          12           1           1          12           1           1          12           1          12           1
 AtmWgt=  12.0000000   1.0078250   1.0078250  12.0000000   1.0078250   1.0078250  12.0000000   1.0078250  12.0000000   1.0078250
 NucSpn=           0           1           1           0           1           1           0           1           0           1
 AtZEff=   0.0000000   0.0000000   0.0000000   0.0000000   0.0000000   0.0000000   0.0000000   0.0000000   0.0000000   0.0000000
 NQMom=    0.0000000   0.0000000   0.0000000   0.0000000   0.0000000   0.0000000   0.0000000   0.0000000   0.0000000   0.0000000
 NMagM=    0.0000000   2.7928460   2.7928460   0.0000000   2.7928460   2.7928460   0.0000000   2.7928460   0.0000000   2.7928460

  Atom        71          72          73          74          75          76
 IAtWgt=           1           1          12           1           1           1
 AtmWgt=   1.0078250   1.0078250  12.0000000   1.0078250   1.0078250   1.0078250
 NucSpn=           1           1           0           1           1           1
 AtZEff=   0.0000000   0.0000000   0.0000000   0.0000000   0.0000000   0.0000000
 NQMom=    0.0000000   0.0000000   0.0000000   0.0000000   0.0000000   0.0000000
 NMagM=    2.7928460   2.7928460   0.0000000   2.7928460   2.7928460   2.7928460
 Leave Link  101 at Fri Apr 28 13:10:21 2017, MaxMem=   33554432 cpu:      13.3
 (Enter /scratch/michal/g09/l202.exe)
 Symmetry turned off by external request.
 Stoichiometry    C27H46O3
 Framework group  C1[X(C27H46O3)]
 Deg. of freedom   222
 Full point group                 C1      NOp   1
                          Input orientation:                          
 ---------------------------------------------------------------------
 Center     Atomic      Atomic             Coordinates (Angstroms)
 Number     Number       Type             X           Y           Z
 ---------------------------------------------------------------------
      1          6           0        7.521342    2.214598    0.062597
      2          1           0        7.360137    2.181918    1.147113
      3          6           0        6.827067    1.007337   -0.582776
      4          1           0        7.208912    0.080492   -0.144015
      5          1           0        7.108392    0.991387   -1.648460
      6          6           0        5.315978    1.062552   -0.457486
      7          6           0        4.624575    2.359603   -0.889379
      8          6           0        5.412569    3.564879   -0.287837
      9          1           0        5.211780    3.602671    0.791949
     10          1           0        5.027904    4.500113   -0.708177
     11          6           0        6.934412    3.511987   -0.492581
     12          1           0        7.181525    3.587927   -1.561849
     13          1           0        7.407887    4.368892    0.000000
     14          6           0        4.640738    0.000000    0.000000
     15          1           0        5.181718   -0.893818    0.302547
     16          6           0        3.147588   -0.102399    0.103847
     17          1           0        2.847745   -0.209563    1.157921
     18          6           0        2.383236    1.062050   -0.547309
     19          1           0        2.327723    0.841520   -1.621209
     20          6           0        3.160785    2.391905   -0.330428
     21          1           0        3.264525    2.502159    0.761408
     22          6           0        2.343750    3.608881   -0.824756
     23          1           0        2.292780    3.601697   -1.918764
     24          1           0        2.864862    4.532906   -0.552227
     25          6           0        0.911597    3.672804   -0.260295
     26          1           0        0.958225    3.831390    0.826228
     27          1           0        0.403919    4.547433   -0.683674
     28          6           0        0.126620    2.378848   -0.544669
     29          6           0        0.964934    1.200648    0.036329
     30          1           0        1.112523    1.450391    1.100592
     31          6           0        0.000000    0.000000    0.000000
     32          1           0        0.262769   -0.761875    0.740476
     33          1           0        0.030780   -0.492215   -0.977188
     34          6           0       -1.394153    0.631719    0.273947
     35          1           0       -2.111469    0.331834   -0.496725
     36          1           0       -1.814914    0.298495    1.229158
     37          6           0       -1.189258    2.179097    0.285226
     38          1           0       -0.900232    2.436657    1.313759
     39          6           0       -0.105825    2.220783   -2.065397
     40          1           0        0.827698    2.049999   -2.607493
     41          1           0       -0.769151    1.384131   -2.298416
     42          1           0       -0.556792    3.125346   -2.483077
     43          6           0       -2.508738    2.965355    0.036915
     44          1           0       -3.212666    2.517519    0.754988
     45          6           0       -3.169365    2.798731   -1.346612
     46          1           0       -2.669605    3.393725   -2.116657
     47          1           0       -4.209471    3.140794   -1.299485
     48          1           0       -3.185192    1.758879   -1.685694
     49          6           0        4.650124    2.441822   -2.439181
     50          1           0        4.305465    3.418616   -2.792747
     51          1           0        5.660187    2.295780   -2.830785
     52          1           0        4.018000    1.669517   -2.887367
     53          8           0        2.687022   -1.287672   -0.593147
     54          8           0        3.163085   -2.452679    0.146029
     55          1           0        2.317380   -2.821378    0.449968
     56          8           0        8.943062    2.151282   -0.081271
     57          1           0        9.159727    2.169090   -1.024100
     58          6           0       -2.434943    4.474721    0.375031
     59          1           0       -1.737646    4.964082   -0.316818
     60          1           0       -3.421171    4.908493    0.154964
     61          6           0       -2.060933    4.862439    1.818093
     62          1           0       -1.050175    4.510469    2.052472
     63          1           0       -2.013274    5.959700    1.867609
     64          6           0       -3.051502    4.369010    2.884721
     65          1           0       -3.021424    3.271772    2.950391
     66          1           0       -4.070411    4.625626    2.559492
     67          6           0       -2.831966    4.948177    4.297491
     68          1           0       -2.840694    6.045838    4.210695
     69          6           0       -3.982935    4.543508    5.232082
     70          1           0       -4.022058    3.453440    5.354704
     71          1           0       -3.860934    4.984647    6.227893
     72          1           0       -4.952234    4.868794    4.837155
     73          6           0       -1.479429    4.534786    4.900180
     74          1           0       -1.408416    3.442169    4.981880
     75          1           0       -1.356028    4.950364    5.906728
     76          1           0       -0.635117    4.880749    4.295524
 ---------------------------------------------------------------------
 Rotational constants (GHZ):      0.2282348      0.0709813      0.0653684
 Leave Link  202 at Fri Apr 28 13:10:21 2017, MaxMem=   33554432 cpu:       0.1
 (Enter /scratch/michal/g09/l301.exe)
 Standard basis: 6-31G(d) (6D, 7F)
 Ernie: Thresh=  0.10000D-02 Tol=  0.10000D-05 Strict=F.
 AO basis set in the form of general basis input (Overlap normalization):
      1 0
 S   6 1.00       0.000000000000
      0.3047524880D+04  0.1834737132D-02
      0.4573695180D+03  0.1403732281D-01
      0.1039486850D+03  0.6884262226D-01
      0.2921015530D+02  0.2321844432D+00
      0.9286662960D+01  0.4679413484D+00
      0.3163926960D+01  0.3623119853D+00
 SP   3 1.00       0.000000000000
      0.7868272350D+01 -0.1193324198D+00  0.6899906659D-01
      0.1881288540D+01 -0.1608541517D+00  0.3164239610D+00
      0.5442492580D+00  0.1143456438D+01  0.7443082909D+00
 SP   1 1.00       0.000000000000
      0.1687144782D+00  0.1000000000D+01  0.1000000000D+01
 D   1 1.00       0.000000000000
      0.8000000000D+00  0.1000000000D+01
 ****
      2 0
 S   3 1.00       0.000000000000
      0.1873113696D+02  0.3349460434D-01
      0.2825394365D+01  0.2347269535D+00
      0.6401216923D+00  0.8137573261D+00
 S   1 1.00       0.000000000000
      0.1612777588D+00  0.1000000000D+01
 ****
      3 0
 S   6 1.00       0.000000000000
      0.3047524880D+04  0.1834737132D-02
      0.4573695180D+03  0.1403732281D-01
      0.1039486850D+03  0.6884262226D-01
      0.2921015530D+02  0.2321844432D+00
      0.9286662960D+01  0.4679413484D+00
      0.3163926960D+01  0.3623119853D+00
 SP   3 1.00       0.000000000000
      0.7868272350D+01 -0.1193324198D+00  0.6899906659D-01
      0.1881288540D+01 -0.1608541517D+00  0.3164239610D+00
      0.5442492580D+00  0.1143456438D+01  0.7443082909D+00
 SP   1 1.00       0.000000000000
      0.1687144782D+00  0.1000000000D+01  0.1000000000D+01
 D   1 1.00       0.000000000000
      0.8000000000D+00  0.1000000000D+01
 ****
      4 0
 S   3 1.00       0.000000000000
      0.1873113696D+02  0.3349460434D-01
      0.2825394365D+01  0.2347269535D+00
      0.6401216923D+00  0.8137573261D+00
 S   1 1.00       0.000000000000
      0.1612777588D+00  0.1000000000D+01
 ****
      5 0
 S   3 1.00       0.000000000000
      0.1873113696D+02  0.3349460434D-01
      0.2825394365D+01  0.2347269535D+00
      0.6401216923D+00  0.8137573261D+00
 S   1 1.00       0.000000000000
      0.1612777588D+00  0.1000000000D+01
 ****
      6 0
 S   6 1.00       0.000000000000
      0.3047524880D+04  0.1834737132D-02
      0.4573695180D+03  0.1403732281D-01
      0.1039486850D+03  0.6884262226D-01
      0.2921015530D+02  0.2321844432D+00
      0.9286662960D+01  0.4679413484D+00
      0.3163926960D+01  0.3623119853D+00
 SP   3 1.00       0.000000000000
      0.7868272350D+01 -0.1193324198D+00  0.6899906659D-01
      0.1881288540D+01 -0.1608541517D+00  0.3164239610D+00
      0.5442492580D+00  0.1143456438D+01  0.7443082909D+00
 SP   1 1.00       0.000000000000
      0.1687144782D+00  0.1000000000D+01  0.1000000000D+01
 D   1 1.00       0.000000000000
      0.8000000000D+00  0.1000000000D+01
 ****
      7 0
 S   6 1.00       0.000000000000
      0.3047524880D+04  0.1834737132D-02
      0.4573695180D+03  0.1403732281D-01
      0.1039486850D+03  0.6884262226D-01
      0.2921015530D+02  0.2321844432D+00
      0.9286662960D+01  0.4679413484D+00
      0.3163926960D+01  0.3623119853D+00
 SP   3 1.00       0.000000000000
      0.7868272350D+01 -0.1193324198D+00  0.6899906659D-01
      0.1881288540D+01 -0.1608541517D+00  0.3164239610D+00
      0.5442492580D+00  0.1143456438D+01  0.7443082909D+00
 SP   1 1.00       0.000000000000
      0.1687144782D+00  0.1000000000D+01  0.1000000000D+01
 D   1 1.00       0.000000000000
      0.8000000000D+00  0.1000000000D+01
 ****
      8 0
 S   6 1.00       0.000000000000
      0.3047524880D+04  0.1834737132D-02
      0.4573695180D+03  0.1403732281D-01
      0.1039486850D+03  0.6884262226D-01
      0.2921015530D+02  0.2321844432D+00
      0.9286662960D+01  0.4679413484D+00
      0.3163926960D+01  0.3623119853D+00
 SP   3 1.00       0.000000000000
      0.7868272350D+01 -0.1193324198D+00  0.6899906659D-01
      0.1881288540D+01 -0.1608541517D+00  0.3164239610D+00
      0.5442492580D+00  0.1143456438D+01  0.7443082909D+00
 SP   1 1.00       0.000000000000
      0.1687144782D+00  0.1000000000D+01  0.1000000000D+01
 D   1 1.00       0.000000000000
      0.8000000000D+00  0.1000000000D+01
 ****
      9 0
 S   3 1.00       0.000000000000
      0.1873113696D+02  0.3349460434D-01
      0.2825394365D+01  0.2347269535D+00
      0.6401216923D+00  0.8137573261D+00
 S   1 1.00       0.000000000000
      0.1612777588D+00  0.1000000000D+01
 ****
     10 0
 S   3 1.00       0.000000000000
      0.1873113696D+02  0.3349460434D-01
      0.2825394365D+01  0.2347269535D+00
      0.6401216923D+00  0.8137573261D+00
 S   1 1.00       0.000000000000
      0.1612777588D+00  0.1000000000D+01
 ****
     11 0
 S   6 1.00       0.000000000000
      0.3047524880D+04  0.1834737132D-02
      0.4573695180D+03  0.1403732281D-01
      0.1039486850D+03  0.6884262226D-01
      0.2921015530D+02  0.2321844432D+00
      0.9286662960D+01  0.4679413484D+00
      0.3163926960D+01  0.3623119853D+00
 SP   3 1.00       0.000000000000
      0.7868272350D+01 -0.1193324198D+00  0.6899906659D-01
      0.1881288540D+01 -0.1608541517D+00  0.3164239610D+00
      0.5442492580D+00  0.1143456438D+01  0.7443082909D+00
 SP   1 1.00       0.000000000000
      0.1687144782D+00  0.1000000000D+01  0.1000000000D+01
 D   1 1.00       0.000000000000
      0.8000000000D+00  0.1000000000D+01
 ****
     12 0
 S   3 1.00       0.000000000000
      0.1873113696D+02  0.3349460434D-01
      0.2825394365D+01  0.2347269535D+00
      0.6401216923D+00  0.8137573261D+00
 S   1 1.00       0.000000000000
      0.1612777588D+00  0.1000000000D+01
 ****
     13 0
 S   3 1.00       0.000000000000
      0.1873113696D+02  0.3349460434D-01
      0.2825394365D+01  0.2347269535D+00
      0.6401216923D+00  0.8137573261D+00
 S   1 1.00       0.000000000000
      0.1612777588D+00  0.1000000000D+01
 ****
     14 0
 S   6 1.00       0.000000000000
      0.3047524880D+04  0.1834737132D-02
      0.4573695180D+03  0.1403732281D-01
      0.1039486850D+03  0.6884262226D-01
      0.2921015530D+02  0.2321844432D+00
      0.9286662960D+01  0.4679413484D+00
      0.3163926960D+01  0.3623119853D+00
 SP   3 1.00       0.000000000000
      0.7868272350D+01 -0.1193324198D+00  0.6899906659D-01
      0.1881288540D+01 -0.1608541517D+00  0.3164239610D+00
      0.5442492580D+00  0.1143456438D+01  0.7443082909D+00
 SP   1 1.00       0.000000000000
      0.1687144782D+00  0.1000000000D+01  0.1000000000D+01
 D   1 1.00       0.000000000000
      0.8000000000D+00  0.1000000000D+01
 ****
     15 0
 S   3 1.00       0.000000000000
      0.1873113696D+02  0.3349460434D-01
      0.2825394365D+01  0.2347269535D+00
      0.6401216923D+00  0.8137573261D+00
 S   1 1.00       0.000000000000
      0.1612777588D+00  0.1000000000D+01
 ****
     16 0
 S   6 1.00       0.000000000000
      0.3047524880D+04  0.1834737132D-02
      0.4573695180D+03  0.1403732281D-01
      0.1039486850D+03  0.6884262226D-01
      0.2921015530D+02  0.2321844432D+00
      0.9286662960D+01  0.4679413484D+00
      0.3163926960D+01  0.3623119853D+00
 SP   3 1.00       0.000000000000
      0.7868272350D+01 -0.1193324198D+00  0.6899906659D-01
      0.1881288540D+01 -0.1608541517D+00  0.3164239610D+00
      0.5442492580D+00  0.1143456438D+01  0.7443082909D+00
 SP   1 1.00       0.000000000000
      0.1687144782D+00  0.1000000000D+01  0.1000000000D+01
 D   1 1.00       0.000000000000
      0.8000000000D+00  0.1000000000D+01
 ****
     17 0
 S   3 1.00       0.000000000000
      0.1873113696D+02  0.3349460434D-01
      0.2825394365D+01  0.2347269535D+00
      0.6401216923D+00  0.8137573261D+00
 S   1 1.00       0.000000000000
      0.1612777588D+00  0.1000000000D+01
 ****
     18 0
 S   6 1.00       0.000000000000
      0.3047524880D+04  0.1834737132D-02
      0.4573695180D+03  0.1403732281D-01
      0.1039486850D+03  0.6884262226D-01
      0.2921015530D+02  0.2321844432D+00
      0.9286662960D+01  0.4679413484D+00
      0.3163926960D+01  0.3623119853D+00
 SP   3 1.00       0.000000000000
      0.7868272350D+01 -0.1193324198D+00  0.6899906659D-01
      0.1881288540D+01 -0.1608541517D+00  0.3164239610D+00
      0.5442492580D+00  0.1143456438D+01  0.7443082909D+00
 SP   1 1.00       0.000000000000
      0.1687144782D+00  0.1000000000D+01  0.1000000000D+01
 D   1 1.00       0.000000000000
      0.8000000000D+00  0.1000000000D+01
 ****
     19 0
 S   3 1.00       0.000000000000
      0.1873113696D+02  0.3349460434D-01
      0.2825394365D+01  0.2347269535D+00
      0.6401216923D+00  0.8137573261D+00
 S   1 1.00       0.000000000000
      0.1612777588D+00  0.1000000000D+01
 ****
     20 0
 S   6 1.00       0.000000000000
      0.3047524880D+04  0.1834737132D-02
      0.4573695180D+03  0.1403732281D-01
      0.1039486850D+03  0.6884262226D-01
      0.2921015530D+02  0.2321844432D+00
      0.9286662960D+01  0.4679413484D+00
      0.3163926960D+01  0.3623119853D+00
 SP   3 1.00       0.000000000000
      0.7868272350D+01 -0.1193324198D+00  0.6899906659D-01
      0.1881288540D+01 -0.1608541517D+00  0.3164239610D+00
      0.5442492580D+00  0.1143456438D+01  0.7443082909D+00
 SP   1 1.00       0.000000000000
      0.1687144782D+00  0.1000000000D+01  0.1000000000D+01
 D   1 1.00       0.000000000000
      0.8000000000D+00  0.1000000000D+01
 ****
     21 0
 S   3 1.00       0.000000000000
      0.1873113696D+02  0.3349460434D-01
      0.2825394365D+01  0.2347269535D+00
      0.6401216923D+00  0.8137573261D+00
 S   1 1.00       0.000000000000
      0.1612777588D+00  0.1000000000D+01
 ****
     22 0
 S   6 1.00       0.000000000000
      0.3047524880D+04  0.1834737132D-02
      0.4573695180D+03  0.1403732281D-01
      0.1039486850D+03  0.6884262226D-01
      0.2921015530D+02  0.2321844432D+00
      0.9286662960D+01  0.4679413484D+00
      0.3163926960D+01  0.3623119853D+00
 SP   3 1.00       0.000000000000
      0.7868272350D+01 -0.1193324198D+00  0.6899906659D-01
      0.1881288540D+01 -0.1608541517D+00  0.3164239610D+00
      0.5442492580D+00  0.1143456438D+01  0.7443082909D+00
 SP   1 1.00       0.000000000000
      0.1687144782D+00  0.1000000000D+01  0.1000000000D+01
 D   1 1.00       0.000000000000
      0.8000000000D+00  0.1000000000D+01
 ****
     23 0
 S   3 1.00       0.000000000000
      0.1873113696D+02  0.3349460434D-01
      0.2825394365D+01  0.2347269535D+00
      0.6401216923D+00  0.8137573261D+00
 S   1 1.00       0.000000000000
      0.1612777588D+00  0.1000000000D+01
 ****
     24 0
 S   3 1.00       0.000000000000
      0.1873113696D+02  0.3349460434D-01
      0.2825394365D+01  0.2347269535D+00
      0.6401216923D+00  0.8137573261D+00
 S   1 1.00       0.000000000000
      0.1612777588D+00  0.1000000000D+01
 ****
     25 0
 S   6 1.00       0.000000000000
      0.3047524880D+04  0.1834737132D-02
      0.4573695180D+03  0.1403732281D-01
      0.1039486850D+03  0.6884262226D-01
      0.2921015530D+02  0.2321844432D+00
      0.9286662960D+01  0.4679413484D+00
      0.3163926960D+01  0.3623119853D+00
 SP   3 1.00       0.000000000000
      0.7868272350D+01 -0.1193324198D+00  0.6899906659D-01
      0.1881288540D+01 -0.1608541517D+00  0.3164239610D+00
      0.5442492580D+00  0.1143456438D+01  0.7443082909D+00
 SP   1 1.00       0.000000000000
      0.1687144782D+00  0.1000000000D+01  0.1000000000D+01
 D   1 1.00       0.000000000000
      0.8000000000D+00  0.1000000000D+01
 ****
     26 0
 S   3 1.00       0.000000000000
      0.1873113696D+02  0.3349460434D-01
      0.2825394365D+01  0.2347269535D+00
      0.6401216923D+00  0.8137573261D+00
 S   1 1.00       0.000000000000
      0.1612777588D+00  0.1000000000D+01
 ****
     27 0
 S   3 1.00       0.000000000000
      0.1873113696D+02  0.3349460434D-01
      0.2825394365D+01  0.2347269535D+00
      0.6401216923D+00  0.8137573261D+00
 S   1 1.00       0.000000000000
      0.1612777588D+00  0.1000000000D+01
 ****
     28 0
 S   6 1.00       0.000000000000
      0.3047524880D+04  0.1834737132D-02
      0.4573695180D+03  0.1403732281D-01
      0.1039486850D+03  0.6884262226D-01
      0.2921015530D+02  0.2321844432D+00
      0.9286662960D+01  0.4679413484D+00
      0.3163926960D+01  0.3623119853D+00
 SP   3 1.00       0.000000000000
      0.7868272350D+01 -0.1193324198D+00  0.6899906659D-01
      0.1881288540D+01 -0.1608541517D+00  0.3164239610D+00
      0.5442492580D+00  0.1143456438D+01  0.7443082909D+00
 SP   1 1.00       0.000000000000
      0.1687144782D+00  0.1000000000D+01  0.1000000000D+01
 D   1 1.00       0.000000000000
      0.8000000000D+00  0.1000000000D+01
 ****
     29 0
 S   6 1.00       0.000000000000
      0.3047524880D+04  0.1834737132D-02
      0.4573695180D+03  0.1403732281D-01
      0.1039486850D+03  0.6884262226D-01
      0.2921015530D+02  0.2321844432D+00
      0.9286662960D+01  0.4679413484D+00
      0.3163926960D+01  0.3623119853D+00
 SP   3 1.00       0.000000000000
      0.7868272350D+01 -0.1193324198D+00  0.6899906659D-01
      0.1881288540D+01 -0.1608541517D+00  0.3164239610D+00
      0.5442492580D+00  0.1143456438D+01  0.7443082909D+00
 SP   1 1.00       0.000000000000
      0.1687144782D+00  0.1000000000D+01  0.1000000000D+01
 D   1 1.00       0.000000000000
      0.8000000000D+00  0.1000000000D+01
 ****
     30 0
 S   3 1.00       0.000000000000
      0.1873113696D+02  0.3349460434D-01
      0.2825394365D+01  0.2347269535D+00
      0.6401216923D+00  0.8137573261D+00
 S   1 1.00       0.000000000000
      0.1612777588D+00  0.1000000000D+01
 ****
     31 0
 S   6 1.00       0.000000000000
      0.3047524880D+04  0.1834737132D-02
      0.4573695180D+03  0.1403732281D-01
      0.1039486850D+03  0.6884262226D-01
      0.2921015530D+02  0.2321844432D+00
      0.9286662960D+01  0.4679413484D+00
      0.3163926960D+01  0.3623119853D+00
 SP   3 1.00       0.000000000000
      0.7868272350D+01 -0.1193324198D+00  0.6899906659D-01
      0.1881288540D+01 -0.1608541517D+00  0.3164239610D+00
      0.5442492580D+00  0.1143456438D+01  0.7443082909D+00
 SP   1 1.00       0.000000000000
      0.1687144782D+00  0.1000000000D+01  0.1000000000D+01
 D   1 1.00       0.000000000000
      0.8000000000D+00  0.1000000000D+01
 ****
     32 0
 S   3 1.00       0.000000000000
      0.1873113696D+02  0.3349460434D-01
      0.2825394365D+01  0.2347269535D+00
      0.6401216923D+00  0.8137573261D+00
 S   1 1.00       0.000000000000
      0.1612777588D+00  0.1000000000D+01
 ****
     33 0
 S   3 1.00       0.000000000000
      0.1873113696D+02  0.3349460434D-01
      0.2825394365D+01  0.2347269535D+00
      0.6401216923D+00  0.8137573261D+00
 S   1 1.00       0.000000000000
      0.1612777588D+00  0.1000000000D+01
 ****
     34 0
 S   6 1.00       0.000000000000
      0.3047524880D+04  0.1834737132D-02
      0.4573695180D+03  0.1403732281D-01
      0.1039486850D+03  0.6884262226D-01
      0.2921015530D+02  0.2321844432D+00
      0.9286662960D+01  0.4679413484D+00
      0.3163926960D+01  0.3623119853D+00
 SP   3 1.00       0.000000000000
      0.7868272350D+01 -0.1193324198D+00  0.6899906659D-01
      0.1881288540D+01 -0.1608541517D+00  0.3164239610D+00
      0.5442492580D+00  0.1143456438D+01  0.7443082909D+00
 SP   1 1.00       0.000000000000
      0.1687144782D+00  0.1000000000D+01  0.1000000000D+01
 D   1 1.00       0.000000000000
      0.8000000000D+00  0.1000000000D+01
 ****
     35 0
 S   3 1.00       0.000000000000
      0.1873113696D+02  0.3349460434D-01
      0.2825394365D+01  0.2347269535D+00
      0.6401216923D+00  0.8137573261D+00
 S   1 1.00       0.000000000000
      0.1612777588D+00  0.1000000000D+01
 ****
     36 0
 S   3 1.00       0.000000000000
      0.1873113696D+02  0.3349460434D-01
      0.2825394365D+01  0.2347269535D+00
      0.6401216923D+00  0.8137573261D+00
 S   1 1.00       0.000000000000
      0.1612777588D+00  0.1000000000D+01
 ****
     37 0
 S   6 1.00       0.000000000000
      0.3047524880D+04  0.1834737132D-02
      0.4573695180D+03  0.1403732281D-01
      0.1039486850D+03  0.6884262226D-01
      0.2921015530D+02  0.2321844432D+00
      0.9286662960D+01  0.4679413484D+00
      0.3163926960D+01  0.3623119853D+00
 SP   3 1.00       0.000000000000
      0.7868272350D+01 -0.1193324198D+00  0.6899906659D-01
      0.1881288540D+01 -0.1608541517D+00  0.3164239610D+00
      0.5442492580D+00  0.1143456438D+01  0.7443082909D+00
 SP   1 1.00       0.000000000000
      0.1687144782D+00  0.1000000000D+01  0.1000000000D+01
 D   1 1.00       0.000000000000
      0.8000000000D+00  0.1000000000D+01
 ****
     38 0
 S   3 1.00       0.000000000000
      0.1873113696D+02  0.3349460434D-01
      0.2825394365D+01  0.2347269535D+00
      0.6401216923D+00  0.8137573261D+00
 S   1 1.00       0.000000000000
      0.1612777588D+00  0.1000000000D+01
 ****
     39 0
 S   6 1.00       0.000000000000
      0.3047524880D+04  0.1834737132D-02
      0.4573695180D+03  0.1403732281D-01
      0.1039486850D+03  0.6884262226D-01
      0.2921015530D+02  0.2321844432D+00
      0.9286662960D+01  0.4679413484D+00
      0.3163926960D+01  0.3623119853D+00
 SP   3 1.00       0.000000000000
      0.7868272350D+01 -0.1193324198D+00  0.6899906659D-01
      0.1881288540D+01 -0.1608541517D+00  0.3164239610D+00
      0.5442492580D+00  0.1143456438D+01  0.7443082909D+00
 SP   1 1.00       0.000000000000
      0.1687144782D+00  0.1000000000D+01  0.1000000000D+01
 D   1 1.00       0.000000000000
      0.8000000000D+00  0.1000000000D+01
 ****
     40 0
 S   3 1.00       0.000000000000
      0.1873113696D+02  0.3349460434D-01
      0.2825394365D+01  0.2347269535D+00
      0.6401216923D+00  0.8137573261D+00
 S   1 1.00       0.000000000000
      0.1612777588D+00  0.1000000000D+01
 ****
     41 0
 S   3 1.00       0.000000000000
      0.1873113696D+02  0.3349460434D-01
      0.2825394365D+01  0.2347269535D+00
      0.6401216923D+00  0.8137573261D+00
 S   1 1.00       0.000000000000
      0.1612777588D+00  0.1000000000D+01
 ****
     42 0
 S   3 1.00       0.000000000000
      0.1873113696D+02  0.3349460434D-01
      0.2825394365D+01  0.2347269535D+00
      0.6401216923D+00  0.8137573261D+00
 S   1 1.00       0.000000000000
      0.1612777588D+00  0.1000000000D+01
 ****
     43 0
 S   6 1.00       0.000000000000
      0.3047524880D+04  0.1834737132D-02
      0.4573695180D+03  0.1403732281D-01
      0.1039486850D+03  0.6884262226D-01
      0.2921015530D+02  0.2321844432D+00
      0.9286662960D+01  0.4679413484D+00
      0.3163926960D+01  0.3623119853D+00
 SP   3 1.00       0.000000000000
      0.7868272350D+01 -0.1193324198D+00  0.6899906659D-01
      0.1881288540D+01 -0.1608541517D+00  0.3164239610D+00
      0.5442492580D+00  0.1143456438D+01  0.7443082909D+00
 SP   1 1.00       0.000000000000
      0.1687144782D+00  0.1000000000D+01  0.1000000000D+01
 D   1 1.00       0.000000000000
      0.8000000000D+00  0.1000000000D+01
 ****
     44 0
 S   3 1.00       0.000000000000
      0.1873113696D+02  0.3349460434D-01
      0.2825394365D+01  0.2347269535D+00
      0.6401216923D+00  0.8137573261D+00
 S   1 1.00       0.000000000000
      0.1612777588D+00  0.1000000000D+01
 ****
     45 0
 S   6 1.00       0.000000000000
      0.3047524880D+04  0.1834737132D-02
      0.4573695180D+03  0.1403732281D-01
      0.1039486850D+03  0.6884262226D-01
      0.2921015530D+02  0.2321844432D+00
      0.9286662960D+01  0.4679413484D+00
      0.3163926960D+01  0.3623119853D+00
 SP   3 1.00       0.000000000000
      0.7868272350D+01 -0.1193324198D+00  0.6899906659D-01
      0.1881288540D+01 -0.1608541517D+00  0.3164239610D+00
      0.5442492580D+00  0.1143456438D+01  0.7443082909D+00
 SP   1 1.00       0.000000000000
      0.1687144782D+00  0.1000000000D+01  0.1000000000D+01
 D   1 1.00       0.000000000000
      0.8000000000D+00  0.1000000000D+01
 ****
     46 0
 S   3 1.00       0.000000000000
      0.1873113696D+02  0.3349460434D-01
      0.2825394365D+01  0.2347269535D+00
      0.6401216923D+00  0.8137573261D+00
 S   1 1.00       0.000000000000
      0.1612777588D+00  0.1000000000D+01
 ****
     47 0
 S   3 1.00       0.000000000000
      0.1873113696D+02  0.3349460434D-01
      0.2825394365D+01  0.2347269535D+00
      0.6401216923D+00  0.8137573261D+00
 S   1 1.00       0.000000000000
      0.1612777588D+00  0.1000000000D+01
 ****
     48 0
 S   3 1.00       0.000000000000
      0.1873113696D+02  0.3349460434D-01
      0.2825394365D+01  0.2347269535D+00
      0.6401216923D+00  0.8137573261D+00
 S   1 1.00       0.000000000000
      0.1612777588D+00  0.1000000000D+01
 ****
     49 0
 S   6 1.00       0.000000000000
      0.3047524880D+04  0.1834737132D-02
      0.4573695180D+03  0.1403732281D-01
      0.1039486850D+03  0.6884262226D-01
      0.2921015530D+02  0.2321844432D+00
      0.9286662960D+01  0.4679413484D+00
      0.3163926960D+01  0.3623119853D+00
 SP   3 1.00       0.000000000000
      0.7868272350D+01 -0.1193324198D+00  0.6899906659D-01
      0.1881288540D+01 -0.1608541517D+00  0.3164239610D+00
      0.5442492580D+00  0.1143456438D+01  0.7443082909D+00
 SP   1 1.00       0.000000000000
      0.1687144782D+00  0.1000000000D+01  0.1000000000D+01
 D   1 1.00       0.000000000000
      0.8000000000D+00  0.1000000000D+01
 ****
     50 0
 S   3 1.00       0.000000000000
      0.1873113696D+02  0.3349460434D-01
      0.2825394365D+01  0.2347269535D+00
      0.6401216923D+00  0.8137573261D+00
 S   1 1.00       0.000000000000
      0.1612777588D+00  0.1000000000D+01
 ****
     51 0
 S   3 1.00       0.000000000000
      0.1873113696D+02  0.3349460434D-01
      0.2825394365D+01  0.2347269535D+00
      0.6401216923D+00  0.8137573261D+00
 S   1 1.00       0.000000000000
      0.1612777588D+00  0.1000000000D+01
 ****
     52 0
 S   3 1.00       0.000000000000
      0.1873113696D+02  0.3349460434D-01
      0.2825394365D+01  0.2347269535D+00
      0.6401216923D+00  0.8137573261D+00
 S   1 1.00       0.000000000000
      0.1612777588D+00  0.1000000000D+01
 ****
     53 0
 S   6 1.00       0.000000000000
      0.5484671660D+04  0.1831074430D-02
      0.8252349460D+03  0.1395017220D-01
      0.1880469580D+03  0.6844507810D-01
      0.5296450000D+02  0.2327143360D+00
      0.1689757040D+02  0.4701928980D+00
      0.5799635340D+01  0.3585208530D+00
 SP   3 1.00       0.000000000000
      0.1553961625D+02 -0.1107775495D+00  0.7087426823D-01
      0.3599933586D+01 -0.1480262627D+00  0.3397528391D+00
      0.1013761750D+01  0.1130767015D+01  0.7271585773D+00
 SP   1 1.00       0.000000000000
      0.2700058226D+00  0.1000000000D+01  0.1000000000D+01
 D   1 1.00       0.000000000000
      0.8000000000D+00  0.1000000000D+01
 ****
     54 0
 S   6 1.00       0.000000000000
      0.5484671660D+04  0.1831074430D-02
      0.8252349460D+03  0.1395017220D-01
      0.1880469580D+03  0.6844507810D-01
      0.5296450000D+02  0.2327143360D+00
      0.1689757040D+02  0.4701928980D+00
      0.5799635340D+01  0.3585208530D+00
 SP   3 1.00       0.000000000000
      0.1553961625D+02 -0.1107775495D+00  0.7087426823D-01
      0.3599933586D+01 -0.1480262627D+00  0.3397528391D+00
      0.1013761750D+01  0.1130767015D+01  0.7271585773D+00
 SP   1 1.00       0.000000000000
      0.2700058226D+00  0.1000000000D+01  0.1000000000D+01
 D   1 1.00       0.000000000000
      0.8000000000D+00  0.1000000000D+01
 ****
     55 0
 S   3 1.00       0.000000000000
      0.1873113696D+02  0.3349460434D-01
      0.2825394365D+01  0.2347269535D+00
      0.6401216923D+00  0.8137573261D+00
 S   1 1.00       0.000000000000
      0.1612777588D+00  0.1000000000D+01
 ****
     56 0
 S   6 1.00       0.000000000000
      0.5484671660D+04  0.1831074430D-02
      0.8252349460D+03  0.1395017220D-01
      0.1880469580D+03  0.6844507810D-01
      0.5296450000D+02  0.2327143360D+00
      0.1689757040D+02  0.4701928980D+00
      0.5799635340D+01  0.3585208530D+00
 SP   3 1.00       0.000000000000
      0.1553961625D+02 -0.1107775495D+00  0.7087426823D-01
      0.3599933586D+01 -0.1480262627D+00  0.3397528391D+00
      0.1013761750D+01  0.1130767015D+01  0.7271585773D+00
 SP   1 1.00       0.000000000000
      0.2700058226D+00  0.1000000000D+01  0.1000000000D+01
 D   1 1.00       0.000000000000
      0.8000000000D+00  0.1000000000D+01
 ****
     57 0
 S   3 1.00       0.000000000000
      0.1873113696D+02  0.3349460434D-01
      0.2825394365D+01  0.2347269535D+00
      0.6401216923D+00  0.8137573261D+00
 S   1 1.00       0.000000000000
      0.1612777588D+00  0.1000000000D+01
 ****
     58 0
 S   6 1.00       0.000000000000
      0.3047524880D+04  0.1834737132D-02
      0.4573695180D+03  0.1403732281D-01
      0.1039486850D+03  0.6884262226D-01
      0.2921015530D+02  0.2321844432D+00
      0.9286662960D+01  0.4679413484D+00
      0.3163926960D+01  0.3623119853D+00
 SP   3 1.00       0.000000000000
      0.7868272350D+01 -0.1193324198D+00  0.6899906659D-01
      0.1881288540D+01 -0.1608541517D+00  0.3164239610D+00
      0.5442492580D+00  0.1143456438D+01  0.7443082909D+00
 SP   1 1.00       0.000000000000
      0.1687144782D+00  0.1000000000D+01  0.1000000000D+01
 D   1 1.00       0.000000000000
      0.8000000000D+00  0.1000000000D+01
 ****
     59 0
 S   3 1.00       0.000000000000
      0.1873113696D+02  0.3349460434D-01
      0.2825394365D+01  0.2347269535D+00
      0.6401216923D+00  0.8137573261D+00
 S   1 1.00       0.000000000000
      0.1612777588D+00  0.1000000000D+01
 ****
     60 0
 S   3 1.00       0.000000000000
      0.1873113696D+02  0.3349460434D-01
      0.2825394365D+01  0.2347269535D+00
      0.6401216923D+00  0.8137573261D+00
 S   1 1.00       0.000000000000
      0.1612777588D+00  0.1000000000D+01
 ****
     61 0
 S   6 1.00       0.000000000000
      0.3047524880D+04  0.1834737132D-02
      0.4573695180D+03  0.1403732281D-01
      0.1039486850D+03  0.6884262226D-01
      0.2921015530D+02  0.2321844432D+00
      0.9286662960D+01  0.4679413484D+00
      0.3163926960D+01  0.3623119853D+00
 SP   3 1.00       0.000000000000
      0.7868272350D+01 -0.1193324198D+00  0.6899906659D-01
      0.1881288540D+01 -0.1608541517D+00  0.3164239610D+00
      0.5442492580D+00  0.1143456438D+01  0.7443082909D+00
 SP   1 1.00       0.000000000000
      0.1687144782D+00  0.1000000000D+01  0.1000000000D+01
 D   1 1.00       0.000000000000
      0.8000000000D+00  0.1000000000D+01
 ****
     62 0
 S   3 1.00       0.000000000000
      0.1873113696D+02  0.3349460434D-01
      0.2825394365D+01  0.2347269535D+00
      0.6401216923D+00  0.8137573261D+00
 S   1 1.00       0.000000000000
      0.1612777588D+00  0.1000000000D+01
 ****
     63 0
 S   3 1.00       0.000000000000
      0.1873113696D+02  0.3349460434D-01
      0.2825394365D+01  0.2347269535D+00
      0.6401216923D+00  0.8137573261D+00
 S   1 1.00       0.000000000000
      0.1612777588D+00  0.1000000000D+01
 ****
     64 0
 S   6 1.00       0.000000000000
      0.3047524880D+04  0.1834737132D-02
      0.4573695180D+03  0.1403732281D-01
      0.1039486850D+03  0.6884262226D-01
      0.2921015530D+02  0.2321844432D+00
      0.9286662960D+01  0.4679413484D+00
      0.3163926960D+01  0.3623119853D+00
 SP   3 1.00       0.000000000000
      0.7868272350D+01 -0.1193324198D+00  0.6899906659D-01
      0.1881288540D+01 -0.1608541517D+00  0.3164239610D+00
      0.5442492580D+00  0.1143456438D+01  0.7443082909D+00
 SP   1 1.00       0.000000000000
      0.1687144782D+00  0.1000000000D+01  0.1000000000D+01
 D   1 1.00       0.000000000000
      0.8000000000D+00  0.1000000000D+01
 ****
     65 0
 S   3 1.00       0.000000000000
      0.1873113696D+02  0.3349460434D-01
      0.2825394365D+01  0.2347269535D+00
      0.6401216923D+00  0.8137573261D+00
 S   1 1.00       0.000000000000
      0.1612777588D+00  0.1000000000D+01
 ****
     66 0
 S   3 1.00       0.000000000000
      0.1873113696D+02  0.3349460434D-01
      0.2825394365D+01  0.2347269535D+00
      0.6401216923D+00  0.8137573261D+00
 S   1 1.00       0.000000000000
      0.1612777588D+00  0.1000000000D+01
 ****
     67 0
 S   6 1.00       0.000000000000
      0.3047524880D+04  0.1834737132D-02
      0.4573695180D+03  0.1403732281D-01
      0.1039486850D+03  0.6884262226D-01
      0.2921015530D+02  0.2321844432D+00
      0.9286662960D+01  0.4679413484D+00
      0.3163926960D+01  0.3623119853D+00
 SP   3 1.00       0.000000000000
      0.7868272350D+01 -0.1193324198D+00  0.6899906659D-01
      0.1881288540D+01 -0.1608541517D+00  0.3164239610D+00
      0.5442492580D+00  0.1143456438D+01  0.7443082909D+00
 SP   1 1.00       0.000000000000
      0.1687144782D+00  0.1000000000D+01  0.1000000000D+01
 D   1 1.00       0.000000000000
      0.8000000000D+00  0.1000000000D+01
 ****
     68 0
 S   3 1.00       0.000000000000
      0.1873113696D+02  0.3349460434D-01
      0.2825394365D+01  0.2347269535D+00
      0.6401216923D+00  0.8137573261D+00
 S   1 1.00       0.000000000000
      0.1612777588D+00  0.1000000000D+01
 ****
     69 0
 S   6 1.00       0.000000000000
      0.3047524880D+04  0.1834737132D-02
      0.4573695180D+03  0.1403732281D-01
      0.1039486850D+03  0.6884262226D-01
      0.2921015530D+02  0.2321844432D+00
      0.9286662960D+01  0.4679413484D+00
      0.3163926960D+01  0.3623119853D+00
 SP   3 1.00       0.000000000000
      0.7868272350D+01 -0.1193324198D+00  0.6899906659D-01
      0.1881288540D+01 -0.1608541517D+00  0.3164239610D+00
      0.5442492580D+00  0.1143456438D+01  0.7443082909D+00
 SP   1 1.00       0.000000000000
      0.1687144782D+00  0.1000000000D+01  0.1000000000D+01
 D   1 1.00       0.000000000000
      0.8000000000D+00  0.1000000000D+01
 ****
     70 0
 S   3 1.00       0.000000000000
      0.1873113696D+02  0.3349460434D-01
      0.2825394365D+01  0.2347269535D+00
      0.6401216923D+00  0.8137573261D+00
 S   1 1.00       0.000000000000
      0.1612777588D+00  0.1000000000D+01
 ****
     71 0
 S   3 1.00       0.000000000000
      0.1873113696D+02  0.3349460434D-01
      0.2825394365D+01  0.2347269535D+00
      0.6401216923D+00  0.8137573261D+00
 S   1 1.00       0.000000000000
      0.1612777588D+00  0.1000000000D+01
 ****
     72 0
 S   3 1.00       0.000000000000
      0.1873113696D+02  0.3349460434D-01
      0.2825394365D+01  0.2347269535D+00
      0.6401216923D+00  0.8137573261D+00
 S   1 1.00       0.000000000000
      0.1612777588D+00  0.1000000000D+01
 ****
     73 0
 S   6 1.00       0.000000000000
      0.3047524880D+04  0.1834737132D-02
      0.4573695180D+03  0.1403732281D-01
      0.1039486850D+03  0.6884262226D-01
      0.2921015530D+02  0.2321844432D+00
      0.9286662960D+01  0.4679413484D+00
      0.3163926960D+01  0.3623119853D+00
 SP   3 1.00       0.000000000000
      0.7868272350D+01 -0.1193324198D+00  0.6899906659D-01
      0.1881288540D+01 -0.1608541517D+00  0.3164239610D+00
      0.5442492580D+00  0.1143456438D+01  0.7443082909D+00
 SP   1 1.00       0.000000000000
      0.1687144782D+00  0.1000000000D+01  0.1000000000D+01
 D   1 1.00       0.000000000000
      0.8000000000D+00  0.1000000000D+01
 ****
     74 0
 S   3 1.00       0.000000000000
      0.1873113696D+02  0.3349460434D-01
      0.2825394365D+01  0.2347269535D+00
      0.6401216923D+00  0.8137573261D+00
 S   1 1.00       0.000000000000
      0.1612777588D+00  0.1000000000D+01
 ****
     75 0
 S   3 1.00       0.000000000000
      0.1873113696D+02  0.3349460434D-01
      0.2825394365D+01  0.2347269535D+00
      0.6401216923D+00  0.8137573261D+00
 S   1 1.00       0.000000000000
      0.1612777588D+00  0.1000000000D+01
 ****
     76 0
 S   3 1.00       0.000000000000
      0.1873113696D+02  0.3349460434D-01
      0.2825394365D+01  0.2347269535D+00
      0.6401216923D+00  0.8137573261D+00
 S   1 1.00       0.000000000000
      0.1612777588D+00  0.1000000000D+01
 ****

 AO basis set (Overlap normalization):
 Atom C1       Shell     1 S   6     bf    1 -     1         14.213276229414          4.184984224662          0.118291394610
      0.3047524880D+04  0.1834737132D-02
      0.4573695180D+03  0.1403732281D-01
      0.1039486850D+03  0.6884262226D-01
      0.2921015530D+02  0.2321844432D+00
      0.9286662960D+01  0.4679413484D+00
      0.3163926960D+01  0.3623119853D+00
 Atom C1       Shell     2 SP   3    bf    2 -     5         14.213276229414          4.184984224662          0.118291394610
      0.7868272350D+01 -0.1193324198D+00  0.6899906659D-01
      0.1881288540D+01 -0.1608541517D+00  0.3164239610D+00
      0.5442492580D+00  0.1143456438D+01  0.7443082909D+00
 Atom C1       Shell     3 SP   1    bf    6 -     9         14.213276229414          4.184984224662          0.118291394610
      0.1687144782D+00  0.1000000000D+01  0.1000000000D+01
 Atom C1       Shell     4 D   1     bf   10 -    15         14.213276229414          4.184984224662          0.118291394610
      0.8000000000D+00  0.1000000000D+01
 Atom H2       Shell     5 S   3     bf   16 -    16         13.908643589567          4.123227766770          2.167728903247
      0.1873113696D+02  0.3349460434D-01
      0.2825394365D+01  0.2347269535D+00
      0.6401216923D+00  0.8137573261D+00
 Atom H2       Shell     6 S   1     bf   17 -    17         13.908643589567          4.123227766770          2.167728903247
      0.1612777588D+00  0.1000000000D+01
 Atom C3       Shell     7 S   6     bf   18 -    18         12.901287147628          1.903591091317         -1.101286413209
      0.3047524880D+04  0.1834737132D-02
      0.4573695180D+03  0.1403732281D-01
      0.1039486850D+03  0.6884262226D-01
      0.2921015530D+02  0.2321844432D+00
      0.9286662960D+01  0.4679413484D+00
      0.3163926960D+01  0.3623119853D+00
 Atom C3       Shell     8 SP   3    bf   19 -    22         12.901287147628          1.903591091317         -1.101286413209
      0.7868272350D+01 -0.1193324198D+00  0.6899906659D-01
      0.1881288540D+01 -0.1608541517D+00  0.3164239610D+00
      0.5442492580D+00  0.1143456438D+01  0.7443082909D+00
 Atom C3       Shell     9 SP   1    bf   23 -    26         12.901287147628          1.903591091317         -1.101286413209
      0.1687144782D+00  0.1000000000D+01  0.1000000000D+01
 Atom C3       Shell    10 D   1     bf   27 -    32         12.901287147628          1.903591091317         -1.101286413209
      0.8000000000D+00  0.1000000000D+01
 Atom H4       Shell    11 S   3     bf   33 -    33         13.622870038580          0.152108421703         -0.272148814541
      0.1873113696D+02  0.3349460434D-01
      0.2825394365D+01  0.2347269535D+00
      0.6401216923D+00  0.8137573261D+00
 Atom H4       Shell    12 S   1     bf   34 -    34         13.622870038580          0.152108421703         -0.272148814541
      0.1612777588D+00  0.1000000000D+01
 Atom H5       Shell    13 S   3     bf   35 -    35         13.432915051161          1.873449165813         -3.115138167784
      0.1873113696D+02  0.3349460434D-01
      0.2825394365D+01  0.2347269535D+00
      0.6401216923D+00  0.8137573261D+00
 Atom H5       Shell    14 S   1     bf   36 -    36         13.432915051161          1.873449165813         -3.115138167784
      0.1612777588D+00  0.1000000000D+01
 Atom C6       Shell    15 S   6     bf   37 -    37         10.045741849246          2.007932225258         -0.864523929931
      0.3047524880D+04  0.1834737132D-02
      0.4573695180D+03  0.1403732281D-01
      0.1039486850D+03  0.6884262226D-01
      0.2921015530D+02  0.2321844432D+00
      0.9286662960D+01  0.4679413484D+00
      0.3163926960D+01  0.3623119853D+00
 Atom C6       Shell    16 SP   3    bf   38 -    41         10.045741849246          2.007932225258         -0.864523929931
      0.7868272350D+01 -0.1193324198D+00  0.6899906659D-01
      0.1881288540D+01 -0.1608541517D+00  0.3164239610D+00
      0.5442492580D+00  0.1143456438D+01  0.7443082909D+00
 Atom C6       Shell    17 SP   1    bf   42 -    45         10.045741849246          2.007932225258         -0.864523929931
      0.1687144782D+00  0.1000000000D+01  0.1000000000D+01
 Atom C6       Shell    18 D   1     bf   46 -    51         10.045741849246          2.007932225258         -0.864523929931
      0.8000000000D+00  0.1000000000D+01
 Atom C7       Shell    19 S   6     bf   52 -    52          8.739180967983          4.459004359404         -1.680682908415
      0.3047524880D+04  0.1834737132D-02
      0.4573695180D+03  0.1403732281D-01
      0.1039486850D+03  0.6884262226D-01
      0.2921015530D+02  0.2321844432D+00
      0.9286662960D+01  0.4679413484D+00
      0.3163926960D+01  0.3623119853D+00
 Atom C7       Shell    20 SP   3    bf   53 -    56          8.739180967983          4.459004359404         -1.680682908415
      0.7868272350D+01 -0.1193324198D+00  0.6899906659D-01
      0.1881288540D+01 -0.1608541517D+00  0.3164239610D+00
      0.5442492580D+00  0.1143456438D+01  0.7443082909D+00
 Atom C7       Shell    21 SP   1    bf   57 -    60          8.739180967983          4.459004359404         -1.680682908415
      0.1687144782D+00  0.1000000000D+01  0.1000000000D+01
 Atom C7       Shell    22 D   1     bf   61 -    66          8.739180967983          4.459004359404         -1.680682908415
      0.8000000000D+00  0.1000000000D+01
 Atom C8       Shell    23 S   6     bf   67 -    67         10.228272537326          6.736644874594         -0.543932496199
      0.3047524880D+04  0.1834737132D-02
      0.4573695180D+03  0.1403732281D-01
      0.1039486850D+03  0.6884262226D-01
      0.2921015530D+02  0.2321844432D+00
      0.9286662960D+01  0.4679413484D+00
      0.3163926960D+01  0.3623119853D+00
 Atom C8       Shell    24 SP   3    bf   68 -    71         10.228272537326          6.736644874594         -0.543932496199
      0.7868272350D+01 -0.1193324198D+00  0.6899906659D-01
      0.1881288540D+01 -0.1608541517D+00  0.3164239610D+00
      0.5442492580D+00  0.1143456438D+01  0.7443082909D+00
 Atom C8       Shell    25 SP   1    bf   72 -    75         10.228272537326          6.736644874594         -0.543932496199
      0.1687144782D+00  0.1000000000D+01  0.1000000000D+01
 Atom C8       Shell    26 D   1     bf   76 -    81         10.228272537326          6.736644874594         -0.543932496199
      0.8000000000D+00  0.1000000000D+01
 Atom H9       Shell    27 S   3     bf   82 -    82          9.848836770364          6.808061007766          1.496567533795
      0.1873113696D+02  0.3349460434D-01
      0.2825394365D+01  0.2347269535D+00
      0.6401216923D+00  0.8137573261D+00
 Atom H9       Shell    28 S   1     bf   83 -    83          9.848836770364          6.808061007766          1.496567533795
      0.1612777588D+00  0.1000000000D+01
 Atom H10      Shell    29 S   3     bf   84 -    84          9.501361960385          8.503981118141         -1.338260621403
      0.1873113696D+02  0.3349460434D-01
      0.2825394365D+01  0.2347269535D+00
      0.6401216923D+00  0.8137573261D+00
 Atom H10      Shell    30 S   1     bf   85 -    85          9.501361960385          8.503981118141         -1.338260621403
      0.1612777588D+00  0.1000000000D+01
 Atom C11      Shell    31 S   6     bf   86 -    86         13.104140139514          6.636692837467         -0.930843433927
      0.3047524880D+04  0.1834737132D-02
      0.4573695180D+03  0.1403732281D-01
      0.1039486850D+03  0.6884262226D-01
      0.2921015530D+02  0.2321844432D+00
      0.9286662960D+01  0.4679413484D+00
      0.3163926960D+01  0.3623119853D+00
 Atom C11      Shell    32 SP   3    bf   87 -    90         13.104140139514          6.636692837467         -0.930843433927
      0.7868272350D+01 -0.1193324198D+00  0.6899906659D-01
      0.1881288540D+01 -0.1608541517D+00  0.3164239610D+00
      0.5442492580D+00  0.1143456438D+01  0.7443082909D+00
 Atom C11      Shell    33 SP   1    bf   91 -    94         13.104140139514          6.636692837467         -0.930843433927
      0.1687144782D+00  0.1000000000D+01  0.1000000000D+01
 Atom C11      Shell    34 D   1     bf   95 -   100         13.104140139514          6.636692837467         -0.930843433927
      0.8000000000D+00  0.1000000000D+01
 Atom H12      Shell    35 S   3     bf  101 -   101         13.571115995595          6.780199490375         -2.951467192175
      0.1873113696D+02  0.3349460434D-01
      0.2825394365D+01  0.2347269535D+00
      0.6401216923D+00  0.8137573261D+00
 Atom H12      Shell    36 S   1     bf  102 -   102         13.571115995595          6.780199490375         -2.951467192175
      0.1612777588D+00  0.1000000000D+01
 Atom H13      Shell    37 S   3     bf  103 -   103         13.998877577775          8.256010026662          0.000000000000
      0.1873113696D+02  0.3349460434D-01
      0.2825394365D+01  0.2347269535D+00
      0.6401216923D+00  0.8137573261D+00
 Atom H13      Shell    38 S   1     bf  104 -   104         13.998877577775          8.256010026662          0.000000000000
      0.1612777588D+00  0.1000000000D+01
 Atom C14      Shell    39 S   6     bf  105 -   105          8.769723288660          0.000000000000          0.000000000000
      0.3047524880D+04  0.1834737132D-02
      0.4573695180D+03  0.1403732281D-01
      0.1039486850D+03  0.6884262226D-01
      0.2921015530D+02  0.2321844432D+00
      0.9286662960D+01  0.4679413484D+00
      0.3163926960D+01  0.3623119853D+00
 Atom C14      Shell    40 SP   3    bf  106 -   109          8.769723288660          0.000000000000          0.000000000000
      0.7868272350D+01 -0.1193324198D+00  0.6899906659D-01
      0.1881288540D+01 -0.1608541517D+00  0.3164239610D+00
      0.5442492580D+00  0.1143456438D+01  0.7443082909D+00
 Atom C14      Shell    41 SP   1    bf  110 -   113          8.769723288660          0.000000000000          0.000000000000
      0.1687144782D+00  0.1000000000D+01  0.1000000000D+01
 Atom C14      Shell    42 D   1     bf  114 -   119          8.769723288660          0.000000000000          0.000000000000
      0.8000000000D+00  0.1000000000D+01
 Atom H15      Shell    43 S   3     bf  120 -   120          9.792027898947         -1.689070816904          0.571731350271
      0.1873113696D+02  0.3349460434D-01
      0.2825394365D+01  0.2347269535D+00
      0.6401216923D+00  0.8137573261D+00
 Atom H15      Shell    44 S   1     bf  121 -   121          9.792027898947         -1.689070816904          0.571731350271
      0.1612777588D+00  0.1000000000D+01
 Atom C16      Shell    45 S   6     bf  122 -   122          5.948079374746         -0.193505159213          0.196242389722
      0.3047524880D+04  0.1834737132D-02
      0.4573695180D+03  0.1403732281D-01
      0.1039486850D+03  0.6884262226D-01
      0.2921015530D+02  0.2321844432D+00
      0.9286662960D+01  0.4679413484D+00
      0.3163926960D+01  0.3623119853D+00
 Atom C16      Shell    46 SP   3    bf  123 -   126          5.948079374746         -0.193505159213          0.196242389722
      0.7868272350D+01 -0.1193324198D+00  0.6899906659D-01
      0.1881288540D+01 -0.1608541517D+00  0.3164239610D+00
      0.5442492580D+00  0.1143456438D+01  0.7443082909D+00
 Atom C16      Shell    47 SP   1    bf  127 -   130          5.948079374746         -0.193505159213          0.196242389722
      0.1687144782D+00  0.1000000000D+01  0.1000000000D+01
 Atom C16      Shell    48 D   1     bf  131 -   136          5.948079374746         -0.193505159213          0.196242389722
      0.8000000000D+00  0.1000000000D+01
 Atom H17      Shell    49 S   3     bf  137 -   137          5.381457919527         -0.396016923250          2.188153365647
      0.1873113696D+02  0.3349460434D-01
      0.2825394365D+01  0.2347269535D+00
      0.6401216923D+00  0.8137573261D+00
 Atom H17      Shell    50 S   1     bf  138 -   138          5.381457919527         -0.396016923250          2.188153365647
      0.1612777588D+00  0.1000000000D+01
 Atom C18      Shell    51 S   6     bf  139 -   139          4.503663879157          2.006983828404         -1.034264592495
      0.3047524880D+04  0.1834737132D-02
      0.4573695180D+03  0.1403732281D-01
      0.1039486850D+03  0.6884262226D-01
      0.2921015530D+02  0.2321844432D+00
      0.9286662960D+01  0.4679413484D+00
      0.3163926960D+01  0.3623119853D+00
 Atom C18      Shell    52 SP   3    bf  140 -   143          4.503663879157          2.006983828404         -1.034264592495
      0.7868272350D+01 -0.1193324198D+00  0.6899906659D-01
      0.1881288540D+01 -0.1608541517D+00  0.3164239610D+00
      0.5442492580D+00  0.1143456438D+01  0.7443082909D+00
 Atom C18      Shell    53 SP   1    bf  144 -   147          4.503663879157          2.006983828404         -1.034264592495
      0.1687144782D+00  0.1000000000D+01  0.1000000000D+01
 Atom C18      Shell    54 D   1     bf  148 -   153          4.503663879157          2.006983828404         -1.034264592495
      0.8000000000D+00  0.1000000000D+01
 Atom H19      Shell    55 S   3     bf  154 -   154          4.398758605274          1.590242675497         -3.063640862991
      0.1873113696D+02  0.3349460434D-01
      0.2825394365D+01  0.2347269535D+00
      0.6401216923D+00  0.8137573261D+00
 Atom H19      Shell    56 S   1     bf  155 -   155          4.398758605274          1.590242675497         -3.063640862991
      0.1612777588D+00  0.1000000000D+01
 Atom C20      Shell    57 S   6     bf  156 -   156          5.973017410221          4.520045915003         -0.624418899069
      0.3047524880D+04  0.1834737132D-02
      0.4573695180D+03  0.1403732281D-01
      0.1039486850D+03  0.6884262226D-01
      0.2921015530D+02  0.2321844432D+00
      0.9286662960D+01  0.4679413484D+00
      0.3163926960D+01  0.3623119853D+00
 Atom C20      Shell    58 SP   3    bf  157 -   160          5.973017410221          4.520045915003         -0.624418899069
      0.7868272350D+01 -0.1193324198D+00  0.6899906659D-01
      0.1881288540D+01 -0.1608541517D+00  0.3164239610D+00
      0.5442492580D+00  0.1143456438D+01  0.7443082909D+00
 Atom C20      Shell    59 SP   1    bf  161 -   164          5.973017410221          4.520045915003         -0.624418899069
      0.1687144782D+00  0.1000000000D+01  0.1000000000D+01
 Atom C20      Shell    60 D   1     bf  165 -   170          5.973017410221          4.520045915003         -0.624418899069
      0.8000000000D+00  0.1000000000D+01
 Atom H21      Shell    61 S   3     bf  171 -   171          6.169057731527          4.728395874545          1.438852727669
      0.1873113696D+02  0.3349460434D-01
      0.2825394365D+01  0.2347269535D+00
      0.6401216923D+00  0.8137573261D+00
 Atom H21      Shell    62 S   1     bf  172 -   172          6.169057731527          4.728395874545          1.438852727669
      0.1612777588D+00  0.1000000000D+01
 Atom C22      Shell    63 S   6     bf  173 -   173          4.429045605053          6.819796679483         -1.558562229461
      0.3047524880D+04  0.1834737132D-02
      0.4573695180D+03  0.1403732281D-01
      0.1039486850D+03  0.6884262226D-01
      0.2921015530D+02  0.2321844432D+00
      0.9286662960D+01  0.4679413484D+00
      0.3163926960D+01  0.3623119853D+00
 Atom C22      Shell    64 SP   3    bf  174 -   177          4.429045605053          6.819796679483         -1.558562229461
      0.7868272350D+01 -0.1193324198D+00  0.6899906659D-01
      0.1881288540D+01 -0.1608541517D+00  0.3164239610D+00
      0.5442492580D+00  0.1143456438D+01  0.7443082909D+00
 Atom C22      Shell    65 SP   1    bf  178 -   181          4.429045605053          6.819796679483         -1.558562229461
      0.1687144782D+00  0.1000000000D+01  0.1000000000D+01
 Atom C22      Shell    66 D   1     bf  182 -   187          4.429045605053          6.819796679483         -1.558562229461
      0.8000000000D+00  0.1000000000D+01
 Atom H23      Shell    67 S   3     bf  188 -   188          4.332725810526          6.806221397170         -3.625937623263
      0.1873113696D+02  0.3349460434D-01
      0.2825394365D+01  0.2347269535D+00
      0.6401216923D+00  0.8137573261D+00
 Atom H23      Shell    68 S   1     bf  189 -   189          4.332725810526          6.806221397170         -3.625937623263
      0.1612777588D+00  0.1000000000D+01
 Atom H24      Shell    69 S   3     bf  190 -   190          5.413805325504          8.565950264710         -1.043558681356
      0.1873113696D+02  0.3349460434D-01
      0.2825394365D+01  0.2347269535D+00
      0.6401216923D+00  0.8137573261D+00
 Atom H24      Shell    70 S   1     bf  191 -   191          5.413805325504          8.565950264710         -1.043558681356
      0.1612777588D+00  0.1000000000D+01
 Atom C25      Shell    71 S   6     bf  192 -   192          1.722667898772          6.940594247788         -0.491885885814
      0.3047524880D+04  0.1834737132D-02
      0.4573695180D+03  0.1403732281D-01
      0.1039486850D+03  0.6884262226D-01
      0.2921015530D+02  0.2321844432D+00
      0.9286662960D+01  0.4679413484D+00
      0.3163926960D+01  0.3623119853D+00
 Atom C25      Shell    72 SP   3    bf  193 -   196          1.722667898772          6.940594247788         -0.491885885814
      0.7868272350D+01 -0.1193324198D+00  0.6899906659D-01
      0.1881288540D+01 -0.1608541517D+00  0.3164239610D+00
      0.5442492580D+00  0.1143456438D+01  0.7443082909D+00
 Atom C25      Shell    73 SP   1    bf  197 -   200          1.722667898772          6.940594247788         -0.491885885814
      0.1687144782D+00  0.1000000000D+01  0.1000000000D+01
 Atom C25      Shell    74 D   1     bf  201 -   206          1.722667898772          6.940594247788         -0.491885885814
      0.8000000000D+00  0.1000000000D+01
 Atom H26      Shell    75 S   3     bf  207 -   207          1.810783069349          7.240278224016          1.561344322068
      0.1873113696D+02  0.3349460434D-01
      0.2825394365D+01  0.2347269535D+00
      0.6401216923D+00  0.8137573261D+00
 Atom H26      Shell    76 S   1     bf  208 -   208          1.810783069349          7.240278224016          1.561344322068
      0.1612777588D+00  0.1000000000D+01
 Atom H27      Shell    77 S   3     bf  209 -   209          0.763295874129          8.593403884715         -1.291956076154
      0.1873113696D+02  0.3349460434D-01
      0.2825394365D+01  0.2347269535D+00
      0.6401216923D+00  0.8137573261D+00
 Atom H27      Shell    78 S   1     bf  210 -   210          0.763295874129          8.593403884715         -1.291956076154
      0.1612777588D+00  0.1000000000D+01
 Atom C28      Shell    79 S   6     bf  211 -   211          0.239277463097          4.495370834920         -1.029275621018
      0.3047524880D+04  0.1834737132D-02
      0.4573695180D+03  0.1403732281D-01
      0.1039486850D+03  0.6884262226D-01
      0.2921015530D+02  0.2321844432D+00
      0.9286662960D+01  0.4679413484D+00
      0.3163926960D+01  0.3623119853D+00
 Atom C28      Shell    80 SP   3    bf  212 -   215          0.239277463097          4.495370834920         -1.029275621018
      0.7868272350D+01 -0.1193324198D+00  0.6899906659D-01
      0.1881288540D+01 -0.1608541517D+00  0.3164239610D+00
      0.5442492580D+00  0.1143456438D+01  0.7443082909D+00
 Atom C28      Shell    81 SP   1    bf  216 -   219          0.239277463097          4.495370834920         -1.029275621018
      0.1687144782D+00  0.1000000000D+01  0.1000000000D+01
 Atom C28      Shell    82 D   1     bf  220 -   225          0.239277463097          4.495370834920         -1.029275621018
      0.8000000000D+00  0.1000000000D+01
 Atom C29      Shell    83 S   6     bf  226 -   226          1.823461506536          2.268895694127          0.068652314216
      0.3047524880D+04  0.1834737132D-02
      0.4573695180D+03  0.1403732281D-01
      0.1039486850D+03  0.6884262226D-01
      0.2921015530D+02  0.2321844432D+00
      0.9286662960D+01  0.4679413484D+00
      0.3163926960D+01  0.3623119853D+00
 Atom C29      Shell    84 SP   3    bf  227 -   230          1.823461506536          2.268895694127          0.068652314216
      0.7868272350D+01 -0.1193324198D+00  0.6899906659D-01
      0.1881288540D+01 -0.1608541517D+00  0.3164239610D+00
      0.5442492580D+00  0.1143456438D+01  0.7443082909D+00
 Atom C29      Shell    85 SP   1    bf  231 -   234          1.823461506536          2.268895694127          0.068652314216
      0.1687144782D+00  0.1000000000D+01  0.1000000000D+01
 Atom C29      Shell    86 D   1     bf  235 -   240          1.823461506536          2.268895694127          0.068652314216
      0.8000000000D+00  0.1000000000D+01
 Atom H30      Shell    87 S   3     bf  241 -   241          2.102363030646          2.740842153547          2.079817653017
      0.1873113696D+02  0.3349460434D-01
      0.2825394365D+01  0.2347269535D+00
      0.6401216923D+00  0.8137573261D+00
 Atom H30      Shell    88 S   1     bf  242 -   242          2.102363030646          2.740842153547          2.079817653017
      0.1612777588D+00  0.1000000000D+01
 Atom C31      Shell    89 S   6     bf  243 -   243          0.000000000000          0.000000000000          0.000000000000
      0.3047524880D+04  0.1834737132D-02
      0.4573695180D+03  0.1403732281D-01
      0.1039486850D+03  0.6884262226D-01
      0.2921015530D+02  0.2321844432D+00
      0.9286662960D+01  0.4679413484D+00
      0.3163926960D+01  0.3623119853D+00
 Atom C31      Shell    90 SP   3    bf  244 -   247          0.000000000000          0.000000000000          0.000000000000
      0.7868272350D+01 -0.1193324198D+00  0.6899906659D-01
      0.1881288540D+01 -0.1608541517D+00  0.3164239610D+00
      0.5442492580D+00  0.1143456438D+01  0.7443082909D+00
 Atom C31      Shell    91 SP   1    bf  248 -   251          0.000000000000          0.000000000000          0.000000000000
      0.1687144782D+00  0.1000000000D+01  0.1000000000D+01
 Atom C31      Shell    92 D   1     bf  252 -   257          0.000000000000          0.000000000000          0.000000000000
      0.8000000000D+00  0.1000000000D+01
 Atom H32      Shell    93 S   3     bf  258 -   258          0.496560671425         -1.439735739999          1.399296413338
      0.1873113696D+02  0.3349460434D-01
      0.2825394365D+01  0.2347269535D+00
      0.6401216923D+00  0.8137573261D+00
 Atom H32      Shell    94 S   1     bf  259 -   259          0.496560671425         -1.439735739999          1.399296413338
      0.1612777588D+00  0.1000000000D+01
 Atom H33      Shell    95 S   3     bf  260 -   260          0.058166696336         -0.930151869752         -1.846617870418
      0.1873113696D+02  0.3349460434D-01
      0.2825394365D+01  0.2347269535D+00
      0.6401216923D+00  0.8137573261D+00
 Atom H33      Shell    96 S   1     bf  261 -   261          0.058166696336         -0.930151869752         -1.846617870418
      0.1612777588D+00  0.1000000000D+01
 Atom C34      Shell    97 S   6     bf  262 -   262         -2.634566809320          1.193775165947          0.517684691542
      0.3047524880D+04  0.1834737132D-02
      0.4573695180D+03  0.1403732281D-01
      0.1039486850D+03  0.6884262226D-01
      0.2921015530D+02  0.2321844432D+00
      0.9286662960D+01  0.4679413484D+00
      0.3163926960D+01  0.3623119853D+00
 Atom C34      Shell    98 SP   3    bf  263 -   266         -2.634566809320          1.193775165947          0.517684691542
      0.7868272350D+01 -0.1193324198D+00  0.6899906659D-01
      0.1881288540D+01 -0.1608541517D+00  0.3164239610D+00
      0.5442492580D+00  0.1143456438D+01  0.7443082909D+00
 Atom C34      Shell    99 SP   1    bf  267 -   270         -2.634566809320          1.193775165947          0.517684691542
      0.1687144782D+00  0.1000000000D+01  0.1000000000D+01
 Atom C34      Shell   100 D   1     bf  271 -   276         -2.634566809320          1.193775165947          0.517684691542
      0.8000000000D+00  0.1000000000D+01
 Atom H35      Shell   101 S   3     bf  277 -   277         -3.990097581160          0.627075324888         -0.938673722029
      0.1873113696D+02  0.3349460434D-01
      0.2825394365D+01  0.2347269535D+00
      0.6401216923D+00  0.8137573261D+00
 Atom H35      Shell   102 S   1     bf  278 -   278         -3.990097581160          0.627075324888         -0.938673722029
      0.1612777588D+00  0.1000000000D+01
 Atom H36      Shell   103 S   3     bf  279 -   279         -3.429690528124          0.564073499680          2.322772447580
      0.1873113696D+02  0.3349460434D-01
      0.2825394365D+01  0.2347269535D+00
      0.6401216923D+00  0.8137573261D+00
 Atom H36      Shell   104 S   1     bf  280 -   280         -3.429690528124          0.564073499680          2.322772447580
      0.1612777588D+00  0.1000000000D+01
 Atom C37      Shell   105 S   6     bf  281 -   281         -2.247371373323          4.117897378472          0.538999252746
      0.3047524880D+04  0.1834737132D-02
      0.4573695180D+03  0.1403732281D-01
      0.1039486850D+03  0.6884262226D-01
      0.2921015530D+02  0.2321844432D+00
      0.9286662960D+01  0.4679413484D+00
      0.3163926960D+01  0.3623119853D+00
 Atom C37      Shell   106 SP   3    bf  282 -   285         -2.247371373323          4.117897378472          0.538999252746
      0.7868272350D+01 -0.1193324198D+00  0.6899906659D-01
      0.1881288540D+01 -0.1608541517D+00  0.3164239610D+00
      0.5442492580D+00  0.1143456438D+01  0.7443082909D+00
 Atom C37      Shell   107 SP   1    bf  286 -   289         -2.247371373323          4.117897378472          0.538999252746
      0.1687144782D+00  0.1000000000D+01  0.1000000000D+01
 Atom C37      Shell   108 D   1     bf  290 -   295         -2.247371373323          4.117897378472          0.538999252746
      0.8000000000D+00  0.1000000000D+01
 Atom H38      Shell   109 S   3     bf  296 -   296         -1.701191028991          4.604614183012          2.482643902031
      0.1873113696D+02  0.3349460434D-01
      0.2825394365D+01  0.2347269535D+00
      0.6401216923D+00  0.8137573261D+00
 Atom H38      Shell   110 S   1     bf  297 -   297         -1.701191028991          4.604614183012          2.482643902031
      0.1612777588D+00  0.1000000000D+01
 Atom C39      Shell   111 S   6     bf  298 -   298         -0.199980797136          4.196671727260         -3.903034421122
      0.3047524880D+04  0.1834737132D-02
      0.4573695180D+03  0.1403732281D-01
      0.1039486850D+03  0.6884262226D-01
[...]
 **** Fit      -0.035834
 **** Fit      -0.029773
 **** Fit       0.012552
 **** Fit       0.014330
 **** Fit       0.016141
 **** Fit       0.017664
 **** Fit       0.018251
 **** Fit       0.016808
 **** Fit       0.011965
 **** Fit       0.002783
 **** Fit      -0.010251
 **** Fit      -0.024957
 **** Fit      -0.038287
 **** Fit      -0.047468
 **** Fit      -0.051073
 **** Fit      -0.049608
 **** Fit      -0.044918
 **** Fit      -0.038956
 **** Fit      -0.033019
 **** Fit      -0.027713
 **** Fit       0.011180
 **** Fit       0.012419
 **** Fit       0.013506
 **** Fit       0.014117
 **** Fit       0.013699
 **** Fit       0.011459
 **** Fit       0.006543
 **** Fit      -0.001484
 **** Fit      -0.012085
 **** Fit      -0.023616
 **** Fit      -0.033838
 **** Fit      -0.040771
 **** Fit      -0.043501
 **** Fit      -0.042455
 **** Fit      -0.038927
 **** Fit      -0.034291
 **** Fit      -0.029517
 **** Fit       0.010418
 **** Fit       0.010883
 **** Fit       0.010790
 **** Fit       0.009719
 **** Fit       0.007151
 **** Fit       0.002620
 **** Fit      -0.003997
 **** Fit      -0.012198
 **** Fit      -0.020817
 **** Fit      -0.028343
 **** Fit      -0.033480
 **** Fit      -0.035650
 **** Fit      -0.035124
 **** Fit      -0.032723
 **** Fit      -0.029358
 **** Fit      -0.025727
 **** Fit       0.008543
 **** Fit       0.007999
 **** Fit       0.006616
 **** Fit       0.004084
 **** Fit       0.000183
 **** Fit      -0.005053
 **** Fit      -0.011208
 **** Fit      -0.017489
 **** Fit      -0.022932
 **** Fit      -0.026729
 **** Fit      -0.028508
 **** Fit      -0.028411
 **** Fit      -0.026920
 **** Fit      -0.024615
 **** Fit       0.005824
 **** Fit       0.004372
 **** Fit       0.002079
 **** Fit      -0.001136
 **** Fit      -0.005180
 **** Fit      -0.009734
 **** Fit      -0.014276
 **** Fit      -0.018205
 **** Fit      -0.021023
 **** Fit      -0.022493
 **** Fit      -0.022673
 **** Fit      -0.021835
 **** Fit       0.000861
 **** Fit      -0.001721
 **** Fit      -0.004808
 **** Fit      -0.008168
 **** Fit      -0.011461
 **** Fit      -0.014314
 **** Fit      -0.016425
 **** Fit      -0.004682
 **** Fit      -0.007571
 **** Fit      -0.010683
 **** Fit       0.002642
 **** Fit       0.001154
 **** Fit      -0.001055
 **** Fit      -0.004030
 **** Fit      -0.007675
 **** Fit      -0.011715
 **** Fit      -0.015726
 **** Fit      -0.019221
 **** Fit      -0.021793
 **** Fit      -0.023224
 **** Fit      -0.023527
 **** Fit       0.005320
 **** Fit       0.004578
 **** Fit       0.003104
 **** Fit       0.000679
 **** Fit      -0.002827
 **** Fit      -0.007346
 **** Fit      -0.012536
 **** Fit      -0.017794
 **** Fit      -0.022400
 **** Fit      -0.025740
 **** Fit      -0.027494
 **** Fit      -0.027705
 **** Fit      -0.026686
 **** Fit       0.007278
 **** Fit       0.007358
 **** Fit       0.006900
 **** Fit       0.005590
 **** Fit       0.003079
 **** Fit      -0.000902
 **** Fit      -0.006362
 **** Fit      -0.012892
 **** Fit      -0.019674
 **** Fit      -0.025673
 **** Fit      -0.029984
 **** Fit      -0.032142
 **** Fit      -0.032227
 **** Fit      -0.030725
 **** Fit      -0.028259
 **** Fit       0.009038
 **** Fit       0.009520
 **** Fit       0.009480
 **** Fit       0.008510
 **** Fit       0.006101
 **** Fit       0.001789
 **** Fit      -0.004570
 **** Fit      -0.012532
 **** Fit      -0.021028
 **** Fit      -0.028648
 **** Fit      -0.034123
 **** Fit      -0.036782
 **** Fit      -0.036744
 **** Fit      -0.034708
 **** Fit      -0.031540
 **** Fit      -0.027959
 **** Fit       0.009581
 **** Fit       0.010660
 **** Fit       0.011576
 **** Fit       0.012033
 **** Fit       0.011542
 **** Fit       0.009425
 **** Fit       0.004988
 **** Fit      -0.002103
 **** Fit      -0.011401
 **** Fit      -0.021594
 **** Fit      -0.030884
 **** Fit      -0.037608
 **** Fit      -0.040848
 **** Fit      -0.040739
 **** Fit      -0.038202
 **** Fit      -0.034371
 **** Fit      -0.030145
 **** Fit       0.010568
 **** Fit       0.011934
 **** Fit       0.013224
 **** Fit       0.014136
 **** Fit       0.014127
 **** Fit       0.012384
 **** Fit       0.007994
 **** Fit       0.000427
 **** Fit      -0.009891
 **** Fit      -0.021450
 **** Fit      -0.032136
 **** Fit      -0.039951
 **** Fit      -0.043743
 **** Fit      -0.043630
 **** Fit      -0.040721
 **** Fit      -0.036381
 **** Fit      -0.031665
 **** Fit      -0.027182
 **** Fit       0.011143
 **** Fit       0.012666
 **** Fit       0.014165
 **** Fit       0.015339
 **** Fit       0.015622
 **** Fit       0.014129
 **** Fit       0.009820
 **** Fit       0.002043
 **** Fit      -0.008795
 **** Fit      -0.021075
 **** Fit      -0.032511
 **** Fit      -0.040927
 **** Fit      -0.045036
 **** Fit      -0.044939
 **** Fit      -0.041849
 **** Fit      -0.037257
 **** Fit      -0.032301
 **** Fit      -0.027624
 **** Fit       0.011237
 **** Fit       0.012745
 **** Fit       0.014221
 **** Fit       0.015363
 **** Fit       0.015610
 **** Fit       0.014086
 **** Fit       0.009769
 **** Fit       0.002025
 **** Fit      -0.008734
 **** Fit      -0.020899
 **** Fit      -0.032201
 **** Fit      -0.040495
 **** Fit      -0.044528
 **** Fit      -0.044419
 **** Fit      -0.041367
 **** Fit      -0.036836
 **** Fit      -0.031944
 **** Fit      -0.027322
 **** Fit       0.010859
 **** Fit       0.012185
 **** Fit       0.013418
 **** Fit       0.014253
 **** Fit       0.014160
 **** Fit       0.012354
 **** Fit       0.007969
 **** Fit       0.000519
 **** Fit      -0.009560
 **** Fit      -0.020791
 **** Fit      -0.031115
 **** Fit      -0.038618
 **** Fit      -0.042234
 **** Fit      -0.042111
 **** Fit      -0.039320
 **** Fit      -0.035156
 **** Fit      -0.030619
 **** Fit       0.010092
 **** Fit       0.011122
 **** Fit       0.011971
 **** Fit       0.012345
 **** Fit       0.011775
 **** Fit       0.009626
 **** Fit       0.005259
 **** Fit      -0.001608
 **** Fit      -0.010525
 **** Fit      -0.020235
 **** Fit      -0.029033
 **** Fit      -0.035369
 **** Fit      -0.038425
 **** Fit      -0.038352
 **** Fit      -0.036012
 **** Fit      -0.032447
 **** Fit      -0.028491
 **** Fit       0.009755
 **** Fit       0.010184
 **** Fit       0.010090
 **** Fit       0.009089
 **** Fit       0.006717
 **** Fit       0.002562
 **** Fit      -0.003479
 **** Fit      -0.010973
 **** Fit      -0.018922
 **** Fit      -0.026025
 **** Fit      -0.031131
 **** Fit      -0.033651
 **** Fit      -0.033703
 **** Fit      -0.031916
 **** Fit      -0.029067
 **** Fit      -0.025809
 **** Fit       0.008342
 **** Fit       0.007874
 **** Fit       0.006593
 **** Fit       0.004188
 **** Fit       0.000432
 **** Fit      -0.004662
 **** Fit      -0.010711
 **** Fit      -0.016964
 **** Fit      -0.022495
 **** Fit      -0.026501
 **** Fit      -0.028570
 **** Fit      -0.028774
 **** Fit      -0.027535
 **** Fit      -0.025398
 **** Fit       0.006644
 **** Fit       0.005934
 **** Fit       0.004538
 **** Fit       0.002266
 **** Fit      -0.000985
 **** Fit      -0.005143
 **** Fit      -0.009891
 **** Fit      -0.014692
 **** Fit      -0.018912
 **** Fit      -0.022013
 **** Fit      -0.023715
 **** Fit      -0.024046
 **** Fit      -0.023272
 **** Fit       0.002983
 **** Fit       0.000946
 **** Fit      -0.001779
 **** Fit      -0.005098
 **** Fit      -0.008765
 **** Fit      -0.012406
 **** Fit      -0.015599
 **** Fit      -0.017991
 **** Fit      -0.019391
 **** Fit      -0.001853
 **** Fit      -0.004323
 **** Fit      -0.007252
 **** Fit      -0.010436
 **** Fit      -0.013578
 **** Fit       0.002843
 **** Fit       0.001423
 **** Fit      -0.000697
 **** Fit      -0.003567
 **** Fit      -0.007101
 **** Fit      -0.011047
 **** Fit      -0.015003
 **** Fit      -0.018508
 **** Fit      -0.021160
 **** Fit      -0.022732
 **** Fit       0.005169
 **** Fit       0.004463
 **** Fit       0.003079
 **** Fit       0.000824
 **** Fit      -0.002418
 **** Fit      -0.006585
 **** Fit      -0.011377
 **** Fit      -0.016271
 **** Fit      -0.020638
 **** Fit      -0.023924
 **** Fit      -0.025815
 **** Fit      -0.026299
 **** Fit      -0.025612
 **** Fit       0.006701
 **** Fit       0.006199
 **** Fit       0.004939
 **** Fit       0.002638
 **** Fit      -0.000904
 **** Fit      -0.005673
 **** Fit      -0.011331
 **** Fit      -0.017224
 **** Fit      -0.022532
 **** Fit      -0.026521
 **** Fit      -0.028768
 **** Fit      -0.029266
 **** Fit      -0.028341
 **** Fit      -0.026465
 **** Fit       0.007890
 **** Fit       0.008126
 **** Fit       0.007866
 **** Fit       0.006790
 **** Fit       0.004533
 **** Fit       0.000792
 **** Fit      -0.004480
 **** Fit      -0.010925
 **** Fit      -0.017762
 **** Fit      -0.023984
 **** Fit      -0.028667
 **** Fit      -0.031276
 **** Fit      -0.031802
 **** Fit      -0.030659
 **** Fit      -0.028441
 **** Fit       0.008816
 **** Fit       0.009255
 **** Fit       0.009212
 **** Fit       0.008325
 **** Fit       0.006157
 **** Fit       0.002318
 **** Fit      -0.003304
 **** Fit      -0.010339
 **** Fit      -0.017913
 **** Fit      -0.024864
 **** Fit      -0.030112
 **** Fit      -0.033024
 **** Fit      -0.033585
 **** Fit      -0.032282
 **** Fit      -0.029807
 **** Fit       0.009358
 **** Fit       0.009911
 **** Fit       0.009992
 **** Fit       0.009221
 **** Fit       0.007120
 **** Fit       0.003253
 **** Fit      -0.002533
 **** Fit      -0.009865
 **** Fit      -0.017818
 **** Fit      -0.025148
 **** Fit      -0.030694
 **** Fit      -0.033769
 **** Fit      -0.034354
 **** Fit      -0.032975
 **** Fit      -0.030375
 **** Fit      -0.027224
 **** Fit       0.009449
 **** Fit       0.009992
 **** Fit       0.010062
 **** Fit       0.009282
 **** Fit       0.007179
 **** Fit       0.003324
 **** Fit      -0.002430
 **** Fit      -0.009710
 **** Fit      -0.017597
 **** Fit      -0.024858
 **** Fit      -0.030347
 **** Fit      -0.033391
 **** Fit      -0.033973
 **** Fit      -0.032615
 **** Fit      -0.030050
 **** Fit      -0.026937
 **** Fit       0.009096
 **** Fit       0.009512
 **** Fit       0.009443
 **** Fit       0.008537
 **** Fit       0.006371
 **** Fit       0.002576
 **** Fit      -0.002948
 **** Fit      -0.009831
 **** Fit      -0.017218
 **** Fit      -0.023979
 **** Fit      -0.029077
 **** Fit      -0.031909
 **** Fit      -0.032470
 **** Fit      -0.031231
 **** Fit      -0.028855
 **** Fit       0.008383
 **** Fit       0.008594
 **** Fit       0.008309
 **** Fit       0.007224
 **** Fit       0.004993
 **** Fit       0.001340
 **** Fit      -0.003770
 **** Fit      -0.009980
 **** Fit      -0.016543
 **** Fit      -0.022498
 **** Fit      -0.026980
 **** Fit      -0.029492
 **** Fit      -0.030034
 **** Fit      -0.028994
 **** Fit      -0.026928
 **** Fit       0.007417
 **** Fit       0.006909
 **** Fit       0.005666
 **** Fit       0.003429
 **** Fit       0.000021
 **** Fit      -0.004533
 **** Fit      -0.009906
 **** Fit      -0.015481
 **** Fit      -0.020496
 **** Fit      -0.024275
 **** Fit      -0.026435
 **** Fit      -0.026969
 **** Fit      -0.026177
 **** Fit       0.005476
 **** Fit       0.004143
 **** Fit       0.001988
 **** Fit      -0.001084
 **** Fit      -0.005008
 **** Fit      -0.009499
 **** Fit      -0.014075
 **** Fit      -0.018161
 **** Fit      -0.021258
 **** Fit      -0.023081
 **** Fit      -0.023617
 **** Fit       0.002830
 **** Fit       0.000836
 **** Fit      -0.001847
 **** Fit      -0.005136
 **** Fit      -0.008795
 **** Fit      -0.012462
 **** Fit      -0.015721
 **** Fit      -0.018215
 **** Fit      -0.004970
 **** Fit      -0.007900
 **** Fit      -0.004025
 **** Fit      -0.006799
 **** Fit      -0.009821
 **** Fit       0.001235
 **** Fit      -0.000728
 **** Fit      -0.003350
 **** Fit      -0.006553
 **** Fit      -0.010119
 **** Fit      -0.013711
 **** Fit      -0.016936
 **** Fit      -0.019450
 **** Fit       0.003743
 **** Fit       0.002424
 **** Fit       0.000370
 **** Fit      -0.002493
 **** Fit      -0.006099
 **** Fit      -0.010202
 **** Fit      -0.014393
 **** Fit      -0.018181
 **** Fit      -0.021129
 **** Fit      -0.022966
 **** Fit      -0.023647
 **** Fit       0.005461
 **** Fit       0.004839
 **** Fit       0.003574
 **** Fit       0.001478
 **** Fit      -0.001564
 **** Fit      -0.005508
 **** Fit      -0.010085
 **** Fit      -0.014819
 **** Fit      -0.019128
 **** Fit      -0.022482
 **** Fit      -0.024554
 **** Fit      -0.025291
 **** Fit       0.006240
 **** Fit       0.005715
 **** Fit       0.004514
 **** Fit       0.002412
 **** Fit      -0.000742
 **** Fit      -0.004923
 **** Fit      -0.009849
 **** Fit      -0.014994
 **** Fit      -0.019702
 **** Fit      -0.023371
 **** Fit      -0.025627
 **** Fit      -0.026411
 **** Fit      -0.025934
 **** Fit       0.006705
 **** Fit       0.006238
 **** Fit       0.005078
 **** Fit       0.002984
 **** Fit      -0.000217
 **** Fit      -0.004509
 **** Fit      -0.009607
 **** Fit      -0.014959
 **** Fit      -0.019870
 **** Fit      -0.023700
 **** Fit      -0.026052
 **** Fit      -0.026863
 **** Fit      -0.026358
 **** Fit       0.006799
 **** Fit       0.006329
 **** Fit       0.005170
 **** Fit       0.003082
 **** Fit      -0.000105
 **** Fit      -0.004373
 **** Fit      -0.009439
 **** Fit      -0.014752
 **** Fit      -0.019626
 **** Fit      -0.023428
 **** Fit      -0.025764
 **** Fit      -0.026574
 **** Fit      -0.026081
 **** Fit       0.006527
 **** Fit       0.005999
 **** Fit       0.004803
 **** Fit       0.002722
 **** Fit      -0.000389
 **** Fit      -0.004499
 **** Fit      -0.009330
 **** Fit      -0.014368
 **** Fit      -0.018973
 **** Fit      -0.022563
 **** Fit      -0.024778
 **** Fit      -0.025562
 **** Fit      -0.025119
 **** Fit       0.005340
 **** Fit       0.004092
 **** Fit       0.002037
 **** Fit      -0.000931
 **** Fit      -0.004761
 **** Fit      -0.009193
 **** Fit      -0.013768
 **** Fit      -0.017927
 **** Fit      -0.021170
 **** Fit      -0.023188
 **** Fit      -0.023931
 **** Fit       0.004490
 **** Fit       0.003205
 **** Fit       0.001215
 **** Fit      -0.001544
 **** Fit      -0.005004
 **** Fit      -0.008929
 **** Fit      -0.012930
 **** Fit      -0.016548
 **** Fit      -0.019373
 **** Fit      -0.021156
 **** Fit       0.002300
 **** Fit       0.000423
 **** Fit      -0.002074
 **** Fit      -0.005112
 **** Fit      -0.008486
 **** Fit      -0.011881
 **** Fit      -0.014936
 **** Fit      -0.003382
 **** Fit      -0.006139
 **** Fit      -0.009176
 **** Fit      -0.012229
 **** Fit       0.001421
 **** Fit      -0.000414
 **** Fit      -0.002858
 **** Fit      -0.005841
 **** Fit      -0.009172
 **** Fit      -0.012552
 **** Fit      -0.015631
 **** Fit       0.002016
 **** Fit       0.000148
 **** Fit      -0.002390
 **** Fit      -0.005532
 **** Fit      -0.009076
 **** Fit      -0.012695
 **** Fit      -0.016004
 **** Fit      -0.018651
 **** Fit       0.002391
 **** Fit       0.000511
 **** Fit      -0.002067
 **** Fit      -0.005284
 **** Fit      -0.008932
 **** Fit      -0.012670
 **** Fit      -0.016094
 **** Fit      -0.018834
 **** Fit       0.002494
 **** Fit       0.000622
 **** Fit      -0.001945
 **** Fit      -0.005145
 **** Fit      -0.008772
 **** Fit      -0.012488
 **** Fit      -0.015891
 **** Fit      -0.018616
 **** Fit       0.002331
 **** Fit       0.000485
 **** Fit      -0.002016
 **** Fit      -0.005109
 **** Fit      -0.008594
 **** Fit      -0.012150
 **** Fit      -0.015400
 **** Fit       0.000166
 **** Fit      -0.002220
 **** Fit      -0.005126
 **** Fit      -0.008365
 **** Fit      -0.011649
 **** Fit      -0.002467
 **** Fit      -0.005125
 **** Fit      -0.008047
 -----------------------------------------------------------------
 Leave Link  602 at Fri Apr 28 13:11:49 2017, MaxMem=   33554432 cpu:      93.3
 (Enter /scratch/michal/g09/l9999.exe)

 Test job not archived.
 1\1\GINC-RZEPICHA\SP\RHF\6-31G(d)\C27H46O3\MICHAL\28-Apr-2017\0\\#P HF
 /6-31G* SCF(Conver=6) NoSymm Test Pop=chelpg IOp(6/33=2) GFInput GFPri
 nt\\MEP - Input generated by R.E.D.-III.x MOLECULE\\0,1\C,0,7.52134184
 ,2.21459827,0.06259711\H,0,7.36013719,2.18191816,1.14711273\C,0,6.8270
 6712,1.00733702,-0.58277567\H,0,7.20891234,0.08049231,-0.14401495\H,0,
 7.10839249,0.9913866,-1.64846012\C,0,5.31597763,1.06255197,-0.45748636
 \C,0,4.62457539,2.35960348,-0.88937909\C,0,5.41256871,3.56487893,-0.28
 783668\H,0,5.21177995,3.60267072,0.79194943\H,0,5.0279042,4.50011299,-
 0.70817702\C,0,6.9344123,3.51198659,-0.49258113\H,0,7.18152528,3.58792
 704,-1.56184917\H,0,7.40788696,4.36889234,0.\C,0,4.64073769,0.,0.\H,0,
 5.18171799,-0.89381778,0.3025472\C,0,3.14758804,-0.10239852,0.103847\H
 ,0,2.84774488,-0.20956313,1.15792089\C,0,2.38323628,1.0620501,-0.54730
 925\H,0,2.3277228,0.84152018,-1.62120892\C,0,3.16078468,2.39190528,-0.
 33042825\H,0,3.26452475,2.50215933,0.76140807\C,0,2.34374999,3.6088809
 7,-0.82475561\H,0,2.29277975,3.60169724,-1.91876355\H,0,2.86486239,4.5
 3290565,-0.55222747\C,0,0.91159659,3.67280429,-0.2602948\H,0,0.9582251
 3,3.83139022,0.82622783\H,0,0.40391878,4.54743348,-0.68367371\C,0,0.12
 662018,2.37884779,-0.5446692\C,0,0.96493427,1.20064789,0.03632924\H,0,
 1.1125226,1.4503912,1.1005921\C,0,0.,0.,0.\H,0,0.26276859,-0.76187534,
 0.74047577\H,0,0.03078049,-0.49221517,-0.97718809\C,0,-1.39415271,0.63
 171861,0.27394694\H,0,-2.1114687,0.33183397,-0.49672474\H,0,-1.8149140
 6,0.29849484,1.22915824\C,0,-1.18925771,2.17909744,0.28522612\H,0,-0.9
 0023152,2.43665688,1.31375857\C,0,-0.10582528,2.22078303,-2.06539686\H
 ,0,0.82769785,2.04999898,-2.60749333\H,0,-0.76915073,1.38413094,-2.298
 41647\H,0,-0.55679194,3.12534602,-2.48307655\C,0,-2.50873755,2.9653553
 2,0.03691532\H,0,-3.21266648,2.51751945,0.75498776\C,0,-3.16936494,2.7
 9873077,-1.34661152\H,0,-2.66960549,3.3937248,-2.11665745\H,0,-4.20947
 061,3.14079449,-1.29948454\H,0,-3.18519226,1.75887865,-1.68569437\C,0,
 4.65012413,2.44182175,-2.43918143\H,0,4.30546459,3.41861551,-2.7927467
 6\H,0,5.66018665,2.29577991,-2.83078545\H,0,4.01799978,1.66951681,-2.8
 8736697\O,0,2.68702165,-1.28767187,-0.59314688\O,0,3.163085,-2.4526791
 ,0.14602858\H,0,2.31737985,-2.82137795,0.44996809\O,0,8.94306245,2.151
 28242,-0.08127098\H,0,9.15972685,2.16908984,-1.02410027\C,0,-2.434943,
 4.47472065,0.37503098\H,0,-1.73764626,4.96408217,-0.31681793\H,0,-3.42
 117143,4.90849333,0.15496362\C,0,-2.06093307,4.8624393,1.81809338\H,0,
 -1.05017492,4.51046927,2.05247196\H,0,-2.01327379,5.95970004,1.8676085
 9\C,0,-3.05150159,4.36900993,2.88472136\H,0,-3.02142371,3.27177233,2.9
 5039066\H,0,-4.07041139,4.62562633,2.55949152\C,0,-2.83196619,4.948177
 1,4.29749123\H,0,-2.84069435,6.0458381,4.21069548\C,0,-3.9829351,4.543
 50755,5.23208153\H,0,-4.02205849,3.45343994,5.35470415\H,0,-3.86093369
 ,4.98464725,6.22789316\H,0,-4.95223434,4.86879372,4.83715471\C,0,-1.47
 942852,4.53478572,4.90017998\H,0,-1.40841611,3.44216867,4.98188016\H,0
 ,-1.35602755,4.95036434,5.9067277\H,0,-0.63511675,4.88074851,4.2955236
 \\Version=EM64L-G09RevC.01\HF=-1273.6770444\RMSD=5.699e-07\Dipole=-0.9
 027664,0.6152987,-0.0659313\Quadrupole=-13.8933636,8.2090039,5.6843597
 ,4.2267914,-7.97192,-5.0385539\PG=C01 [X(C27H46O3)]\\@


 OUR LITTLE SYSTEMS HAVE THEIR DAY,    
   THEY HAVE THEIR DAY AND CEASE TO BE.
   THEY ARE BUT BROKEN LIGHTS OF THEE, 
 AND THOU, OH LORD, ART MORE THAN THEY.
          -------------------          
 LET KNOWLEDGE GROW FROM MORE TO MORE, 
   BUT MORE OF REVERENCE IN US DWELL.  
   THAT MIND AND SOUL, ACCORDING WELL, 
 MAY MAKE ONE MUSIC AS BEFORE.....     
          -------------------          
                    LORD TENNYSON      
 Job cpu time:  0 days  0 hours 44 minutes  3.1 seconds.
 File lengths (MBytes):  RWF=    159 Int=      0 D2E=      0 Chk=     11 Scr=      1
 Normal termination of Gaussian 09 at Fri Apr 28 13:11:49 2017.
