 Entering Gaussian System, Link 0=/scratch/michal/g09//g09
 Input=JOB2-gau_m1-8-4.com
 Output=JOB2-gau_m1-8-4.log
 Initial command:
 /scratch/michal/g09/l1.exe /scratch/michal/gauss_scratch/Gau-45102.inp -scrdir=/scratch/michal/gauss_scratch/
 Entering Link 1 = /scratch/michal/g09/l1.exe PID=     45104.
  
 Copyright (c) 1988,1990,1992,1993,1995,1998,2003,2009,2011,
            Gaussian, Inc.  All Rights Reserved.
  
 This is part of the Gaussian(R) 09 program.  It is based on
 the Gaussian(R) 03 system (copyright 2003, Gaussian, Inc.),
 the Gaussian(R) 98 system (copyright 1998, Gaussian, Inc.),
 the Gaussian(R) 94 system (copyright 1995, Gaussian, Inc.),
 the Gaussian 92(TM) system (copyright 1992, Gaussian, Inc.),
 the Gaussian 90(TM) system (copyright 1990, Gaussian, Inc.),
 the Gaussian 88(TM) system (copyright 1988, Gaussian, Inc.),
 the Gaussian 86(TM) system (copyright 1986, Carnegie Mellon
 University), and the Gaussian 82(TM) system (copyright 1983,
 Carnegie Mellon University). Gaussian is a federally registered
 trademark of Gaussian, Inc.
  
 This software contains proprietary and confidential information,
 including trade secrets, belonging to Gaussian, Inc.
  
 This software is provided under written license and may be
 used, copied, transmitted, or stored only in accord with that
 written license.
  
 The following legend is applicable only to US Government
 contracts under FAR:
  
                    RESTRICTED RIGHTS LEGEND
  
 Use, reproduction and disclosure by the US Government is
 subject to restrictions as set forth in subparagraphs (a)
 and (c) of the Commercial Computer Software - Restricted
 Rights clause in FAR 52.227-19.
  
 Gaussian, Inc.
 340 Quinnipiac St., Bldg. 40, Wallingford CT 06492
  
  
 ---------------------------------------------------------------
 Warning -- This program may not be used in any manner that
 competes with the business of Gaussian, Inc. or will provide
 assistance to any competitor of Gaussian, Inc.  The licensee
 of this program is prohibited from giving any competitor of
 Gaussian, Inc. access to this program.  By using this program,
 the user acknowledges that Gaussian, Inc. is engaged in the
 business of creating and licensing software in the field of
 computational chemistry and represents and warrants to the
 licensee that it is not a competitor of Gaussian, Inc. and that
 it will not use this program in any manner prohibited above.
 ---------------------------------------------------------------
  

 Cite this work as:
 Gaussian 09, Revision C.01,
 M. J. Frisch, G. W. Trucks, H. B. Schlegel, G. E. Scuseria, 
 M. A. Robb, J. R. Cheeseman, G. Scalmani, V. Barone, B. Mennucci, 
 G. A. Petersson, H. Nakatsuji, M. Caricato, X. Li, H. P. Hratchian, 
 A. F. Izmaylov, J. Bloino, G. Zheng, J. L. Sonnenberg, M. Hada, 
 M. Ehara, K. Toyota, R. Fukuda, J. Hasegawa, M. Ishida, T. Nakajima, 
 Y. Honda, O. Kitao, H. Nakai, T. Vreven, J. A. Montgomery, Jr., 
 J. E. Peralta, F. Ogliaro, M. Bearpark, J. J. Heyd, E. Brothers, 
 K. N. Kudin, V. N. Staroverov, T. Keith, R. Kobayashi, J. Normand, 
 K. Raghavachari, A. Rendell, J. C. Burant, S. S. Iyengar, J. Tomasi, 
 M. Cossi, N. Rega, J. M. Millam, M. Klene, J. E. Knox, J. B. Cross, 
 V. Bakken, C. Adamo, J. Jaramillo, R. Gomperts, R. E. Stratmann, 
 O. Yazyev, A. J. Austin, R. Cammi, C. Pomelli, J. W. Ochterski, 
 R. L. Martin, K. Morokuma, V. G. Zakrzewski, G. A. Voth, 
 P. Salvador, J. J. Dannenberg, S. Dapprich, A. D. Daniels, 
 O. Farkas, J. B. Foresman, J. V. Ortiz, J. Cioslowski, 
 and D. J. Fox, Gaussian, Inc., Wallingford CT, 2010.
 
 ******************************************
 Gaussian 09:  EM64L-G09RevC.01 23-Sep-2011
                28-Apr-2017 
 ******************************************
 %Mem=256MB
 %NProc=48
 Will use up to   48 processors via shared memory.
 ----------------------------------------------------------------------
 #P HF/6-31G* SCF(Conver=6) NoSymm Test Pop=chelpg IOp(6/33=2) GFInput 
 GFPrint
 ----------------------------------------------------------------------
 1/38=1/1;
 2/12=2,15=1,17=6,18=5,40=1/2;
 3/5=1,6=6,7=1,11=9,16=1,24=110,25=1,30=1/1,2,3;
 4//1;
 5/5=2,6=6,38=5/2;
 6/7=2,8=2,9=2,10=2,15=8,20=3,28=1,33=2/1,2;
 99/5=1,9=1/99;
 Leave Link    1 at Fri Apr 28 12:39:06 2017, MaxMem=   33554432 cpu:       5.1
 (Enter /scratch/michal/g09/l101.exe)
 ----------------------------------------------
 MEP - Input generated by R.E.D.-III.x MOLECULE
 ----------------------------------------------
 Charge =  0 Multiplicity = 1
 Symbolic Z-Matrix:
 C                     0.99724  -0.88667  -1.69567 
 H                     1.15095   0.08277  -2.18524 
 C                     2.21035  -1.78554  -1.97386 
 H                     2.34977  -1.89654  -3.05384 
 H                     1.97756  -2.78827  -1.57999 
 C                     3.48409  -1.27341  -1.32879 
 C                     3.42506  -0.91218   0.15969 
 C                     2.12822  -0.08239   0.41637 
 H                     2.27523   0.92389   0. 
 H                     1.98661   0.04622   1.4944 
 C                     0.84542  -0.67074  -0.19083 
 H                     0.59917  -1.63133   0.28567 
 H                     0.        0.        0. 
 C                     4.60674  -1.16022  -2.05122 
 H                     4.58892  -1.40391  -3.11404 
 C                     5.94326  -0.72799  -1.5241 
 H                     6.22981   0.22735  -1.99332 
 C                     6.01141  -0.59632   0.00501 
 H                     6.16773  -1.60588   0.39967 
 C                     4.66561  -0.03075   0.5417 
 H                     4.51352   0.9304    0.02284 
 C                     4.74432   0.29142   2.05251 
 H                     4.78467  -0.63895   2.62904 
 H                     3.82783   0.8028    2.36644 
 C                     5.94936   1.16941   2.44196 
 H                     5.83626   2.16275   1.98514 
 H                     5.93832   1.31977   3.52792 
 C                     7.2807    0.55193   1.97599 
 C                     7.16603   0.324     0.43849 
 H                     6.92493   1.31589   0.01806 
 C                     8.60738   0.        0. 
 H                     8.78031   0.22118  -1.05634 
 H                     8.81803  -1.06682   0.12649 
 C                     9.48691   0.86793   0.94388 
 H                     10.25255   0.25518   1.43058 
 H                     10.02474   1.65065   0.39726 
 C                     8.52277   1.50873   1.99122 
 H                     8.15403   2.4364    1.53228 
 C                     7.54667  -0.77069   2.73246 
 H                     6.82933  -1.54966   2.46215 
 H                     8.54316  -1.17011   2.52918 
 H                     7.46491  -0.62065   3.81291 
 C                     9.25246   1.97255   3.28529 
 H                     10.08702   2.58325   2.90298 
 C                     9.89909   0.87218   4.15097 
 H                     9.16126   0.34169   4.75992 
 H                     10.62108   1.32453   4.84038 
 H                     10.43871   0.12876   3.5574 
 C                     3.37595  -2.22682   0.98303 
 H                     3.18923  -2.02549   2.04236 
 H                     2.57686  -2.88725   0.63537 
 H                     4.31432  -2.7821    0.89648 
 O                     6.9929   -1.5729   -2.05997 
 O                     6.83446  -2.92365  -1.53367 
 H                     6.43732  -3.3742   -2.29693 
 O                    -0.19251  -1.39936  -2.30111 
 H                    -0.40756  -2.24909  -1.89133 
 C                     8.42565   2.91064   4.19684 
 H                     7.54666   2.37622   4.581 
 H                     9.04148   3.13622   5.07945 
 C                     7.98496   4.24546   3.5757 
 H                     8.86632   4.74388   3.14944 
 H                     7.2988    4.06364   2.74103 
 C                     7.30874   5.1683    4.60291 
 H                     8.00606   5.33679   5.4363 
 H                     6.44557   4.64039   5.03389 
 C                     6.82758   6.54479   4.08754 
 H                     6.38055   7.05166   4.95559 
 C                     7.98432   7.43009   3.59479 
 H                     8.44668   7.02383   2.68779 
 H                     7.62884   8.43899   3.35604 
 H                     8.76751   7.52362   4.35632 
 C                     5.72792   6.42791   3.01897 
 H                     6.11063   5.9874    2.09109 
 H                     5.3219    7.41454   2.76809 
 H                     4.8968    5.80384   3.36817 
 
 NAtoms=     76 NQM=        0 NQMF=       0 NMMI=     76 NMMIF=      0
                NMic=       0 NMicF=      0.
                    Isotopes and Nuclear Properties:
 (Nuclear quadrupole moments (NQMom) in fm**2, nuclear magnetic moments (NMagM)
  in nuclear magnetons)

  Atom         1           2           3           4           5           6           7           8           9          10
 IAtWgt=          12           1          12           1           1          12          12          12           1           1
 AtmWgt=  12.0000000   1.0078250  12.0000000   1.0078250   1.0078250  12.0000000  12.0000000  12.0000000   1.0078250   1.0078250
 NucSpn=           0           1           0           1           1           0           0           0           1           1
 AtZEff=   0.0000000   0.0000000   0.0000000   0.0000000   0.0000000   0.0000000   0.0000000   0.0000000   0.0000000   0.0000000
 NQMom=    0.0000000   0.0000000   0.0000000   0.0000000   0.0000000   0.0000000   0.0000000   0.0000000   0.0000000   0.0000000
 NMagM=    0.0000000   2.7928460   0.0000000   2.7928460   2.7928460   0.0000000   0.0000000   0.0000000   2.7928460   2.7928460

  Atom        11          12          13          14          15          16          17          18          19          20
 IAtWgt=          12           1           1          12           1          12           1          12           1          12
 AtmWgt=  12.0000000   1.0078250   1.0078250  12.0000000   1.0078250  12.0000000   1.0078250  12.0000000   1.0078250  12.0000000
 NucSpn=           0           1           1           0           1           0           1           0           1           0
 AtZEff=   0.0000000   0.0000000   0.0000000   0.0000000   0.0000000   0.0000000   0.0000000   0.0000000   0.0000000   0.0000000
 NQMom=    0.0000000   0.0000000   0.0000000   0.0000000   0.0000000   0.0000000   0.0000000   0.0000000   0.0000000   0.0000000
 NMagM=    0.0000000   2.7928460   2.7928460   0.0000000   2.7928460   0.0000000   2.7928460   0.0000000   2.7928460   0.0000000

  Atom        21          22          23          24          25          26          27          28          29          30
 IAtWgt=           1          12           1           1          12           1           1          12          12           1
 AtmWgt=   1.0078250  12.0000000   1.0078250   1.0078250  12.0000000   1.0078250   1.0078250  12.0000000  12.0000000   1.0078250
 NucSpn=           1           0           1           1           0           1           1           0           0           1
 AtZEff=   0.0000000   0.0000000   0.0000000   0.0000000   0.0000000   0.0000000   0.0000000   0.0000000   0.0000000   0.0000000
 NQMom=    0.0000000   0.0000000   0.0000000   0.0000000   0.0000000   0.0000000   0.0000000   0.0000000   0.0000000   0.0000000
 NMagM=    2.7928460   0.0000000   2.7928460   2.7928460   0.0000000   2.7928460   2.7928460   0.0000000   0.0000000   2.7928460

  Atom        31          32          33          34          35          36          37          38          39          40
 IAtWgt=          12           1           1          12           1           1          12           1          12           1
 AtmWgt=  12.0000000   1.0078250   1.0078250  12.0000000   1.0078250   1.0078250  12.0000000   1.0078250  12.0000000   1.0078250
 NucSpn=           0           1           1           0           1           1           0           1           0           1
 AtZEff=   0.0000000   0.0000000   0.0000000   0.0000000   0.0000000   0.0000000   0.0000000   0.0000000   0.0000000   0.0000000
 NQMom=    0.0000000   0.0000000   0.0000000   0.0000000   0.0000000   0.0000000   0.0000000   0.0000000   0.0000000   0.0000000
 NMagM=    0.0000000   2.7928460   2.7928460   0.0000000   2.7928460   2.7928460   0.0000000   2.7928460   0.0000000   2.7928460

  Atom        41          42          43          44          45          46          47          48          49          50
 IAtWgt=           1           1          12           1          12           1           1           1          12           1
 AtmWgt=   1.0078250   1.0078250  12.0000000   1.0078250  12.0000000   1.0078250   1.0078250   1.0078250  12.0000000   1.0078250
 NucSpn=           1           1           0           1           0           1           1           1           0           1
 AtZEff=   0.0000000   0.0000000   0.0000000   0.0000000   0.0000000   0.0000000   0.0000000   0.0000000   0.0000000   0.0000000
 NQMom=    0.0000000   0.0000000   0.0000000   0.0000000   0.0000000   0.0000000   0.0000000   0.0000000   0.0000000   0.0000000
 NMagM=    2.7928460   2.7928460   0.0000000   2.7928460   0.0000000   2.7928460   2.7928460   2.7928460   0.0000000   2.7928460

  Atom        51          52          53          54          55          56          57          58          59          60
 IAtWgt=           1           1          16          16           1          16           1          12           1           1
 AtmWgt=   1.0078250   1.0078250  15.9949146  15.9949146   1.0078250  15.9949146   1.0078250  12.0000000   1.0078250   1.0078250
 NucSpn=           1           1           0           0           1           0           1           0           1           1
 AtZEff=   0.0000000   0.0000000   0.0000000   0.0000000   0.0000000   0.0000000   0.0000000   0.0000000   0.0000000   0.0000000
 NQMom=    0.0000000   0.0000000   0.0000000   0.0000000   0.0000000   0.0000000   0.0000000   0.0000000   0.0000000   0.0000000
 NMagM=    2.7928460   2.7928460   0.0000000   0.0000000   2.7928460   0.0000000   2.7928460   0.0000000   2.7928460   2.7928460

  Atom        61          62          63          64          65          66          67          68          69          70
 IAtWgt=          12           1           1          12           1           1          12           1          12           1
 AtmWgt=  12.0000000   1.0078250   1.0078250  12.0000000   1.0078250   1.0078250  12.0000000   1.0078250  12.0000000   1.0078250
 NucSpn=           0           1           1           0           1           1           0           1           0           1
 AtZEff=   0.0000000   0.0000000   0.0000000   0.0000000   0.0000000   0.0000000   0.0000000   0.0000000   0.0000000   0.0000000
 NQMom=    0.0000000   0.0000000   0.0000000   0.0000000   0.0000000   0.0000000   0.0000000   0.0000000   0.0000000   0.0000000
 NMagM=    0.0000000   2.7928460   2.7928460   0.0000000   2.7928460   2.7928460   0.0000000   2.7928460   0.0000000   2.7928460

  Atom        71          72          73          74          75          76
 IAtWgt=           1           1          12           1           1           1
 AtmWgt=   1.0078250   1.0078250  12.0000000   1.0078250   1.0078250   1.0078250
 NucSpn=           1           1           0           1           1           1
 AtZEff=   0.0000000   0.0000000   0.0000000   0.0000000   0.0000000   0.0000000
 NQMom=    0.0000000   0.0000000   0.0000000   0.0000000   0.0000000   0.0000000
 NMagM=    2.7928460   2.7928460   0.0000000   2.7928460   2.7928460   2.7928460
 Leave Link  101 at Fri Apr 28 12:39:06 2017, MaxMem=   33554432 cpu:      13.7
 (Enter /scratch/michal/g09/l202.exe)
 Symmetry turned off by external request.
 Stoichiometry    C27H46O3
 Framework group  C1[X(C27H46O3)]
 Deg. of freedom   222
 Full point group                 C1      NOp   1
                          Input orientation:                          
 ---------------------------------------------------------------------
 Center     Atomic      Atomic             Coordinates (Angstroms)
 Number     Number       Type             X           Y           Z
 ---------------------------------------------------------------------
      1          6           0        0.997238   -0.886673   -1.695668
      2          1           0        1.150952    0.082773   -2.185244
      3          6           0        2.210354   -1.785538   -1.973862
      4          1           0        2.349768   -1.896544   -3.053837
      5          1           0        1.977558   -2.788267   -1.579986
      6          6           0        3.484092   -1.273407   -1.328789
      7          6           0        3.425059   -0.912182    0.159687
      8          6           0        2.128224   -0.082394    0.416369
      9          1           0        2.275230    0.923892    0.000000
     10          1           0        1.986610    0.046217    1.494396
     11          6           0        0.845422   -0.670739   -0.190833
     12          1           0        0.599174   -1.631325    0.285674
     13          1           0        0.000000    0.000000    0.000000
     14          6           0        4.606744   -1.160220   -2.051222
     15          1           0        4.588918   -1.403907   -3.114043
     16          6           0        5.943263   -0.727986   -1.524097
     17          1           0        6.229815    0.227354   -1.993318
     18          6           0        6.011406   -0.596319    0.005007
     19          1           0        6.167730   -1.605877    0.399669
     20          6           0        4.665608   -0.030753    0.541697
     21          1           0        4.513518    0.930402    0.022841
     22          6           0        4.744320    0.291418    2.052509
     23          1           0        4.784668   -0.638946    2.629038
     24          1           0        3.827830    0.802803    2.366438
     25          6           0        5.949357    1.169415    2.441957
     26          1           0        5.836263    2.162749    1.985135
     27          1           0        5.938316    1.319773    3.527919
     28          6           0        7.280702    0.551927    1.975985
     29          6           0        7.166033    0.323996    0.438494
     30          1           0        6.924932    1.315885    0.018063
     31          6           0        8.607381    0.000000    0.000000
     32          1           0        8.780307    0.221185   -1.056337
     33          1           0        8.818029   -1.066823    0.126491
     34          6           0        9.486913    0.867930    0.943881
     35          1           0       10.252554    0.255178    1.430578
     36          1           0       10.024739    1.650646    0.397257
     37          6           0        8.522770    1.508726    1.991220
     38          1           0        8.154035    2.436399    1.532279
     39          6           0        7.546673   -0.770691    2.732457
     40          1           0        6.829326   -1.549662    2.462148
     41          1           0        8.543158   -1.170115    2.529181
     42          1           0        7.464912   -0.620650    3.812906
     43          6           0        9.252457    1.972546    3.285288
     44          1           0       10.087025    2.583252    2.902981
     45          6           0        9.899089    0.872177    4.150974
     46          1           0        9.161255    0.341691    4.759920
     47          1           0       10.621079    1.324533    4.840376
     48          1           0       10.438709    0.128759    3.557399
     49          6           0        3.375950   -2.226815    0.983026
     50          1           0        3.189233   -2.025494    2.042361
     51          1           0        2.576857   -2.887249    0.635367
     52          1           0        4.314315   -2.782098    0.896476
     53          8           0        6.992905   -1.572897   -2.059975
     54          8           0        6.834463   -2.923645   -1.533671
     55          1           0        6.437319   -3.374202   -2.296933
     56          8           0       -0.192510   -1.399356   -2.301105
     57          1           0       -0.407560   -2.249087   -1.891334
     58          6           0        8.425650    2.910638    4.196839
     59          1           0        7.546659    2.376222    4.580998
     60          1           0        9.041480    3.136221    5.079446
     61          6           0        7.984959    4.245456    3.575696
     62          1           0        8.866321    4.743882    3.149438
     63          1           0        7.298804    4.063636    2.741031
     64          6           0        7.308736    5.168300    4.602912
     65          1           0        8.006058    5.336785    5.436304
     66          1           0        6.445573    4.640388    5.033893
     67          6           0        6.827582    6.544787    4.087536
     68          1           0        6.380548    7.051662    4.955592
     69          6           0        7.984317    7.430087    3.594790
     70          1           0        8.446684    7.023833    2.687791
     71          1           0        7.628839    8.438987    3.356039
     72          1           0        8.767505    7.523621    4.356320
     73          6           0        5.727921    6.427909    3.018967
     74          1           0        6.110634    5.987397    2.091086
     75          1           0        5.321900    7.414543    2.768086
     76          1           0        4.896804    5.803844    3.368174
 ---------------------------------------------------------------------
 Rotational constants (GHZ):      0.2140496      0.0776453      0.0641432
 Leave Link  202 at Fri Apr 28 12:39:06 2017, MaxMem=   33554432 cpu:       0.1
 (Enter /scratch/michal/g09/l301.exe)
 Standard basis: 6-31G(d) (6D, 7F)
 Ernie: Thresh=  0.10000D-02 Tol=  0.10000D-05 Strict=F.
 AO basis set in the form of general basis input (Overlap normalization):
      1 0
 S   6 1.00       0.000000000000
      0.3047524880D+04  0.1834737132D-02
      0.4573695180D+03  0.1403732281D-01
      0.1039486850D+03  0.6884262226D-01
      0.2921015530D+02  0.2321844432D+00
      0.9286662960D+01  0.4679413484D+00
      0.3163926960D+01  0.3623119853D+00
 SP   3 1.00       0.000000000000
      0.7868272350D+01 -0.1193324198D+00  0.6899906659D-01
      0.1881288540D+01 -0.1608541517D+00  0.3164239610D+00
      0.5442492580D+00  0.1143456438D+01  0.7443082909D+00
 SP   1 1.00       0.000000000000
      0.1687144782D+00  0.1000000000D+01  0.1000000000D+01
 D   1 1.00       0.000000000000
      0.8000000000D+00  0.1000000000D+01
 ****
      2 0
 S   3 1.00       0.000000000000
      0.1873113696D+02  0.3349460434D-01
      0.2825394365D+01  0.2347269535D+00
      0.6401216923D+00  0.8137573261D+00
 S   1 1.00       0.000000000000
      0.1612777588D+00  0.1000000000D+01
 ****
      3 0
 S   6 1.00       0.000000000000
      0.3047524880D+04  0.1834737132D-02
      0.4573695180D+03  0.1403732281D-01
      0.1039486850D+03  0.6884262226D-01
      0.2921015530D+02  0.2321844432D+00
      0.9286662960D+01  0.4679413484D+00
      0.3163926960D+01  0.3623119853D+00
 SP   3 1.00       0.000000000000
      0.7868272350D+01 -0.1193324198D+00  0.6899906659D-01
      0.1881288540D+01 -0.1608541517D+00  0.3164239610D+00
      0.5442492580D+00  0.1143456438D+01  0.7443082909D+00
 SP   1 1.00       0.000000000000
      0.1687144782D+00  0.1000000000D+01  0.1000000000D+01
 D   1 1.00       0.000000000000
      0.8000000000D+00  0.1000000000D+01
 ****
      4 0
 S   3 1.00       0.000000000000
      0.1873113696D+02  0.3349460434D-01
      0.2825394365D+01  0.2347269535D+00
      0.6401216923D+00  0.8137573261D+00
 S   1 1.00       0.000000000000
      0.1612777588D+00  0.1000000000D+01
 ****
      5 0
 S   3 1.00       0.000000000000
      0.1873113696D+02  0.3349460434D-01
      0.2825394365D+01  0.2347269535D+00
      0.6401216923D+00  0.8137573261D+00
 S   1 1.00       0.000000000000
      0.1612777588D+00  0.1000000000D+01
 ****
      6 0
 S   6 1.00       0.000000000000
      0.3047524880D+04  0.1834737132D-02
      0.4573695180D+03  0.1403732281D-01
      0.1039486850D+03  0.6884262226D-01
      0.2921015530D+02  0.2321844432D+00
      0.9286662960D+01  0.4679413484D+00
      0.3163926960D+01  0.3623119853D+00
 SP   3 1.00       0.000000000000
      0.7868272350D+01 -0.1193324198D+00  0.6899906659D-01
      0.1881288540D+01 -0.1608541517D+00  0.3164239610D+00
      0.5442492580D+00  0.1143456438D+01  0.7443082909D+00
 SP   1 1.00       0.000000000000
      0.1687144782D+00  0.1000000000D+01  0.1000000000D+01
 D   1 1.00       0.000000000000
      0.8000000000D+00  0.1000000000D+01
 ****
      7 0
 S   6 1.00       0.000000000000
      0.3047524880D+04  0.1834737132D-02
      0.4573695180D+03  0.1403732281D-01
      0.1039486850D+03  0.6884262226D-01
      0.2921015530D+02  0.2321844432D+00
      0.9286662960D+01  0.4679413484D+00
      0.3163926960D+01  0.3623119853D+00
 SP   3 1.00       0.000000000000
      0.7868272350D+01 -0.1193324198D+00  0.6899906659D-01
      0.1881288540D+01 -0.1608541517D+00  0.3164239610D+00
      0.5442492580D+00  0.1143456438D+01  0.7443082909D+00
 SP   1 1.00       0.000000000000
      0.1687144782D+00  0.1000000000D+01  0.1000000000D+01
 D   1 1.00       0.000000000000
      0.8000000000D+00  0.1000000000D+01
 ****
      8 0
 S   6 1.00       0.000000000000
      0.3047524880D+04  0.1834737132D-02
      0.4573695180D+03  0.1403732281D-01
      0.1039486850D+03  0.6884262226D-01
      0.2921015530D+02  0.2321844432D+00
      0.9286662960D+01  0.4679413484D+00
      0.3163926960D+01  0.3623119853D+00
 SP   3 1.00       0.000000000000
      0.7868272350D+01 -0.1193324198D+00  0.6899906659D-01
      0.1881288540D+01 -0.1608541517D+00  0.3164239610D+00
      0.5442492580D+00  0.1143456438D+01  0.7443082909D+00
 SP   1 1.00       0.000000000000
      0.1687144782D+00  0.1000000000D+01  0.1000000000D+01
 D   1 1.00       0.000000000000
      0.8000000000D+00  0.1000000000D+01
 ****
      9 0
 S   3 1.00       0.000000000000
      0.1873113696D+02  0.3349460434D-01
      0.2825394365D+01  0.2347269535D+00
      0.6401216923D+00  0.8137573261D+00
 S   1 1.00       0.000000000000
      0.1612777588D+00  0.1000000000D+01
 ****
     10 0
 S   3 1.00       0.000000000000
      0.1873113696D+02  0.3349460434D-01
      0.2825394365D+01  0.2347269535D+00
      0.6401216923D+00  0.8137573261D+00
 S   1 1.00       0.000000000000
      0.1612777588D+00  0.1000000000D+01
 ****
     11 0
 S   6 1.00       0.000000000000
      0.3047524880D+04  0.1834737132D-02
      0.4573695180D+03  0.1403732281D-01
      0.1039486850D+03  0.6884262226D-01
      0.2921015530D+02  0.2321844432D+00
      0.9286662960D+01  0.4679413484D+00
      0.3163926960D+01  0.3623119853D+00
 SP   3 1.00       0.000000000000
      0.7868272350D+01 -0.1193324198D+00  0.6899906659D-01
      0.1881288540D+01 -0.1608541517D+00  0.3164239610D+00
      0.5442492580D+00  0.1143456438D+01  0.7443082909D+00
 SP   1 1.00       0.000000000000
      0.1687144782D+00  0.1000000000D+01  0.1000000000D+01
 D   1 1.00       0.000000000000
      0.8000000000D+00  0.1000000000D+01
 ****
     12 0
 S   3 1.00       0.000000000000
      0.1873113696D+02  0.3349460434D-01
      0.2825394365D+01  0.2347269535D+00
      0.6401216923D+00  0.8137573261D+00
 S   1 1.00       0.000000000000
      0.1612777588D+00  0.1000000000D+01
 ****
     13 0
 S   3 1.00       0.000000000000
      0.1873113696D+02  0.3349460434D-01
      0.2825394365D+01  0.2347269535D+00
      0.6401216923D+00  0.8137573261D+00
 S   1 1.00       0.000000000000
      0.1612777588D+00  0.1000000000D+01
 ****
     14 0
 S   6 1.00       0.000000000000
      0.3047524880D+04  0.1834737132D-02
      0.4573695180D+03  0.1403732281D-01
      0.1039486850D+03  0.6884262226D-01
      0.2921015530D+02  0.2321844432D+00
      0.9286662960D+01  0.4679413484D+00
      0.3163926960D+01  0.3623119853D+00
 SP   3 1.00       0.000000000000
      0.7868272350D+01 -0.1193324198D+00  0.6899906659D-01
      0.1881288540D+01 -0.1608541517D+00  0.3164239610D+00
      0.5442492580D+00  0.1143456438D+01  0.7443082909D+00
 SP   1 1.00       0.000000000000
      0.1687144782D+00  0.1000000000D+01  0.1000000000D+01
 D   1 1.00       0.000000000000
      0.8000000000D+00  0.1000000000D+01
 ****
     15 0
 S   3 1.00       0.000000000000
      0.1873113696D+02  0.3349460434D-01
      0.2825394365D+01  0.2347269535D+00
      0.6401216923D+00  0.8137573261D+00
 S   1 1.00       0.000000000000
      0.1612777588D+00  0.1000000000D+01
 ****
     16 0
 S   6 1.00       0.000000000000
      0.3047524880D+04  0.1834737132D-02
      0.4573695180D+03  0.1403732281D-01
      0.1039486850D+03  0.6884262226D-01
      0.2921015530D+02  0.2321844432D+00
      0.9286662960D+01  0.4679413484D+00
      0.3163926960D+01  0.3623119853D+00
 SP   3 1.00       0.000000000000
      0.7868272350D+01 -0.1193324198D+00  0.6899906659D-01
      0.1881288540D+01 -0.1608541517D+00  0.3164239610D+00
      0.5442492580D+00  0.1143456438D+01  0.7443082909D+00
 SP   1 1.00       0.000000000000
      0.1687144782D+00  0.1000000000D+01  0.1000000000D+01
 D   1 1.00       0.000000000000
      0.8000000000D+00  0.1000000000D+01
 ****
     17 0
 S   3 1.00       0.000000000000
      0.1873113696D+02  0.3349460434D-01
      0.2825394365D+01  0.2347269535D+00
      0.6401216923D+00  0.8137573261D+00
 S   1 1.00       0.000000000000
      0.1612777588D+00  0.1000000000D+01
 ****
     18 0
 S   6 1.00       0.000000000000
      0.3047524880D+04  0.1834737132D-02
      0.4573695180D+03  0.1403732281D-01
      0.1039486850D+03  0.6884262226D-01
      0.2921015530D+02  0.2321844432D+00
      0.9286662960D+01  0.4679413484D+00
      0.3163926960D+01  0.3623119853D+00
 SP   3 1.00       0.000000000000
      0.7868272350D+01 -0.1193324198D+00  0.6899906659D-01
      0.1881288540D+01 -0.1608541517D+00  0.3164239610D+00
      0.5442492580D+00  0.1143456438D+01  0.7443082909D+00
 SP   1 1.00       0.000000000000
      0.1687144782D+00  0.1000000000D+01  0.1000000000D+01
 D   1 1.00       0.000000000000
      0.8000000000D+00  0.1000000000D+01
 ****
     19 0
 S   3 1.00       0.000000000000
      0.1873113696D+02  0.3349460434D-01
      0.2825394365D+01  0.2347269535D+00
      0.6401216923D+00  0.8137573261D+00
 S   1 1.00       0.000000000000
      0.1612777588D+00  0.1000000000D+01
 ****
     20 0
 S   6 1.00       0.000000000000
      0.3047524880D+04  0.1834737132D-02
      0.4573695180D+03  0.1403732281D-01
      0.1039486850D+03  0.6884262226D-01
      0.2921015530D+02  0.2321844432D+00
      0.9286662960D+01  0.4679413484D+00
      0.3163926960D+01  0.3623119853D+00
 SP   3 1.00       0.000000000000
      0.7868272350D+01 -0.1193324198D+00  0.6899906659D-01
      0.1881288540D+01 -0.1608541517D+00  0.3164239610D+00
      0.5442492580D+00  0.1143456438D+01  0.7443082909D+00
 SP   1 1.00       0.000000000000
      0.1687144782D+00  0.1000000000D+01  0.1000000000D+01
 D   1 1.00       0.000000000000
      0.8000000000D+00  0.1000000000D+01
 ****
     21 0
 S   3 1.00       0.000000000000
      0.1873113696D+02  0.3349460434D-01
      0.2825394365D+01  0.2347269535D+00
      0.6401216923D+00  0.8137573261D+00
 S   1 1.00       0.000000000000
      0.1612777588D+00  0.1000000000D+01
 ****
     22 0
 S   6 1.00       0.000000000000
      0.3047524880D+04  0.1834737132D-02
      0.4573695180D+03  0.1403732281D-01
      0.1039486850D+03  0.6884262226D-01
      0.2921015530D+02  0.2321844432D+00
      0.9286662960D+01  0.4679413484D+00
      0.3163926960D+01  0.3623119853D+00
 SP   3 1.00       0.000000000000
      0.7868272350D+01 -0.1193324198D+00  0.6899906659D-01
      0.1881288540D+01 -0.1608541517D+00  0.3164239610D+00
      0.5442492580D+00  0.1143456438D+01  0.7443082909D+00
 SP   1 1.00       0.000000000000
      0.1687144782D+00  0.1000000000D+01  0.1000000000D+01
 D   1 1.00       0.000000000000
      0.8000000000D+00  0.1000000000D+01
 ****
     23 0
 S   3 1.00       0.000000000000
      0.1873113696D+02  0.3349460434D-01
      0.2825394365D+01  0.2347269535D+00
      0.6401216923D+00  0.8137573261D+00
 S   1 1.00       0.000000000000
      0.1612777588D+00  0.1000000000D+01
 ****
     24 0
 S   3 1.00       0.000000000000
      0.1873113696D+02  0.3349460434D-01
      0.2825394365D+01  0.2347269535D+00
      0.6401216923D+00  0.8137573261D+00
 S   1 1.00       0.000000000000
      0.1612777588D+00  0.1000000000D+01
 ****
     25 0
 S   6 1.00       0.000000000000
      0.3047524880D+04  0.1834737132D-02
      0.4573695180D+03  0.1403732281D-01
      0.1039486850D+03  0.6884262226D-01
      0.2921015530D+02  0.2321844432D+00
      0.9286662960D+01  0.4679413484D+00
      0.3163926960D+01  0.3623119853D+00
 SP   3 1.00       0.000000000000
      0.7868272350D+01 -0.1193324198D+00  0.6899906659D-01
      0.1881288540D+01 -0.1608541517D+00  0.3164239610D+00
      0.5442492580D+00  0.1143456438D+01  0.7443082909D+00
 SP   1 1.00       0.000000000000
      0.1687144782D+00  0.1000000000D+01  0.1000000000D+01
 D   1 1.00       0.000000000000
      0.8000000000D+00  0.1000000000D+01
 ****
     26 0
 S   3 1.00       0.000000000000
      0.1873113696D+02  0.3349460434D-01
      0.2825394365D+01  0.2347269535D+00
      0.6401216923D+00  0.8137573261D+00
 S   1 1.00       0.000000000000
      0.1612777588D+00  0.1000000000D+01
 ****
     27 0
 S   3 1.00       0.000000000000
      0.1873113696D+02  0.3349460434D-01
      0.2825394365D+01  0.2347269535D+00
      0.6401216923D+00  0.8137573261D+00
 S   1 1.00       0.000000000000
      0.1612777588D+00  0.1000000000D+01
 ****
     28 0
 S   6 1.00       0.000000000000
      0.3047524880D+04  0.1834737132D-02
      0.4573695180D+03  0.1403732281D-01
      0.1039486850D+03  0.6884262226D-01
      0.2921015530D+02  0.2321844432D+00
      0.9286662960D+01  0.4679413484D+00
      0.3163926960D+01  0.3623119853D+00
 SP   3 1.00       0.000000000000
      0.7868272350D+01 -0.1193324198D+00  0.6899906659D-01
      0.1881288540D+01 -0.1608541517D+00  0.3164239610D+00
      0.5442492580D+00  0.1143456438D+01  0.7443082909D+00
 SP   1 1.00       0.000000000000
      0.1687144782D+00  0.1000000000D+01  0.1000000000D+01
 D   1 1.00       0.000000000000
      0.8000000000D+00  0.1000000000D+01
 ****
     29 0
 S   6 1.00       0.000000000000
      0.3047524880D+04  0.1834737132D-02
      0.4573695180D+03  0.1403732281D-01
      0.1039486850D+03  0.6884262226D-01
      0.2921015530D+02  0.2321844432D+00
      0.9286662960D+01  0.4679413484D+00
      0.3163926960D+01  0.3623119853D+00
 SP   3 1.00       0.000000000000
      0.7868272350D+01 -0.1193324198D+00  0.6899906659D-01
      0.1881288540D+01 -0.1608541517D+00  0.3164239610D+00
      0.5442492580D+00  0.1143456438D+01  0.7443082909D+00
 SP   1 1.00       0.000000000000
      0.1687144782D+00  0.1000000000D+01  0.1000000000D+01
 D   1 1.00       0.000000000000
      0.8000000000D+00  0.1000000000D+01
 ****
     30 0
 S   3 1.00       0.000000000000
      0.1873113696D+02  0.3349460434D-01
      0.2825394365D+01  0.2347269535D+00
      0.6401216923D+00  0.8137573261D+00
 S   1 1.00       0.000000000000
      0.1612777588D+00  0.1000000000D+01
 ****
     31 0
 S   6 1.00       0.000000000000
      0.3047524880D+04  0.1834737132D-02
      0.4573695180D+03  0.1403732281D-01
      0.1039486850D+03  0.6884262226D-01
      0.2921015530D+02  0.2321844432D+00
      0.9286662960D+01  0.4679413484D+00
      0.3163926960D+01  0.3623119853D+00
 SP   3 1.00       0.000000000000
      0.7868272350D+01 -0.1193324198D+00  0.6899906659D-01
      0.1881288540D+01 -0.1608541517D+00  0.3164239610D+00
      0.5442492580D+00  0.1143456438D+01  0.7443082909D+00
 SP   1 1.00       0.000000000000
      0.1687144782D+00  0.1000000000D+01  0.1000000000D+01
 D   1 1.00       0.000000000000
      0.8000000000D+00  0.1000000000D+01
 ****
     32 0
 S   3 1.00       0.000000000000
      0.1873113696D+02  0.3349460434D-01
      0.2825394365D+01  0.2347269535D+00
      0.6401216923D+00  0.8137573261D+00
 S   1 1.00       0.000000000000
      0.1612777588D+00  0.1000000000D+01
 ****
     33 0
 S   3 1.00       0.000000000000
      0.1873113696D+02  0.3349460434D-01
      0.2825394365D+01  0.2347269535D+00
      0.6401216923D+00  0.8137573261D+00
 S   1 1.00       0.000000000000
      0.1612777588D+00  0.1000000000D+01
 ****
     34 0
 S   6 1.00       0.000000000000
      0.3047524880D+04  0.1834737132D-02
      0.4573695180D+03  0.1403732281D-01
      0.1039486850D+03  0.6884262226D-01
      0.2921015530D+02  0.2321844432D+00
      0.9286662960D+01  0.4679413484D+00
      0.3163926960D+01  0.3623119853D+00
 SP   3 1.00       0.000000000000
      0.7868272350D+01 -0.1193324198D+00  0.6899906659D-01
      0.1881288540D+01 -0.1608541517D+00  0.3164239610D+00
      0.5442492580D+00  0.1143456438D+01  0.7443082909D+00
 SP   1 1.00       0.000000000000
      0.1687144782D+00  0.1000000000D+01  0.1000000000D+01
 D   1 1.00       0.000000000000
      0.8000000000D+00  0.1000000000D+01
 ****
     35 0
 S   3 1.00       0.000000000000
      0.1873113696D+02  0.3349460434D-01
      0.2825394365D+01  0.2347269535D+00
      0.6401216923D+00  0.8137573261D+00
 S   1 1.00       0.000000000000
      0.1612777588D+00  0.1000000000D+01
 ****
     36 0
 S   3 1.00       0.000000000000
      0.1873113696D+02  0.3349460434D-01
      0.2825394365D+01  0.2347269535D+00
      0.6401216923D+00  0.8137573261D+00
 S   1 1.00       0.000000000000
      0.1612777588D+00  0.1000000000D+01
 ****
     37 0
 S   6 1.00       0.000000000000
      0.3047524880D+04  0.1834737132D-02
      0.4573695180D+03  0.1403732281D-01
      0.1039486850D+03  0.6884262226D-01
      0.2921015530D+02  0.2321844432D+00
      0.9286662960D+01  0.4679413484D+00
      0.3163926960D+01  0.3623119853D+00
 SP   3 1.00       0.000000000000
      0.7868272350D+01 -0.1193324198D+00  0.6899906659D-01
      0.1881288540D+01 -0.1608541517D+00  0.3164239610D+00
      0.5442492580D+00  0.1143456438D+01  0.7443082909D+00
 SP   1 1.00       0.000000000000
      0.1687144782D+00  0.1000000000D+01  0.1000000000D+01
 D   1 1.00       0.000000000000
      0.8000000000D+00  0.1000000000D+01
 ****
     38 0
 S   3 1.00       0.000000000000
      0.1873113696D+02  0.3349460434D-01
      0.2825394365D+01  0.2347269535D+00
      0.6401216923D+00  0.8137573261D+00
 S   1 1.00       0.000000000000
      0.1612777588D+00  0.1000000000D+01
 ****
     39 0
 S   6 1.00       0.000000000000
      0.3047524880D+04  0.1834737132D-02
      0.4573695180D+03  0.1403732281D-01
      0.1039486850D+03  0.6884262226D-01
      0.2921015530D+02  0.2321844432D+00
      0.9286662960D+01  0.4679413484D+00
      0.3163926960D+01  0.3623119853D+00
 SP   3 1.00       0.000000000000
      0.7868272350D+01 -0.1193324198D+00  0.6899906659D-01
      0.1881288540D+01 -0.1608541517D+00  0.3164239610D+00
      0.5442492580D+00  0.1143456438D+01  0.7443082909D+00
 SP   1 1.00       0.000000000000
      0.1687144782D+00  0.1000000000D+01  0.1000000000D+01
 D   1 1.00       0.000000000000
      0.8000000000D+00  0.1000000000D+01
 ****
     40 0
 S   3 1.00       0.000000000000
      0.1873113696D+02  0.3349460434D-01
      0.2825394365D+01  0.2347269535D+00
      0.6401216923D+00  0.8137573261D+00
 S   1 1.00       0.000000000000
      0.1612777588D+00  0.1000000000D+01
 ****
     41 0
 S   3 1.00       0.000000000000
      0.1873113696D+02  0.3349460434D-01
      0.2825394365D+01  0.2347269535D+00
      0.6401216923D+00  0.8137573261D+00
 S   1 1.00       0.000000000000
      0.1612777588D+00  0.1000000000D+01
 ****
     42 0
 S   3 1.00       0.000000000000
      0.1873113696D+02  0.3349460434D-01
      0.2825394365D+01  0.2347269535D+00
      0.6401216923D+00  0.8137573261D+00
 S   1 1.00       0.000000000000
      0.1612777588D+00  0.1000000000D+01
 ****
     43 0
 S   6 1.00       0.000000000000
      0.3047524880D+04  0.1834737132D-02
      0.4573695180D+03  0.1403732281D-01
      0.1039486850D+03  0.6884262226D-01
      0.2921015530D+02  0.2321844432D+00
      0.9286662960D+01  0.4679413484D+00
      0.3163926960D+01  0.3623119853D+00
 SP   3 1.00       0.000000000000
      0.7868272350D+01 -0.1193324198D+00  0.6899906659D-01
      0.1881288540D+01 -0.1608541517D+00  0.3164239610D+00
      0.5442492580D+00  0.1143456438D+01  0.7443082909D+00
 SP   1 1.00       0.000000000000
      0.1687144782D+00  0.1000000000D+01  0.1000000000D+01
 D   1 1.00       0.000000000000
      0.8000000000D+00  0.1000000000D+01
 ****
     44 0
 S   3 1.00       0.000000000000
      0.1873113696D+02  0.3349460434D-01
      0.2825394365D+01  0.2347269535D+00
      0.6401216923D+00  0.8137573261D+00
 S   1 1.00       0.000000000000
      0.1612777588D+00  0.1000000000D+01
 ****
     45 0
 S   6 1.00       0.000000000000
      0.3047524880D+04  0.1834737132D-02
      0.4573695180D+03  0.1403732281D-01
      0.1039486850D+03  0.6884262226D-01
      0.2921015530D+02  0.2321844432D+00
      0.9286662960D+01  0.4679413484D+00
      0.3163926960D+01  0.3623119853D+00
 SP   3 1.00       0.000000000000
      0.7868272350D+01 -0.1193324198D+00  0.6899906659D-01
      0.1881288540D+01 -0.1608541517D+00  0.3164239610D+00
      0.5442492580D+00  0.1143456438D+01  0.7443082909D+00
 SP   1 1.00       0.000000000000
      0.1687144782D+00  0.1000000000D+01  0.1000000000D+01
 D   1 1.00       0.000000000000
      0.8000000000D+00  0.1000000000D+01
 ****
     46 0
 S   3 1.00       0.000000000000
      0.1873113696D+02  0.3349460434D-01
      0.2825394365D+01  0.2347269535D+00
      0.6401216923D+00  0.8137573261D+00
 S   1 1.00       0.000000000000
      0.1612777588D+00  0.1000000000D+01
 ****
     47 0
 S   3 1.00       0.000000000000
      0.1873113696D+02  0.3349460434D-01
      0.2825394365D+01  0.2347269535D+00
      0.6401216923D+00  0.8137573261D+00
 S   1 1.00       0.000000000000
      0.1612777588D+00  0.1000000000D+01
 ****
     48 0
 S   3 1.00       0.000000000000
      0.1873113696D+02  0.3349460434D-01
      0.2825394365D+01  0.2347269535D+00
      0.6401216923D+00  0.8137573261D+00
 S   1 1.00       0.000000000000
      0.1612777588D+00  0.1000000000D+01
 ****
     49 0
 S   6 1.00       0.000000000000
      0.3047524880D+04  0.1834737132D-02
      0.4573695180D+03  0.1403732281D-01
      0.1039486850D+03  0.6884262226D-01
      0.2921015530D+02  0.2321844432D+00
      0.9286662960D+01  0.4679413484D+00
      0.3163926960D+01  0.3623119853D+00
 SP   3 1.00       0.000000000000
      0.7868272350D+01 -0.1193324198D+00  0.6899906659D-01
      0.1881288540D+01 -0.1608541517D+00  0.3164239610D+00
      0.5442492580D+00  0.1143456438D+01  0.7443082909D+00
 SP   1 1.00       0.000000000000
      0.1687144782D+00  0.1000000000D+01  0.1000000000D+01
 D   1 1.00       0.000000000000
      0.8000000000D+00  0.1000000000D+01
 ****
     50 0
 S   3 1.00       0.000000000000
      0.1873113696D+02  0.3349460434D-01
      0.2825394365D+01  0.2347269535D+00
      0.6401216923D+00  0.8137573261D+00
 S   1 1.00       0.000000000000
      0.1612777588D+00  0.1000000000D+01
 ****
     51 0
 S   3 1.00       0.000000000000
      0.1873113696D+02  0.3349460434D-01
      0.2825394365D+01  0.2347269535D+00
      0.6401216923D+00  0.8137573261D+00
 S   1 1.00       0.000000000000
      0.1612777588D+00  0.1000000000D+01
 ****
     52 0
 S   3 1.00       0.000000000000
      0.1873113696D+02  0.3349460434D-01
      0.2825394365D+01  0.2347269535D+00
      0.6401216923D+00  0.8137573261D+00
 S   1 1.00       0.000000000000
      0.1612777588D+00  0.1000000000D+01
 ****
     53 0
 S   6 1.00       0.000000000000
      0.5484671660D+04  0.1831074430D-02
      0.8252349460D+03  0.1395017220D-01
      0.1880469580D+03  0.6844507810D-01
      0.5296450000D+02  0.2327143360D+00
      0.1689757040D+02  0.4701928980D+00
      0.5799635340D+01  0.3585208530D+00
 SP   3 1.00       0.000000000000
      0.1553961625D+02 -0.1107775495D+00  0.7087426823D-01
      0.3599933586D+01 -0.1480262627D+00  0.3397528391D+00
      0.1013761750D+01  0.1130767015D+01  0.7271585773D+00
 SP   1 1.00       0.000000000000
      0.2700058226D+00  0.1000000000D+01  0.1000000000D+01
 D   1 1.00       0.000000000000
      0.8000000000D+00  0.1000000000D+01
 ****
     54 0
 S   6 1.00       0.000000000000
      0.5484671660D+04  0.1831074430D-02
      0.8252349460D+03  0.1395017220D-01
      0.1880469580D+03  0.6844507810D-01
      0.5296450000D+02  0.2327143360D+00
      0.1689757040D+02  0.4701928980D+00
      0.5799635340D+01  0.3585208530D+00
 SP   3 1.00       0.000000000000
      0.1553961625D+02 -0.1107775495D+00  0.7087426823D-01
      0.3599933586D+01 -0.1480262627D+00  0.3397528391D+00
      0.1013761750D+01  0.1130767015D+01  0.7271585773D+00
 SP   1 1.00       0.000000000000
      0.2700058226D+00  0.1000000000D+01  0.1000000000D+01
 D   1 1.00       0.000000000000
      0.8000000000D+00  0.1000000000D+01
 ****
     55 0
 S   3 1.00       0.000000000000
      0.1873113696D+02  0.3349460434D-01
      0.2825394365D+01  0.2347269535D+00
      0.6401216923D+00  0.8137573261D+00
 S   1 1.00       0.000000000000
      0.1612777588D+00  0.1000000000D+01
 ****
     56 0
 S   6 1.00       0.000000000000
      0.5484671660D+04  0.1831074430D-02
      0.8252349460D+03  0.1395017220D-01
      0.1880469580D+03  0.6844507810D-01
      0.5296450000D+02  0.2327143360D+00
      0.1689757040D+02  0.4701928980D+00
      0.5799635340D+01  0.3585208530D+00
 SP   3 1.00       0.000000000000
      0.1553961625D+02 -0.1107775495D+00  0.7087426823D-01
      0.3599933586D+01 -0.1480262627D+00  0.3397528391D+00
      0.1013761750D+01  0.1130767015D+01  0.7271585773D+00
 SP   1 1.00       0.000000000000
      0.2700058226D+00  0.1000000000D+01  0.1000000000D+01
 D   1 1.00       0.000000000000
      0.8000000000D+00  0.1000000000D+01
 ****
     57 0
 S   3 1.00       0.000000000000
      0.1873113696D+02  0.3349460434D-01
      0.2825394365D+01  0.2347269535D+00
      0.6401216923D+00  0.8137573261D+00
 S   1 1.00       0.000000000000
      0.1612777588D+00  0.1000000000D+01
 ****
     58 0
 S   6 1.00       0.000000000000
      0.3047524880D+04  0.1834737132D-02
      0.4573695180D+03  0.1403732281D-01
      0.1039486850D+03  0.6884262226D-01
      0.2921015530D+02  0.2321844432D+00
      0.9286662960D+01  0.4679413484D+00
      0.3163926960D+01  0.3623119853D+00
 SP   3 1.00       0.000000000000
      0.7868272350D+01 -0.1193324198D+00  0.6899906659D-01
      0.1881288540D+01 -0.1608541517D+00  0.3164239610D+00
      0.5442492580D+00  0.1143456438D+01  0.7443082909D+00
 SP   1 1.00       0.000000000000
      0.1687144782D+00  0.1000000000D+01  0.1000000000D+01
 D   1 1.00       0.000000000000
      0.8000000000D+00  0.1000000000D+01
 ****
     59 0
 S   3 1.00       0.000000000000
      0.1873113696D+02  0.3349460434D-01
      0.2825394365D+01  0.2347269535D+00
      0.6401216923D+00  0.8137573261D+00
 S   1 1.00       0.000000000000
      0.1612777588D+00  0.1000000000D+01
 ****
     60 0
 S   3 1.00       0.000000000000
      0.1873113696D+02  0.3349460434D-01
      0.2825394365D+01  0.2347269535D+00
      0.6401216923D+00  0.8137573261D+00
 S   1 1.00       0.000000000000
      0.1612777588D+00  0.1000000000D+01
 ****
     61 0
 S   6 1.00       0.000000000000
      0.3047524880D+04  0.1834737132D-02
      0.4573695180D+03  0.1403732281D-01
      0.1039486850D+03  0.6884262226D-01
      0.2921015530D+02  0.2321844432D+00
      0.9286662960D+01  0.4679413484D+00
      0.3163926960D+01  0.3623119853D+00
 SP   3 1.00       0.000000000000
      0.7868272350D+01 -0.1193324198D+00  0.6899906659D-01
      0.1881288540D+01 -0.1608541517D+00  0.3164239610D+00
      0.5442492580D+00  0.1143456438D+01  0.7443082909D+00
 SP   1 1.00       0.000000000000
      0.1687144782D+00  0.1000000000D+01  0.1000000000D+01
 D   1 1.00       0.000000000000
      0.8000000000D+00  0.1000000000D+01
 ****
     62 0
 S   3 1.00       0.000000000000
      0.1873113696D+02  0.3349460434D-01
      0.2825394365D+01  0.2347269535D+00
      0.6401216923D+00  0.8137573261D+00
 S   1 1.00       0.000000000000
      0.1612777588D+00  0.1000000000D+01
 ****
     63 0
 S   3 1.00       0.000000000000
      0.1873113696D+02  0.3349460434D-01
      0.2825394365D+01  0.2347269535D+00
      0.6401216923D+00  0.8137573261D+00
 S   1 1.00       0.000000000000
      0.1612777588D+00  0.1000000000D+01
 ****
     64 0
 S   6 1.00       0.000000000000
      0.3047524880D+04  0.1834737132D-02
      0.4573695180D+03  0.1403732281D-01
      0.1039486850D+03  0.6884262226D-01
      0.2921015530D+02  0.2321844432D+00
      0.9286662960D+01  0.4679413484D+00
      0.3163926960D+01  0.3623119853D+00
 SP   3 1.00       0.000000000000
      0.7868272350D+01 -0.1193324198D+00  0.6899906659D-01
      0.1881288540D+01 -0.1608541517D+00  0.3164239610D+00
      0.5442492580D+00  0.1143456438D+01  0.7443082909D+00
 SP   1 1.00       0.000000000000
      0.1687144782D+00  0.1000000000D+01  0.1000000000D+01
 D   1 1.00       0.000000000000
      0.8000000000D+00  0.1000000000D+01
 ****
     65 0
 S   3 1.00       0.000000000000
      0.1873113696D+02  0.3349460434D-01
      0.2825394365D+01  0.2347269535D+00
      0.6401216923D+00  0.8137573261D+00
 S   1 1.00       0.000000000000
      0.1612777588D+00  0.1000000000D+01
 ****
     66 0
 S   3 1.00       0.000000000000
      0.1873113696D+02  0.3349460434D-01
      0.2825394365D+01  0.2347269535D+00
      0.6401216923D+00  0.8137573261D+00
 S   1 1.00       0.000000000000
      0.1612777588D+00  0.1000000000D+01
 ****
     67 0
 S   6 1.00       0.000000000000
      0.3047524880D+04  0.1834737132D-02
      0.4573695180D+03  0.1403732281D-01
      0.1039486850D+03  0.6884262226D-01
      0.2921015530D+02  0.2321844432D+00
      0.9286662960D+01  0.4679413484D+00
      0.3163926960D+01  0.3623119853D+00
 SP   3 1.00       0.000000000000
      0.7868272350D+01 -0.1193324198D+00  0.6899906659D-01
      0.1881288540D+01 -0.1608541517D+00  0.3164239610D+00
      0.5442492580D+00  0.1143456438D+01  0.7443082909D+00
 SP   1 1.00       0.000000000000
      0.1687144782D+00  0.1000000000D+01  0.1000000000D+01
 D   1 1.00       0.000000000000
      0.8000000000D+00  0.1000000000D+01
 ****
     68 0
 S   3 1.00       0.000000000000
      0.1873113696D+02  0.3349460434D-01
      0.2825394365D+01  0.2347269535D+00
      0.6401216923D+00  0.8137573261D+00
 S   1 1.00       0.000000000000
      0.1612777588D+00  0.1000000000D+01
 ****
     69 0
 S   6 1.00       0.000000000000
      0.3047524880D+04  0.1834737132D-02
      0.4573695180D+03  0.1403732281D-01
      0.1039486850D+03  0.6884262226D-01
      0.2921015530D+02  0.2321844432D+00
      0.9286662960D+01  0.4679413484D+00
      0.3163926960D+01  0.3623119853D+00
 SP   3 1.00       0.000000000000
      0.7868272350D+01 -0.1193324198D+00  0.6899906659D-01
      0.1881288540D+01 -0.1608541517D+00  0.3164239610D+00
      0.5442492580D+00  0.1143456438D+01  0.7443082909D+00
 SP   1 1.00       0.000000000000
      0.1687144782D+00  0.1000000000D+01  0.1000000000D+01
 D   1 1.00       0.000000000000
      0.8000000000D+00  0.1000000000D+01
 ****
     70 0
 S   3 1.00       0.000000000000
      0.1873113696D+02  0.3349460434D-01
      0.2825394365D+01  0.2347269535D+00
      0.6401216923D+00  0.8137573261D+00
 S   1 1.00       0.000000000000
      0.1612777588D+00  0.1000000000D+01
 ****
     71 0
 S   3 1.00       0.000000000000
      0.1873113696D+02  0.3349460434D-01
      0.2825394365D+01  0.2347269535D+00
      0.6401216923D+00  0.8137573261D+00
 S   1 1.00       0.000000000000
      0.1612777588D+00  0.1000000000D+01
 ****
     72 0
 S   3 1.00       0.000000000000
      0.1873113696D+02  0.3349460434D-01
      0.2825394365D+01  0.2347269535D+00
      0.6401216923D+00  0.8137573261D+00
 S   1 1.00       0.000000000000
      0.1612777588D+00  0.1000000000D+01
 ****
     73 0
 S   6 1.00       0.000000000000
      0.3047524880D+04  0.1834737132D-02
      0.4573695180D+03  0.1403732281D-01
      0.1039486850D+03  0.6884262226D-01
      0.2921015530D+02  0.2321844432D+00
      0.9286662960D+01  0.4679413484D+00
      0.3163926960D+01  0.3623119853D+00
 SP   3 1.00       0.000000000000
      0.7868272350D+01 -0.1193324198D+00  0.6899906659D-01
      0.1881288540D+01 -0.1608541517D+00  0.3164239610D+00
      0.5442492580D+00  0.1143456438D+01  0.7443082909D+00
 SP   1 1.00       0.000000000000
      0.1687144782D+00  0.1000000000D+01  0.1000000000D+01
 D   1 1.00       0.000000000000
      0.8000000000D+00  0.1000000000D+01
 ****
     74 0
 S   3 1.00       0.000000000000
      0.1873113696D+02  0.3349460434D-01
      0.2825394365D+01  0.2347269535D+00
      0.6401216923D+00  0.8137573261D+00
 S   1 1.00       0.000000000000
      0.1612777588D+00  0.1000000000D+01
 ****
     75 0
 S   3 1.00       0.000000000000
      0.1873113696D+02  0.3349460434D-01
      0.2825394365D+01  0.2347269535D+00
      0.6401216923D+00  0.8137573261D+00
 S   1 1.00       0.000000000000
      0.1612777588D+00  0.1000000000D+01
 ****
     76 0
 S   3 1.00       0.000000000000
      0.1873113696D+02  0.3349460434D-01
      0.2825394365D+01  0.2347269535D+00
      0.6401216923D+00  0.8137573261D+00
 S   1 1.00       0.000000000000
      0.1612777588D+00  0.1000000000D+01
 ****

 AO basis set (Overlap normalization):
 Atom C1       Shell     1 S   6     bf    1 -     1          1.884506709307         -1.675569233910         -3.204348226784
      0.3047524880D+04  0.1834737132D-02
      0.4573695180D+03  0.1403732281D-01
      0.1039486850D+03  0.6884262226D-01
      0.2921015530D+02  0.2321844432D+00
      0.9286662960D+01  0.4679413484D+00
      0.3163926960D+01  0.3623119853D+00
 Atom C1       Shell     2 SP   3    bf    2 -     5          1.884506709307         -1.675569233910         -3.204348226784
      0.7868272350D+01 -0.1193324198D+00  0.6899906659D-01
      0.1881288540D+01 -0.1608541517D+00  0.3164239610D+00
      0.5442492580D+00  0.1143456438D+01  0.7443082909D+00
 Atom C1       Shell     3 SP   1    bf    6 -     9          1.884506709307         -1.675569233910         -3.204348226784
      0.1687144782D+00  0.1000000000D+01  0.1000000000D+01
 Atom C1       Shell     4 D   1     bf   10 -    15          1.884506709307         -1.675569233910         -3.204348226784
      0.8000000000D+00  0.1000000000D+01
 Atom H2       Shell     5 S   3     bf   16 -    16          2.174983788638          0.156418603554         -4.129513052580
      0.1873113696D+02  0.3349460434D-01
      0.2825394365D+01  0.2347269535D+00
      0.6401216923D+00  0.8137573261D+00
 Atom H2       Shell     6 S   1     bf   17 -    17          2.174983788638          0.156418603554         -4.129513052580
      0.1612777588D+00  0.1000000000D+01
 Atom C3       Shell     7 S   6     bf   18 -    18          4.176963263194         -3.374178046628         -3.730058925363
      0.3047524880D+04  0.1834737132D-02
      0.4573695180D+03  0.1403732281D-01
      0.1039486850D+03  0.6884262226D-01
      0.2921015530D+02  0.2321844432D+00
      0.9286662960D+01  0.4679413484D+00
      0.3163926960D+01  0.3623119853D+00
 Atom C3       Shell     8 SP   3    bf   19 -    22          4.176963263194         -3.374178046628         -3.730058925363
      0.7868272350D+01 -0.1193324198D+00  0.6899906659D-01
      0.1881288540D+01 -0.1608541517D+00  0.3164239610D+00
      0.5442492580D+00  0.1143456438D+01  0.7443082909D+00
 Atom C3       Shell     9 SP   1    bf   23 -    26          4.176963263194         -3.374178046628         -3.730058925363
      0.1687144782D+00  0.1000000000D+01  0.1000000000D+01
 Atom C3       Shell    10 D   1     bf   27 -    32          4.176963263194         -3.374178046628         -3.730058925363
      0.8000000000D+00  0.1000000000D+01
 Atom H4       Shell    11 S   3     bf   33 -    33          4.440418449353         -3.583949118015         -5.770915489987
      0.1873113696D+02  0.3349460434D-01
      0.2825394365D+01  0.2347269535D+00
      0.6401216923D+00  0.8137573261D+00
 Atom H4       Shell    12 S   1     bf   34 -    34          4.440418449353         -3.583949118015         -5.770915489987
      0.1612777588D+00  0.1000000000D+01
 Atom H5       Shell    13 S   3     bf   35 -    35          3.737043183075         -5.269061582280         -2.985740361362
      0.1873113696D+02  0.3349460434D-01
      0.2825394365D+01  0.2347269535D+00
      0.6401216923D+00  0.8137573261D+00
 Atom H5       Shell    14 S   1     bf   36 -    36          3.737043183075         -5.269061582280         -2.985740361362
      0.1612777588D+00  0.1000000000D+01
 Atom C6       Shell    15 S   6     bf   37 -    37          6.583978945887         -2.406389616425         -2.511047657439
      0.3047524880D+04  0.1834737132D-02
      0.4573695180D+03  0.1403732281D-01
      0.1039486850D+03  0.6884262226D-01
      0.2921015530D+02  0.2321844432D+00
      0.9286662960D+01  0.4679413484D+00
      0.3163926960D+01  0.3623119853D+00
 Atom C6       Shell    16 SP   3    bf   38 -    41          6.583978945887         -2.406389616425         -2.511047657439
      0.7868272350D+01 -0.1193324198D+00  0.6899906659D-01
      0.1881288540D+01 -0.1608541517D+00  0.3164239610D+00
      0.5442492580D+00  0.1143456438D+01  0.7443082909D+00
 Atom C6       Shell    17 SP   1    bf   42 -    45          6.583978945887         -2.406389616425         -2.511047657439
      0.1687144782D+00  0.1000000000D+01  0.1000000000D+01
 Atom C6       Shell    18 D   1     bf   46 -    51          6.583978945887         -2.406389616425         -2.511047657439
      0.8000000000D+00  0.1000000000D+01
 Atom C7       Shell    19 S   6     bf   52 -    52          6.472423820229         -1.723774220040          0.301764394626
      0.3047524880D+04  0.1834737132D-02
      0.4573695180D+03  0.1403732281D-01
      0.1039486850D+03  0.6884262226D-01
      0.2921015530D+02  0.2321844432D+00
      0.9286662960D+01  0.4679413484D+00
      0.3163926960D+01  0.3623119853D+00
 Atom C7       Shell    20 SP   3    bf   53 -    56          6.472423820229         -1.723774220040          0.301764394626
      0.7868272350D+01 -0.1193324198D+00  0.6899906659D-01
      0.1881288540D+01 -0.1608541517D+00  0.3164239610D+00
      0.5442492580D+00  0.1143456438D+01  0.7443082909D+00
 Atom C7       Shell    21 SP   1    bf   57 -    60          6.472423820229         -1.723774220040          0.301764394626
      0.1687144782D+00  0.1000000000D+01  0.1000000000D+01
 Atom C7       Shell    22 D   1     bf   61 -    66          6.472423820229         -1.723774220040          0.301764394626
      0.8000000000D+00  0.1000000000D+01
 Atom C8       Shell    23 S   6     bf   67 -    67          4.021761000763         -0.155702132788          0.786822737717
      0.3047524880D+04  0.1834737132D-02
      0.4573695180D+03  0.1403732281D-01
      0.1039486850D+03  0.6884262226D-01
      0.2921015530D+02  0.2321844432D+00
      0.9286662960D+01  0.4679413484D+00
      0.3163926960D+01  0.3623119853D+00
 Atom C8       Shell    24 SP   3    bf   68 -    71          4.021761000763         -0.155702132788          0.786822737717
      0.7868272350D+01 -0.1193324198D+00  0.6899906659D-01
      0.1881288540D+01 -0.1608541517D+00  0.3164239610D+00
      0.5442492580D+00  0.1143456438D+01  0.7443082909D+00
 Atom C8       Shell    25 SP   1    bf   72 -    75          4.021761000763         -0.155702132788          0.786822737717
      0.1687144782D+00  0.1000000000D+01  0.1000000000D+01
 Atom C8       Shell    26 D   1     bf   76 -    81          4.021761000763         -0.155702132788          0.786822737717
      0.8000000000D+00  0.1000000000D+01
 Atom H9       Shell    27 S   3     bf   82 -    82          4.299562307421          1.745902969748          0.000000000000
      0.1873113696D+02  0.3349460434D-01
      0.2825394365D+01  0.2347269535D+00
      0.6401216923D+00  0.8137573261D+00
 Atom H9       Shell    28 S   1     bf   83 -    83          4.299562307421          1.745902969748          0.000000000000
      0.1612777588D+00  0.1000000000D+01
 Atom H10      Shell    29 S   3     bf   84 -    84          3.754148020270          0.087337094738          2.823998418189
      0.1873113696D+02  0.3349460434D-01
      0.2825394365D+01  0.2347269535D+00
      0.6401216923D+00  0.8137573261D+00
 Atom H10      Shell    30 S   1     bf   85 -    85          3.754148020270          0.087337094738          2.823998418189
      0.1612777588D+00  0.1000000000D+01
 Atom C11      Shell    31 S   6     bf   86 -    86          1.597616878196         -1.267513942611         -0.360622806316
      0.3047524880D+04  0.1834737132D-02
      0.4573695180D+03  0.1403732281D-01
      0.1039486850D+03  0.6884262226D-01
      0.2921015530D+02  0.2321844432D+00
      0.9286662960D+01  0.4679413484D+00
      0.3163926960D+01  0.3623119853D+00
 Atom C11      Shell    32 SP   3    bf   87 -    90          1.597616878196         -1.267513942611         -0.360622806316
      0.7868272350D+01 -0.1193324198D+00  0.6899906659D-01
      0.1881288540D+01 -0.1608541517D+00  0.3164239610D+00
      0.5442492580D+00  0.1143456438D+01  0.7443082909D+00
 Atom C11      Shell    33 SP   1    bf   91 -    94          1.597616878196         -1.267513942611         -0.360622806316
      0.1687144782D+00  0.1000000000D+01  0.1000000000D+01
 Atom C11      Shell    34 D   1     bf   95 -   100          1.597616878196         -1.267513942611         -0.360622806316
      0.8000000000D+00  0.1000000000D+01
 Atom H12      Shell    35 S   3     bf  101 -   101          1.132275389555         -3.082757880572          0.539845150854
      0.1873113696D+02  0.3349460434D-01
      0.2825394365D+01  0.2347269535D+00
      0.6401216923D+00  0.8137573261D+00
 Atom H12      Shell    36 S   1     bf  102 -   102          1.132275389555         -3.082757880572          0.539845150854
      0.1612777588D+00  0.1000000000D+01
 Atom H13      Shell    37 S   3     bf  103 -   103          0.000000000000          0.000000000000          0.000000000000
      0.1873113696D+02  0.3349460434D-01
      0.2825394365D+01  0.2347269535D+00
      0.6401216923D+00  0.8137573261D+00
 Atom H13      Shell    38 S   1     bf  104 -   104          0.000000000000          0.000000000000          0.000000000000
      0.1612777588D+00  0.1000000000D+01
 Atom C14      Shell    39 S   6     bf  105 -   105          8.705484221958         -2.192498507431         -3.876248498051
      0.3047524880D+04  0.1834737132D-02
      0.4573695180D+03  0.1403732281D-01
      0.1039486850D+03  0.6884262226D-01
      0.2921015530D+02  0.2321844432D+00
      0.9286662960D+01  0.4679413484D+00
      0.3163926960D+01  0.3623119853D+00
 Atom C14      Shell    40 SP   3    bf  106 -   109          8.705484221958         -2.192498507431         -3.876248498051
      0.7868272350D+01 -0.1193324198D+00  0.6899906659D-01
      0.1881288540D+01 -0.1608541517D+00  0.3164239610D+00
      0.5442492580D+00  0.1143456438D+01  0.7443082909D+00
 Atom C14      Shell    41 SP   1    bf  110 -   113          8.705484221958         -2.192498507431         -3.876248498051
      0.1687144782D+00  0.1000000000D+01  0.1000000000D+01
 Atom C14      Shell    42 D   1     bf  114 -   119          8.705484221958         -2.192498507431         -3.876248498051
      0.8000000000D+00  0.1000000000D+01
 Atom H15      Shell    43 S   3     bf  120 -   120          8.671797340304         -2.652999972808         -5.884689097434
      0.1873113696D+02  0.3349460434D-01
      0.2825394365D+01  0.2347269535D+00
      0.6401216923D+00  0.8137573261D+00
 Atom H15      Shell    44 S   1     bf  121 -   121          8.671797340304         -2.652999972808         -5.884689097434
      0.1612777588D+00  0.1000000000D+01
 Atom C16      Shell    45 S   6     bf  122 -   122         11.231139216740         -1.375693337095         -2.880126704740
      0.3047524880D+04  0.1834737132D-02
      0.4573695180D+03  0.1403732281D-01
      0.1039486850D+03  0.6884262226D-01
      0.2921015530D+02  0.2321844432D+00
      0.9286662960D+01  0.4679413484D+00
      0.3163926960D+01  0.3623119853D+00
 Atom C16      Shell    46 SP   3    bf  123 -   126         11.231139216740         -1.375693337095         -2.880126704740
      0.7868272350D+01 -0.1193324198D+00  0.6899906659D-01
      0.1881288540D+01 -0.1608541517D+00  0.3164239610D+00
      0.5442492580D+00  0.1143456438D+01  0.7443082909D+00
 Atom C16      Shell    47 SP   1    bf  127 -   130         11.231139216740         -1.375693337095         -2.880126704740
      0.1687144782D+00  0.1000000000D+01  0.1000000000D+01
 Atom C16      Shell    48 D   1     bf  131 -   136         11.231139216740         -1.375693337095         -2.880126704740
      0.8000000000D+00  0.1000000000D+01
 Atom H17      Shell    49 S   3     bf  137 -   137         11.772643792803          0.429636984189         -3.766825361416
      0.1873113696D+02  0.3349460434D-01
      0.2825394365D+01  0.2347269535D+00
      0.6401216923D+00  0.8137573261D+00
 Atom H17      Shell    50 S   1     bf  138 -   138         11.772643792803          0.429636984189         -3.766825361416
      0.1612777588D+00  0.1000000000D+01
 Atom C18      Shell    51 S   6     bf  139 -   139         11.359910201003         -1.126880089165          0.009461556391
      0.3047524880D+04  0.1834737132D-02
      0.4573695180D+03  0.1403732281D-01
      0.1039486850D+03  0.6884262226D-01
      0.2921015530D+02  0.2321844432D+00
      0.9286662960D+01  0.4679413484D+00
      0.3163926960D+01  0.3623119853D+00
 Atom C18      Shell    52 SP   3    bf  140 -   143         11.359910201003         -1.126880089165          0.009461556391
      0.7868272350D+01 -0.1193324198D+00  0.6899906659D-01
      0.1881288540D+01 -0.1608541517D+00  0.3164239610D+00
      0.5442492580D+00  0.1143456438D+01  0.7443082909D+00
 Atom C18      Shell    53 SP   1    bf  144 -   147         11.359910201003         -1.126880089165          0.009461556391
      0.1687144782D+00  0.1000000000D+01  0.1000000000D+01
 Atom C18      Shell    54 D   1     bf  148 -   153         11.359910201003         -1.126880089165          0.009461556391
      0.8000000000D+00  0.1000000000D+01
 Atom H19      Shell    55 S   3     bf  154 -   154         11.655320485994         -3.034668337812          0.755264783729
      0.1873113696D+02  0.3349460434D-01
      0.2825394365D+01  0.2347269535D+00
      0.6401216923D+00  0.8137573261D+00
 Atom H19      Shell    56 S   1     bf  155 -   155         11.655320485994         -3.034668337812          0.755264783729
      0.1612777588D+00  0.1000000000D+01
 Atom C20      Shell    57 S   6     bf  156 -   156          8.816721816935         -0.058115503655          1.023659260465
      0.3047524880D+04  0.1834737132D-02
      0.4573695180D+03  0.1403732281D-01
      0.1039486850D+03  0.6884262226D-01
      0.2921015530D+02  0.2321844432D+00
      0.9286662960D+01  0.4679413484D+00
      0.3163926960D+01  0.3623119853D+00
 Atom C20      Shell    58 SP   3    bf  157 -   160          8.816721816935         -0.058115503655          1.023659260465
      0.7868272350D+01 -0.1193324198D+00  0.6899906659D-01
      0.1881288540D+01 -0.1608541517D+00  0.3164239610D+00
      0.5442492580D+00  0.1143456438D+01  0.7443082909D+00
 Atom C20      Shell    59 SP   1    bf  161 -   164          8.816721816935         -0.058115503655          1.023659260465
      0.1687144782D+00  0.1000000000D+01  0.1000000000D+01
 Atom C20      Shell    60 D   1     bf  165 -   170          8.816721816935         -0.058115503655          1.023659260465
      0.8000000000D+00  0.1000000000D+01
 Atom H21      Shell    61 S   3     bf  171 -   171          8.529313350487          1.758205842763          0.043162667683
      0.1873113696D+02  0.3349460434D-01
      0.2825394365D+01  0.2347269535D+00
      0.6401216923D+00  0.8137573261D+00
 Atom H21      Shell    62 S   1     bf  172 -   172          8.529313350487          1.758205842763          0.043162667683
      0.1612777588D+00  0.1000000000D+01
 Atom C22      Shell    63 S   6     bf  173 -   173          8.965465619053          0.550700266885          3.878680178742
      0.3047524880D+04  0.1834737132D-02
      0.4573695180D+03  0.1403732281D-01
      0.1039486850D+03  0.6884262226D-01
      0.2921015530D+02  0.2321844432D+00
      0.9286662960D+01  0.4679413484D+00
      0.3163926960D+01  0.3623119853D+00
 Atom C22      Shell    64 SP   3    bf  174 -   177          8.965465619053          0.550700266885          3.878680178742
      0.7868272350D+01 -0.1193324198D+00  0.6899906659D-01
      0.1881288540D+01 -0.1608541517D+00  0.3164239610D+00
      0.5442492580D+00  0.1143456438D+01  0.7443082909D+00
 Atom C22      Shell    65 SP   1    bf  178 -   181          8.965465619053          0.550700266885          3.878680178742
      0.1687144782D+00  0.1000000000D+01  0.1000000000D+01
 Atom C22      Shell    66 D   1     bf  182 -   187          8.965465619053          0.550700266885          3.878680178742
      0.8000000000D+00  0.1000000000D+01
 Atom H23      Shell    67 S   3     bf  188 -   188          9.041712496932         -1.207433482826          4.968161586182
      0.1873113696D+02  0.3349460434D-01
      0.2825394365D+01  0.2347269535D+00
      0.6401216923D+00  0.8137573261D+00
 Atom H23      Shell    68 S   1     bf  189 -   189          9.041712496932         -1.207433482826          4.968161586182
      0.1612777588D+00  0.1000000000D+01
 Atom H24      Shell    69 S   3     bf  190 -   190          7.233551195826          1.517077222844          4.471919106844
      0.1873113696D+02  0.3349460434D-01
      0.2825394365D+01  0.2347269535D+00
      0.6401216923D+00  0.8137573261D+00
 Atom H24      Shell    70 S   1     bf  191 -   191          7.233551195826          1.517077222844          4.471919106844
      0.1612777588D+00  0.1000000000D+01
 Atom C25      Shell    71 S   6     bf  192 -   192         11.242655340074          2.209874047894          4.614630014975
      0.3047524880D+04  0.1834737132D-02
      0.4573695180D+03  0.1403732281D-01
      0.1039486850D+03  0.6884262226D-01
      0.2921015530D+02  0.2321844432D+00
      0.9286662960D+01  0.4679413484D+00
      0.3163926960D+01  0.3623119853D+00
 Atom C25      Shell    72 SP   3    bf  193 -   196         11.242655340074          2.209874047894          4.614630014975
      0.7868272350D+01 -0.1193324198D+00  0.6899906659D-01
      0.1881288540D+01 -0.1608541517D+00  0.3164239610D+00
      0.5442492580D+00  0.1143456438D+01  0.7443082909D+00
 Atom C25      Shell    73 SP   1    bf  197 -   200         11.242655340074          2.209874047894          4.614630014975
      0.1687144782D+00  0.1000000000D+01  0.1000000000D+01
 Atom C25      Shell    74 D   1     bf  201 -   206         11.242655340074          2.209874047894          4.614630014975
      0.8000000000D+00  0.1000000000D+01
 Atom H26      Shell    75 S   3     bf  207 -   207         11.028939049644          4.087002416001          3.751362242696
      0.1873113696D+02  0.3349460434D-01
      0.2825394365D+01  0.2347269535D+00
      0.6401216923D+00  0.8137573261D+00
 Atom H26      Shell    76 S   1     bf  208 -   208         11.028939049644          4.087002416001          3.751362242696
      0.1612777588D+00  0.1000000000D+01
 Atom H27      Shell    77 S   3     bf  209 -   209         11.221791705321          2.494010377954          6.666800048702
      0.1873113696D+02  0.3349460434D-01
      0.2825394365D+01  0.2347269535D+00
      0.6401216923D+00  0.8137573261D+00
 Atom H27      Shell    78 S   1     bf  210 -   210         11.221791705321          2.494010377954          6.666800048702
      0.1612777588D+00  0.1000000000D+01
 Atom C28      Shell    79 S   6     bf  211 -   211         13.758532192646          1.042991555647          3.734071267478
      0.3047524880D+04  0.1834737132D-02
      0.4573695180D+03  0.1403732281D-01
      0.1039486850D+03  0.6884262226D-01
      0.2921015530D+02  0.2321844432D+00
      0.9286662960D+01  0.4679413484D+00
      0.3163926960D+01  0.3623119853D+00
 Atom C28      Shell    80 SP   3    bf  212 -   215         13.758532192646          1.042991555647          3.734071267478
      0.7868272350D+01 -0.1193324198D+00  0.6899906659D-01
      0.1881288540D+01 -0.1608541517D+00  0.3164239610D+00
      0.5442492580D+00  0.1143456438D+01  0.7443082909D+00
 Atom C28      Shell    81 SP   1    bf  216 -   219         13.758532192646          1.042991555647          3.734071267478
      0.1687144782D+00  0.1000000000D+01  0.1000000000D+01
 Atom C28      Shell    82 D   1     bf  220 -   225         13.758532192646          1.042991555647          3.734071267478
      0.8000000000D+00  0.1000000000D+01
 Atom C29      Shell    83 S   6     bf  226 -   226         13.541840207166          0.612262914465          0.828634137831
      0.3047524880D+04  0.1834737132D-02
      0.4573695180D+03  0.1403732281D-01
      0.1039486850D+03  0.6884262226D-01
      0.2921015530D+02  0.2321844432D+00
      0.9286662960D+01  0.4679413484D+00
      0.3163926960D+01  0.3623119853D+00
 Atom C29      Shell    84 SP   3    bf  227 -   230         13.541840207166          0.612262914465          0.828634137831
      0.7868272350D+01 -0.1193324198D+00  0.6899906659D-01
      0.1881288540D+01 -0.1608541517D+00  0.3164239610D+00
      0.5442492580D+00  0.1143456438D+01  0.7443082909D+00
 Atom C29      Shell    85 SP   1    bf  231 -   234         13.541840207166          0.612262914465          0.828634137831
      0.1687144782D+00  0.1000000000D+01  0.1000000000D+01
 Atom C29      Shell    86 D   1     bf  235 -   240         13.541840207166          0.612262914465          0.828634137831
      0.8000000000D+00  0.1000000000D+01
 Atom H30      Shell    87 S   3     bf  241 -   241         13.086224647603          2.486662763701          0.034135030207
      0.1873113696D+02  0.3349460434D-01
      0.2825394365D+01  0.2347269535D+00
      0.6401216923D+00  0.8137573261D+00
 Atom H30      Shell    88 S   1     bf  242 -   242         13.086224647603          2.486662763701          0.034135030207
      0.1612777588D+00  0.1000000000D+01
 Atom C31      Shell    89 S   6     bf  243 -   243         16.265593170451          0.000000000000          0.000000000000
      0.3047524880D+04  0.1834737132D-02
      0.4573695180D+03  0.1403732281D-01
      0.1039486850D+03  0.6884262226D-01
      0.2921015530D+02  0.2321844432D+00
      0.9286662960D+01  0.4679413484D+00
      0.3163926960D+01  0.3623119853D+00
 Atom C31      Shell    90 SP   3    bf  244 -   247         16.265593170451          0.000000000000          0.000000000000
      0.7868272350D+01 -0.1193324198D+00  0.6899906659D-01
      0.1881288540D+01 -0.1608541517D+00  0.3164239610D+00
      0.5442492580D+00  0.1143456438D+01  0.7443082909D+00
 Atom C31      Shell    91 SP   1    bf  248 -   251         16.265593170451          0.000000000000          0.000000000000
      0.1687144782D+00  0.1000000000D+01  0.1000000000D+01
 Atom C31      Shell    92 D   1     bf  252 -   257         16.265593170451          0.000000000000          0.000000000000
      0.8000000000D+00  0.1000000000D+01
 Atom H32      Shell    93 S   3     bf  258 -   258         16.592375895015          0.417978375504         -1.996187369472
      0.1873113696D+02  0.3349460434D-01
      0.2825394365D+01  0.2347269535D+00
      0.6401216923D+00  0.8137573261D+00
 Atom H32      Shell    94 S   1     bf  259 -   259         16.592375895015          0.417978375504         -1.996187369472
      0.1612777588D+00  0.1000000000D+01
 Atom H33      Shell    95 S   3     bf  260 -   260         16.663659293823         -2.016003018805          0.239032441206
      0.1873113696D+02  0.3349460434D-01
      0.2825394365D+01  0.2347269535D+00
      0.6401216923D+00  0.8137573261D+00
 Atom H33      Shell    96 S   1     bf  261 -   261         16.663659293823         -2.016003018805          0.239032441206
      0.1612777588D+00  0.1000000000D+01
 Atom C34      Shell    97 S   6     bf  262 -   262         17.927667397615          1.640149378906          1.783675684966
      0.3047524880D+04  0.1834737132D-02
      0.4573695180D+03  0.1403732281D-01
      0.1039486850D+03  0.6884262226D-01
      0.2921015530D+02  0.2321844432D+00
      0.9286662960D+01  0.4679413484D+00
      0.3163926960D+01  0.3623119853D+00
 Atom C34      Shell    98 SP   3    bf  263 -   266         17.927667397615          1.640149378906          1.783675684966
      0.7868272350D+01 -0.1193324198D+00  0.6899906659D-01
      0.1881288540D+01 -0.1608541517D+00  0.3164239610D+00
      0.5442492580D+00  0.1143456438D+01  0.7443082909D+00
 Atom C34      Shell    99 SP   1    bf  267 -   270         17.927667397615          1.640149378906          1.783675684966
      0.1687144782D+00  0.1000000000D+01  0.1000000000D+01
 Atom C34      Shell   100 D   1     bf  271 -   276         17.927667397615          1.640149378906          1.783675684966
      0.8000000000D+00  0.1000000000D+01
 Atom H35      Shell   101 S   3     bf  277 -   277         19.374518787984          0.482217404412          2.703401123060
      0.1873113696D+02  0.3349460434D-01
      0.2825394365D+01  0.2347269535D+00
      0.6401216923D+00  0.8137573261D+00
 Atom H35      Shell   102 S   1     bf  278 -   278         19.374518787984          0.482217404412          2.703401123060
      0.1612777588D+00  0.1000000000D+01
 Atom H36      Shell   103 S   3     bf  279 -   279         18.944010621151          3.119268277631          0.750707444598
      0.1873113696D+02  0.3349460434D-01
      0.2825394365D+01  0.2347269535D+00
      0.6401216923D+00  0.8137573261D+00
 Atom H36      Shell   104 S   1     bf  280 -   280         18.944010621151          3.119268277631          0.750707444598
      0.1612777588D+00  0.1000000000D+01
 Atom C37      Shell   105 S   6     bf  281 -   281         16.105700910115          2.851079062948          3.762859525461
      0.3047524880D+04  0.1834737132D-02
      0.4573695180D+03  0.1403732281D-01
      0.1039486850D+03  0.6884262226D-01
      0.2921015530D+02  0.2321844432D+00
      0.9286662960D+01  0.4679413484D+00
      0.3163926960D+01  0.3623119853D+00
 Atom C37      Shell   106 SP   3    bf  282 -   285         16.105700910115          2.851079062948          3.762859525461
      0.7868272350D+01 -0.1193324198D+00  0.6899906659D-01
      0.1881288540D+01 -0.1608541517D+00  0.3164239610D+00
      0.5442492580D+00  0.1143456438D+01  0.7443082909D+00
 Atom C37      Shell   107 SP   1    bf  286 -   289         16.105700910115          2.851079062948          3.762859525461
      0.1687144782D+00  0.1000000000D+01  0.1000000000D+01
 Atom C37      Shell   108 D   1     bf  290 -   295         16.105700910115          2.851079062948          3.762859525461
      0.8000000000D+00  0.1000000000D+01
 Atom H38      Shell   109 S   3     bf  296 -   296         15.408892215382          4.604126406902          2.895587744761
      0.1873113696D+02  0.3349460434D-01
      0.2825394365D+01  0.2347269535D+00
      0.6401216923D+00  0.8137573261D+00
 Atom H38      Shell   110 S   1     bf  297 -   297         15.408892215382          4.604126406902          2.895587744761
      0.1612777588D+00  0.1000000000D+01
 Atom C39      Shell   111 S   6     bf  298 -   298         14.261145902538         -1.456395830148          5.163595267605
      0.3047524880D+04  0.1834737132D-02
      0.4573695180D+03  0.1403732281D-01
      0.1039486850D+03  0.6884262226D-01
[...]
 **** Fit      -0.002387
 **** Fit      -0.002318
 **** Fit      -0.002041
 **** Fit      -0.001459
 **** Fit      -0.000607
 **** Fit       0.000305
 **** Fit       0.000998
 **** Fit       0.001315
 **** Fit       0.001291
 **** Fit       0.001071
 **** Fit       0.000787
 **** Fit       0.000520
 **** Fit       0.000302
 **** Fit      -0.002442
 **** Fit      -0.002398
 **** Fit      -0.002385
 **** Fit      -0.002416
 **** Fit      -0.002489
 **** Fit      -0.002578
 **** Fit      -0.002637
 **** Fit      -0.002624
 **** Fit      -0.002521
 **** Fit      -0.002345
 **** Fit      -0.002141
 **** Fit      -0.001959
 **** Fit      -0.001837
 **** Fit      -0.001779
 **** Fit      -0.001744
 **** Fit      -0.001650
 **** Fit      -0.001402
 **** Fit      -0.000943
 **** Fit      -0.000308
 **** Fit       0.000364
 **** Fit       0.000892
 **** Fit       0.001164
 **** Fit       0.001188
 **** Fit       0.001045
 **** Fit       0.000830
 **** Fit       0.000608
 **** Fit      -0.001960
 **** Fit      -0.001920
 **** Fit      -0.001919
 **** Fit      -0.001955
 **** Fit      -0.002009
 **** Fit      -0.002046
 **** Fit      -0.002028
 **** Fit      -0.001937
 **** Fit      -0.001782
 **** Fit      -0.001595
 **** Fit      -0.001417
 **** Fit      -0.001288
 **** Fit      -0.001216
 **** Fit      -0.001170
 **** Fit      -0.001085
 **** Fit      -0.000892
 **** Fit      -0.000558
 **** Fit      -0.000110
 **** Fit       0.000363
 **** Fit       0.000750
 **** Fit       0.000975
 **** Fit       0.001029
 **** Fit       0.000954
 **** Fit       0.000808
 **** Fit       0.000640
 **** Fit      -0.001555
 **** Fit      -0.001530
 **** Fit      -0.001534
 **** Fit      -0.001552
 **** Fit      -0.001558
 **** Fit      -0.001523
 **** Fit      -0.001431
 **** Fit      -0.001287
 **** Fit      -0.001114
 **** Fit      -0.000948
 **** Fit      -0.000823
 **** Fit      -0.000750
 **** Fit      -0.000707
 **** Fit      -0.000643
 **** Fit      -0.000507
 **** Fit      -0.000276
 **** Fit       0.000031
 **** Fit       0.000358
 **** Fit       0.000636
 **** Fit       0.000816
 **** Fit       0.000882
 **** Fit       0.000853
 **** Fit       0.000762
 **** Fit      -0.001023
 **** Fit      -0.000888
 **** Fit      -0.000732
 **** Fit      -0.000584
 **** Fit      -0.000471
 **** Fit      -0.000404
 **** Fit      -0.000367
 **** Fit      -0.000321
 **** Fit      -0.000229
 **** Fit      -0.000073
 **** Fit       0.000135
 **** Fit       0.000360
 **** Fit       0.000561
 **** Fit       0.000701
 **** Fit       0.000768
 **** Fit      -0.000586
 **** Fit      -0.000450
 **** Fit      -0.000322
 **** Fit      -0.000225
 **** Fit      -0.000166
 **** Fit      -0.000133
 **** Fit      -0.000098
 **** Fit      -0.000035
 **** Fit       0.000070
 **** Fit      -0.000248
 **** Fit      -0.000142
 **** Fit      -0.000060
 **** Fit      -0.000007
 **** Fit       0.000023
 **** Fit       0.000052
 **** Fit       0.000097
 **** Fit      -0.000018
 **** Fit       0.000051
 **** Fit       0.000097
 **** Fit       0.000125
 **** Fit      -0.001480
 **** Fit      -0.001515
 **** Fit      -0.001638
 **** Fit      -0.001812
 **** Fit      -0.001996
 **** Fit      -0.003288
 **** Fit      -0.002730
 **** Fit      -0.002231
 **** Fit      -0.001352
 **** Fit      -0.001311
 **** Fit      -0.001398
 **** Fit      -0.001589
 **** Fit      -0.001839
 **** Fit      -0.002091
 **** Fit      -0.002292
 **** Fit      -0.004415
 **** Fit      -0.003827
 **** Fit      -0.003214
 **** Fit      -0.002623
 **** Fit      -0.002097
 **** Fit      -0.001673
 **** Fit      -0.001375
 **** Fit      -0.001219
 **** Fit      -0.001214
 **** Fit      -0.001356
 **** Fit      -0.001619
 **** Fit      -0.001945
 **** Fit      -0.002261
 **** Fit      -0.002498
 **** Fit      -0.002620
 **** Fit      -0.004952
 **** Fit      -0.004434
 **** Fit      -0.003839
 **** Fit      -0.003208
 **** Fit      -0.002594
 **** Fit      -0.002051
 **** Fit      -0.001622
 **** Fit      -0.001332
 **** Fit      -0.001200
 **** Fit      -0.001235
 **** Fit      -0.001436
 **** Fit      -0.001769
 **** Fit      -0.002162
 **** Fit      -0.002522
 **** Fit      -0.002768
 **** Fit      -0.002863
 **** Fit      -0.002817
 **** Fit      -0.004981
 **** Fit      -0.004496
 **** Fit      -0.003919
 **** Fit      -0.003289
 **** Fit      -0.002670
 **** Fit      -0.002124
 **** Fit      -0.001701
 **** Fit      -0.001432
 **** Fit      -0.001333
 **** Fit      -0.001415
 **** Fit      -0.001673
 **** Fit      -0.002063
 **** Fit      -0.002499
 **** Fit      -0.002866
 **** Fit      -0.003078
 **** Fit      -0.003104
 **** Fit      -0.002972
 **** Fit      -0.002741
 **** Fit      -0.002466
 **** Fit      -0.005323
 **** Fit      -0.005014
 **** Fit      -0.004589
 **** Fit      -0.004057
 **** Fit      -0.003457
 **** Fit      -0.002855
 **** Fit      -0.002325
 **** Fit      -0.001922
 **** Fit      -0.001681
 **** Fit      -0.001623
 **** Fit      -0.001754
 **** Fit      -0.002059
 **** Fit      -0.002483
 **** Fit      -0.002919
 **** Fit      -0.003242
 **** Fit      -0.003364
 **** Fit      -0.003274
 **** Fit      -0.003025
 **** Fit      -0.002699
 **** Fit      -0.002363
 **** Fit      -0.002056
 **** Fit      -0.001791
 **** Fit      -0.005246
 **** Fit      -0.005019
 **** Fit      -0.004676
 **** Fit      -0.004217
 **** Fit      -0.003677
 **** Fit      -0.003120
 **** Fit      -0.002622
 **** Fit      -0.002248
 **** Fit      -0.002041
 **** Fit      -0.002021
 **** Fit      -0.002190
 **** Fit      -0.002522
 **** Fit      -0.002941
 **** Fit      -0.003327
 **** Fit      -0.003548
 **** Fit      -0.003527
 **** Fit      -0.003281
 **** Fit      -0.002898
 **** Fit      -0.002483
 **** Fit      -0.002107
 **** Fit      -0.001798
 **** Fit      -0.001555
 **** Fit      -0.005093
 **** Fit      -0.004952
 **** Fit      -0.004703
 **** Fit      -0.004339
 **** Fit      -0.003883
 **** Fit      -0.003393
 **** Fit      -0.002944
 **** Fit      -0.002605
 **** Fit      -0.002426
 **** Fit      -0.002429
 **** Fit      -0.002613
 **** Fit      -0.002935
 **** Fit      -0.003304
 **** Fit      -0.003590
 **** Fit      -0.003662
 **** Fit      -0.003464
 **** Fit      -0.003047
 **** Fit      -0.002537
 **** Fit      -0.002060
 **** Fit      -0.001683
 **** Fit      -0.001414
 **** Fit      -0.001226
 **** Fit      -0.001091
 **** Fit      -0.004835
 **** Fit      -0.004834
 **** Fit      -0.004771
 **** Fit      -0.004616
 **** Fit      -0.004353
 **** Fit      -0.003994
 **** Fit      -0.003586
 **** Fit      -0.003197
 **** Fit      -0.002895
 **** Fit      -0.002735
 **** Fit      -0.002740
 **** Fit      -0.002904
 **** Fit      -0.003175
 **** Fit      -0.003453
 **** Fit      -0.003604
 **** Fit      -0.003508
 **** Fit      -0.003131
 **** Fit      -0.002561
 **** Fit      -0.001959
 **** Fit      -0.001465
 **** Fit      -0.001132
 **** Fit      -0.000939
 **** Fit      -0.000835
 **** Fit      -0.000776
 **** Fit      -0.004425
 **** Fit      -0.004462
 **** Fit      -0.004458
 **** Fit      -0.004382
 **** Fit      -0.004212
 **** Fit      -0.003950
 **** Fit      -0.003628
 **** Fit      -0.003303
 **** Fit      -0.003040
 **** Fit      -0.002889
 **** Fit      -0.002877
 **** Fit      -0.002991
 **** Fit      -0.003179
 **** Fit      -0.003341
 **** Fit      -0.003350
 **** Fit      -0.003103
 **** Fit      -0.002586
 **** Fit      -0.001916
 **** Fit      -0.001276
 **** Fit      -0.000809
 **** Fit      -0.000548
 **** Fit      -0.000446
 **** Fit      -0.000432
 **** Fit      -0.000452
 **** Fit      -0.003890
 **** Fit      -0.003943
 **** Fit      -0.003995
 **** Fit      -0.004025
 **** Fit      -0.004006
 **** Fit      -0.003911
 **** Fit      -0.003733
 **** Fit      -0.003491
 **** Fit      -0.003230
 **** Fit      -0.003003
 **** Fit      -0.002816
 **** Fit      -0.002867
 **** Fit      -0.002961
 **** Fit      -0.003008
 **** Fit      -0.002899
 **** Fit      -0.002548
 **** Fit      -0.001963
 **** Fit      -0.001267
 **** Fit      -0.000647
 **** Fit      -0.000233
 **** Fit      -0.000043
 **** Fit      -0.000017
 **** Fit      -0.000076
 **** Fit      -0.000159
 **** Fit      -0.003389
 **** Fit      -0.003426
 **** Fit      -0.003473
 **** Fit      -0.003515
 **** Fit      -0.003528
 **** Fit      -0.003485
 **** Fit      -0.003371
 **** Fit      -0.003195
 **** Fit      -0.002795
 **** Fit      -0.002653
 **** Fit      -0.002583
 **** Fit      -0.002575
 **** Fit      -0.002586
 **** Fit      -0.002543
 **** Fit      -0.002357
 **** Fit      -0.001966
 **** Fit      -0.001390
 **** Fit      -0.000743
 **** Fit      -0.000186
 **** Fit       0.000168
 **** Fit       0.000307
 **** Fit       0.000290
 **** Fit       0.000194
 **** Fit       0.000075
 **** Fit      -0.002917
 **** Fit      -0.002947
 **** Fit      -0.002984
 **** Fit      -0.003008
 **** Fit      -0.002992
 **** Fit      -0.002920
 **** Fit      -0.002459
 **** Fit      -0.002320
 **** Fit      -0.002228
 **** Fit      -0.002177
 **** Fit      -0.002131
 **** Fit      -0.002032
 **** Fit      -0.001816
 **** Fit      -0.001442
 **** Fit      -0.000932
 **** Fit      -0.000381
 **** Fit       0.000086
 **** Fit       0.000382
 **** Fit       0.000494
 **** Fit       0.000468
 **** Fit       0.000367
 **** Fit       0.000241
 **** Fit      -0.002449
 **** Fit      -0.002459
 **** Fit      -0.002481
 **** Fit      -0.002499
 **** Fit      -0.002492
 **** Fit      -0.002440
 **** Fit      -0.002201
 **** Fit      -0.002052
 **** Fit      -0.001917
 **** Fit      -0.001813
 **** Fit      -0.001737
 **** Fit      -0.001661
 **** Fit      -0.001542
 **** Fit      -0.001333
 **** Fit      -0.001010
 **** Fit      -0.000594
 **** Fit      -0.000154
 **** Fit       0.000219
 **** Fit       0.000461
 **** Fit       0.000560
 **** Fit       0.000543
 **** Fit       0.000458
 **** Fit      -0.002036
 **** Fit      -0.002040
 **** Fit      -0.001770
 **** Fit      -0.001633
 **** Fit      -0.001504
 **** Fit      -0.001396
 **** Fit      -0.001310
 **** Fit      -0.001227
 **** Fit      -0.001111
 **** Fit      -0.000931
 **** Fit      -0.000672
 **** Fit      -0.000350
 **** Fit      -0.000015
 **** Fit       0.000273
 **** Fit       0.000468
 **** Fit       0.000557
 **** Fit       0.000555
 **** Fit       0.000494
 **** Fit      -0.001373
 **** Fit      -0.001247
 **** Fit      -0.001125
 **** Fit      -0.001020
 **** Fit      -0.000935
 **** Fit      -0.000856
 **** Fit      -0.000756
 **** Fit      -0.000612
 **** Fit      -0.000414
 **** Fit      -0.000174
 **** Fit       0.000075
 **** Fit       0.000293
 **** Fit       0.000447
 **** Fit       0.000527
 **** Fit      -0.000919
 **** Fit      -0.000807
 **** Fit      -0.000710
 **** Fit      -0.000631
 **** Fit      -0.000561
 **** Fit      -0.000479
 **** Fit      -0.000368
 **** Fit       0.000138
 **** Fit       0.000301
 **** Fit      -0.000557
 **** Fit      -0.000470
 **** Fit      -0.000399
 **** Fit      -0.000338
 **** Fit      -0.000272
 **** Fit      -0.001619
 **** Fit      -0.001684
 **** Fit      -0.001823
 **** Fit      -0.001998
 **** Fit      -0.002165
 **** Fit      -0.002749
 **** Fit      -0.001664
 **** Fit      -0.001661
 **** Fit      -0.001762
 **** Fit      -0.001939
 **** Fit      -0.002147
 **** Fit      -0.002332
 **** Fit      -0.002451
 **** Fit      -0.003706
 **** Fit      -0.003247
 **** Fit      -0.002797
 **** Fit      -0.002394
 **** Fit      -0.002074
 **** Fit      -0.001860
 **** Fit      -0.001765
 **** Fit      -0.001792
 **** Fit      -0.001925
 **** Fit      -0.002131
 **** Fit      -0.002353
 **** Fit      -0.002533
 **** Fit      -0.002625
 **** Fit      -0.002612
 **** Fit      -0.003763
 **** Fit      -0.003331
 **** Fit      -0.002900
 **** Fit      -0.002515
 **** Fit      -0.002212
 **** Fit      -0.002019
 **** Fit      -0.001949
 **** Fit      -0.002002
 **** Fit      -0.002158
 **** Fit      -0.002374
 **** Fit      -0.002587
 **** Fit      -0.002734
 **** Fit      -0.002770
 **** Fit      -0.002687
 **** Fit      -0.002511
 **** Fit      -0.002283
 **** Fit      -0.002041
 **** Fit      -0.004165
 **** Fit      -0.003821
 **** Fit      -0.003432
 **** Fit      -0.003037
 **** Fit      -0.002679
 **** Fit      -0.002400
 **** Fit      -0.002229
 **** Fit      -0.002180
 **** Fit      -0.002249
 **** Fit      -0.002412
 **** Fit      -0.002616
 **** Fit      -0.002793
 **** Fit      -0.002878
 **** Fit      -0.002832
 **** Fit      -0.002662
 **** Fit      -0.002409
 **** Fit      -0.002126
 **** Fit      -0.001855
 **** Fit      -0.001619
 **** Fit      -0.003846
 **** Fit      -0.003513
 **** Fit      -0.003164
 **** Fit      -0.002843
 **** Fit      -0.002592
 **** Fit      -0.002440
 **** Fit      -0.002403
 **** Fit      -0.002474
 **** Fit      -0.002621
 **** Fit      -0.002789
 **** Fit      -0.002905
 **** Fit      -0.002906
 **** Fit      -0.002764
 **** Fit      -0.002501
 **** Fit      -0.002176
 **** Fit      -0.001851
 **** Fit      -0.001570
 **** Fit      -0.001348
 **** Fit      -0.001179
 **** Fit      -0.003800
 **** Fit      -0.003529
 **** Fit      -0.003235
 **** Fit      -0.002956
 **** Fit      -0.002732
 **** Fit      -0.002558
 **** Fit      -0.002613
 **** Fit      -0.002725
 **** Fit      -0.002835
 **** Fit      -0.002874
 **** Fit      -0.002782
 **** Fit      -0.002546
 **** Fit      -0.002202
 **** Fit      -0.001822
 **** Fit      -0.001478
 **** Fit      -0.001210
 **** Fit      -0.001021
 **** Fit      -0.000895
 **** Fit      -0.002628
 **** Fit      -0.002689
 **** Fit      -0.002731
 **** Fit      -0.002689
 **** Fit      -0.002515
 **** Fit      -0.002203
 **** Fit      -0.001804
 **** Fit      -0.001400
 **** Fit      -0.001061
 **** Fit      -0.000821
 **** Fit      -0.000677
 **** Fit      -0.000599
 **** Fit      -0.002519
 **** Fit      -0.002495
 **** Fit      -0.002384
 **** Fit      -0.002149
 **** Fit      -0.001796
 **** Fit      -0.001378
 **** Fit      -0.000979
 **** Fit      -0.000664
 **** Fit      -0.000462
 **** Fit      -0.000361
 **** Fit      -0.000327
 **** Fit      -0.002169
 **** Fit      -0.002012
 **** Fit      -0.001749
 **** Fit      -0.001390
 **** Fit      -0.000989
 **** Fit      -0.000620
 **** Fit      -0.000342
 **** Fit      -0.000175
 **** Fit      -0.000107
 **** Fit      -0.000103
 **** Fit      -0.001804
 **** Fit      -0.001626
 **** Fit      -0.001364
 **** Fit      -0.001031
 **** Fit      -0.000673
 **** Fit      -0.000351
 **** Fit      -0.000113
 **** Fit       0.000024
 **** Fit       0.000073
 **** Fit       0.000061
 **** Fit      -0.001266
 **** Fit      -0.001027
 **** Fit      -0.000738
 **** Fit      -0.000436
 **** Fit      -0.000167
 **** Fit       0.000032
 **** Fit       0.000146
 **** Fit       0.000186
 **** Fit      -0.000747
 **** Fit      -0.000509
 **** Fit      -0.000264
 **** Fit      -0.000047
 **** Fit       0.000116
 **** Fit       0.000213
 **** Fit      -0.002139
 **** Fit      -0.002231
 **** Fit      -0.002321
 **** Fit      -0.002272
 **** Fit      -0.002352
 **** Fit      -0.002416
 **** Fit      -0.002241
 **** Fit      -0.002062
 **** Fit      -0.002412
 **** Fit      -0.002298
 **** Fit      -0.002116
 **** Fit      -0.001895
 **** Fit      -0.001667
 **** Fit      -0.002306
 **** Fit      -0.002138
 **** Fit      -0.001910
 **** Fit      -0.001657
 **** Fit      -0.001414
 **** Fit      -0.001207
 **** Fit      -0.002253
 **** Fit      -0.002114
 **** Fit      -0.001903
 **** Fit      -0.001643
 **** Fit      -0.001372
 **** Fit      -0.001129
 **** Fit      -0.000934
 **** Fit      -0.002033
 **** Fit      -0.001859
 **** Fit      -0.001622
 **** Fit      -0.001348
 **** Fit      -0.001077
 **** Fit      -0.000845
 **** Fit      -0.000671
 **** Fit      -0.001574
 **** Fit      -0.001330
 **** Fit      -0.001061
 **** Fit      -0.000805
 **** Fit      -0.000593
 **** Fit      -0.000442
 **** Fit      -0.001289
 **** Fit      -0.001056
 **** Fit      -0.000808
 **** Fit      -0.000577
 **** Fit      -0.000390
 **** Fit      -0.000598
 -----------------------------------------------------------------
 Leave Link  602 at Fri Apr 28 12:40:34 2017, MaxMem=   33554432 cpu:      93.8
 (Enter /scratch/michal/g09/l9999.exe)

 Test job not archived.
 1\1\GINC-RZEPICHA\SP\RHF\6-31G(d)\C27H46O3\MICHAL\28-Apr-2017\0\\#P HF
 /6-31G* SCF(Conver=6) NoSymm Test Pop=chelpg IOp(6/33=2) GFInput GFPri
 nt\\MEP - Input generated by R.E.D.-III.x MOLECULE\\0,1\C,0,0.997238,-
 0.88667305,-1.69566805\H,0,1.15095185,0.08277316,-2.18524419\C,0,2.210
 35376,-1.78553812,-1.97386217\H,0,2.34976824,-1.89654419,-3.05383695\H
 ,0,1.97755808,-2.7882673,-1.57998575\C,0,3.4840916,-1.27340654,-1.3287
 8919\C,0,3.42505917,-0.91218203,0.15968684\C,0,2.12822426,-0.08239402,
 0.41636866\H,0,2.27523038,0.92389206,0.\H,0,1.98660957,0.0462168,1.494
 3956\C,0,0.84542244,-0.67073949,-0.19083337\H,0,0.59917433,-1.63132521
 ,0.28567375\H,0,0.,0.,0.\C,0,4.60674384,-1.16022024,-2.05122236\H,0,4.
 58891751,-1.40390712,-3.11404335\C,0,5.9432629,-0.72798556,-1.52409741
 \H,0,6.22981478,0.2273541,-1.99331813\C,0,6.01140557,-0.59631926,0.005
 00684\H,0,6.16772996,-1.60587732,0.39966891\C,0,4.66560824,-0.0307534,
 0.54169715\H,0,4.51351823,0.93040246,0.0228407\C,0,4.74432007,0.291418
 03,2.05250915\H,0,4.78466818,-0.63894628,2.62903788\H,0,3.82783043,0.8
 0280269,2.36643767\C,0,5.94935697,1.16941498,2.44195703\H,0,5.83626318
 ,2.16274853,1.9851354\H,0,5.93831641,1.31977345,3.52791864\C,0,7.28070
 166,0.55192736,1.97598541\C,0,7.1660332,0.32399558,0.4384943\H,0,6.924
 93183,1.31588526,0.01806348\C,0,8.60738119,0.,0.\H,0,8.78030716,0.2211
 8463,-1.05633686\H,0,8.81802871,-1.06682285,0.12649052\C,0,9.48691299,
 0.86792967,0.94388052\H,0,10.25255377,0.25517846,1.43057826\H,0,10.024
 73866,1.65064568,0.39725727\C,0,8.52276985,1.50872606,1.9912195\H,0,8.
 15403457,2.43639876,1.53227904\C,0,7.54667338,-0.77069148,2.73245693\H
 ,0,6.82932561,-1.54966225,2.46214827\H,0,8.54315794,-1.17011467,2.5291
 8087\H,0,7.46491178,-0.62065028,3.81290605\C,0,9.25245701,1.97254596,3
 .28528835\H,0,10.08702478,2.58325163,2.90298092\C,0,9.89908879,0.87217
 694,4.15097446\H,0,9.16125527,0.34169075,4.75991999\H,0,10.62107931,1.
 32453291,4.84037558\H,0,10.43870859,0.12875905,3.55739854\C,0,3.375950
 25,-2.22681538,0.9830259\H,0,3.18923341,-2.02549372,2.0423605\H,0,2.57
 685653,-2.8872493,0.63536742\H,0,4.31431536,-2.78209819,0.89647625\O,0
 ,6.99290462,-1.57289674,-2.05997456\O,0,6.83446261,-2.92364545,-1.5336
 7056\H,0,6.43731932,-3.37420196,-2.29693348\O,0,-0.1925103,-1.39935573
 ,-2.30110521\H,0,-0.40756,-2.24908735,-1.89133356\C,0,8.42565004,2.910
 63821,4.19683913\H,0,7.54665927,2.37622171,4.58099762\H,0,9.04148005,3
 .13622071,5.07944559\C,0,7.98495851,4.24545608,3.57569619\H,0,8.866320
 59,4.74388157,3.14943783\H,0,7.29880393,4.06363564,2.74103085\C,0,7.30
 873628,5.16829976,4.60291217\H,0,8.00605806,5.33678508,5.43630369\H,0,
 6.44557321,4.64038817,5.03389296\C,0,6.82758203,6.54478699,4.08753637\
 H,0,6.38054756,7.0516624,4.95559186\C,0,7.98431696,7.43008748,3.594789
 89\H,0,8.44668389,7.02383286,2.68779068\H,0,7.62883907,8.43898659,3.35
 603871\H,0,8.7675052,7.52362111,4.35632002\C,0,5.72792102,6.42790865,3
 .01896685\H,0,6.11063406,5.98739697,2.09108558\H,0,5.32190015,7.414543
 34,2.76808609\H,0,4.89680371,5.8038441,3.36817417\\Version=EM64L-G09Re
 vC.01\HF=-1273.6773021\RMSD=5.349e-07\Dipole=-0.4886237,-0.1762841,0.4
 670483\Quadrupole=-14.0982299,10.3058768,3.792353,4.9493999,-0.6246061
 ,2.0717267\PG=C01 [X(C27H46O3)]\\@


 THE WORLD IS MADE UP OF THE WILLS, THE WON'TS, AND THE CANT'S:
 THE WILLS DO EVERYTHING,
 THE WON'TS DO NOTHING,
 THE CAN'TS CAN'T DO ANYTHING.

                               -- FROM WALT DISNEY'S "BLACK HOLE"
 Job cpu time:  0 days  0 hours 43 minutes 15.4 seconds.
 File lengths (MBytes):  RWF=    159 Int=      0 D2E=      0 Chk=     11 Scr=      1
 Normal termination of Gaussian 09 at Fri Apr 28 12:40:34 2017.
