 Entering Gaussian System, Link 0=/scratch/michal/g09//g09
 Input=JOB2-gau_m1-14-4.com
 Output=JOB2-gau_m1-14-4.log
 Initial command:
 /scratch/michal/g09/l1.exe /scratch/michal/gauss_scratch/Gau-8856.inp -scrdir=/scratch/michal/gauss_scratch/
 Entering Link 1 = /scratch/michal/g09/l1.exe PID=      8858.
  
 Copyright (c) 1988,1990,1992,1993,1995,1998,2003,2009,2011,
            Gaussian, Inc.  All Rights Reserved.
  
 This is part of the Gaussian(R) 09 program.  It is based on
 the Gaussian(R) 03 system (copyright 2003, Gaussian, Inc.),
 the Gaussian(R) 98 system (copyright 1998, Gaussian, Inc.),
 the Gaussian(R) 94 system (copyright 1995, Gaussian, Inc.),
 the Gaussian 92(TM) system (copyright 1992, Gaussian, Inc.),
 the Gaussian 90(TM) system (copyright 1990, Gaussian, Inc.),
 the Gaussian 88(TM) system (copyright 1988, Gaussian, Inc.),
 the Gaussian 86(TM) system (copyright 1986, Carnegie Mellon
 University), and the Gaussian 82(TM) system (copyright 1983,
 Carnegie Mellon University). Gaussian is a federally registered
 trademark of Gaussian, Inc.
  
 This software contains proprietary and confidential information,
 including trade secrets, belonging to Gaussian, Inc.
  
 This software is provided under written license and may be
 used, copied, transmitted, or stored only in accord with that
 written license.
  
 The following legend is applicable only to US Government
 contracts under FAR:
  
                    RESTRICTED RIGHTS LEGEND
  
 Use, reproduction and disclosure by the US Government is
 subject to restrictions as set forth in subparagraphs (a)
 and (c) of the Commercial Computer Software - Restricted
 Rights clause in FAR 52.227-19.
  
 Gaussian, Inc.
 340 Quinnipiac St., Bldg. 40, Wallingford CT 06492
  
  
 ---------------------------------------------------------------
 Warning -- This program may not be used in any manner that
 competes with the business of Gaussian, Inc. or will provide
 assistance to any competitor of Gaussian, Inc.  The licensee
 of this program is prohibited from giving any competitor of
 Gaussian, Inc. access to this program.  By using this program,
 the user acknowledges that Gaussian, Inc. is engaged in the
 business of creating and licensing software in the field of
 computational chemistry and represents and warrants to the
 licensee that it is not a competitor of Gaussian, Inc. and that
 it will not use this program in any manner prohibited above.
 ---------------------------------------------------------------
  

 Cite this work as:
 Gaussian 09, Revision C.01,
 M. J. Frisch, G. W. Trucks, H. B. Schlegel, G. E. Scuseria, 
 M. A. Robb, J. R. Cheeseman, G. Scalmani, V. Barone, B. Mennucci, 
 G. A. Petersson, H. Nakatsuji, M. Caricato, X. Li, H. P. Hratchian, 
 A. F. Izmaylov, J. Bloino, G. Zheng, J. L. Sonnenberg, M. Hada, 
 M. Ehara, K. Toyota, R. Fukuda, J. Hasegawa, M. Ishida, T. Nakajima, 
 Y. Honda, O. Kitao, H. Nakai, T. Vreven, J. A. Montgomery, Jr., 
 J. E. Peralta, F. Ogliaro, M. Bearpark, J. J. Heyd, E. Brothers, 
 K. N. Kudin, V. N. Staroverov, T. Keith, R. Kobayashi, J. Normand, 
 K. Raghavachari, A. Rendell, J. C. Burant, S. S. Iyengar, J. Tomasi, 
 M. Cossi, N. Rega, J. M. Millam, M. Klene, J. E. Knox, J. B. Cross, 
 V. Bakken, C. Adamo, J. Jaramillo, R. Gomperts, R. E. Stratmann, 
 O. Yazyev, A. J. Austin, R. Cammi, C. Pomelli, J. W. Ochterski, 
 R. L. Martin, K. Morokuma, V. G. Zakrzewski, G. A. Voth, 
 P. Salvador, J. J. Dannenberg, S. Dapprich, A. D. Daniels, 
 O. Farkas, J. B. Foresman, J. V. Ortiz, J. Cioslowski, 
 and D. J. Fox, Gaussian, Inc., Wallingford CT, 2010.
 
 ******************************************
 Gaussian 09:  EM64L-G09RevC.01 23-Sep-2011
                28-Apr-2017 
 ******************************************
 %Mem=256MB
 %NProc=48
 Will use up to   48 processors via shared memory.
 ----------------------------------------------------------------------
 #P HF/6-31G* SCF(Conver=6) NoSymm Test Pop=chelpg IOp(6/33=2) GFInput 
 GFPrint
 ----------------------------------------------------------------------
 1/38=1/1;
 2/12=2,15=1,17=6,18=5,40=1/2;
 3/5=1,6=6,7=1,11=9,16=1,24=110,25=1,30=1/1,2,3;
 4//1;
 5/5=2,6=6,38=5/2;
 6/7=2,8=2,9=2,10=2,15=8,20=3,28=1,33=2/1,2;
 99/5=1,9=1/99;
 Leave Link    1 at Fri Apr 28 13:13:15 2017, MaxMem=   33554432 cpu:       5.1
 (Enter /scratch/michal/g09/l101.exe)
 ----------------------------------------------
 MEP - Input generated by R.E.D.-III.x MOLECULE
 ----------------------------------------------
 Charge =  0 Multiplicity = 1
 Symbolic Z-Matrix:
 C                     0.99665  -0.89984  -1.6896 
 H                     1.15211   0.067    -2.18384 
 C                     2.20795  -1.80193  -1.96342 
 H                     2.34988  -1.91647  -3.04235 
 H                     1.97373  -2.80377  -1.56777 
 C                     3.4815   -1.28682  -1.3193 
 C                     3.41814  -0.92889   0.16891 
 C                     2.12712  -0.08938   0.42184 
 H                     2.28087   0.91366   0. 
 H                     1.98336   0.04544   1.49909 
 C                     0.84314  -0.6751   -0.18566 
 H                     0.59171  -1.6319    0.29545 
 H                     0.        0.        0. 
 C                     4.60289  -1.17563  -2.04343 
 H                     4.59097  -1.43436  -3.09985 
 C                     5.94105  -0.75134  -1.5142 
 H                     6.25376   0.19224  -1.98783 
 C                     6.00789  -0.62194   0.01648 
 H                     6.16774  -1.63345   0.4118 
 C                     4.66258  -0.0597    0.55884 
 H                     4.51722   0.90777   0.051 
 C                     4.74812   0.24154   2.07372 
 H                     4.79568  -0.6969    2.63636 
 H                     3.82986   0.74266   2.39825 
 C                     5.94925   1.12107   2.47057 
 H                     5.82852   2.11916   2.02662 
 H                     5.94223   1.25839   3.55826 
 C                     7.28272   0.51763   1.99194 
 C                     7.15915   0.30277   0.45342 
 H                     6.90516   1.29515   0.04417 
 C                     8.60023   0.        0. 
 H                     8.76093   0.24801  -1.05379 
 H                     8.82376  -1.06624   0.10626 
 C                     9.48019   0.86198   0.94892 
 H                     10.25039   0.24688   1.42519 
 H                     10.01189   1.6534    0.40906 
 C                     8.51764   1.48452   2.00837 
 H                     8.13784   2.41345   1.56049 
 C                     7.56324  -0.80953   2.73464 
 H                     6.84589  -1.58926   2.46641 
 H                     8.55961  -1.20285   2.51826 
 H                     7.49216  -0.66878   3.81686 
 C                     9.25476   1.94127   3.30023 
 H                     10.0886   2.54965   2.91774 
 C                     9.90845   0.83783   4.15665 
 H                     9.17572   0.29934   4.76483 
 H                     10.63058   1.2891    4.84652 
 H                     10.45032   0.10127   3.55634 
 C                     3.35437  -2.24339   0.9919 
 H                     3.15504  -2.04297   2.04927 
 H                     2.55853  -2.90143   0.63339 
 H                     4.29118  -2.80347   0.91713 
 O                     6.93988  -1.74794  -1.84877 
 O                     7.12164  -1.72825  -3.29681 
 H                     8.03739  -1.40893  -3.35127 
 O                    -0.1958   -1.4119   -2.29115 
 H                    -0.39147  -2.27637  -1.90309 
 C                     8.42445   2.86399   4.22604 
 H                     7.57523   2.29786   4.62937 
 H                     9.05359   3.1094    5.0939 
 C                     7.90533   4.18661   3.6312 
 H                     7.21351   3.98253   2.80647 
 H                     7.30687   4.68878   4.40475 
 C                     9.00923   5.15014   3.16707 
 H                     9.54071   4.72813   2.30186 
 H                     9.75651   5.23658   3.9695 
 C                     8.52591   6.56787   2.7983 
 H                     7.97582   6.96634   3.66495 
 C                     9.72288   7.49571   2.5369 
 H                     10.31033   7.14368   1.67912 
 H                     9.3937    8.51745   2.31595 
 H                     10.39255   7.53867   3.40352 
 C                     7.57089   6.57007   1.59355 
 H                     8.06477   6.15357   0.70577 
 H                     7.25349   7.58978   1.34754 
 H                     6.66789   5.98068   1.78161 
 
 NAtoms=     76 NQM=        0 NQMF=       0 NMMI=     76 NMMIF=      0
                NMic=       0 NMicF=      0.
                    Isotopes and Nuclear Properties:
 (Nuclear quadrupole moments (NQMom) in fm**2, nuclear magnetic moments (NMagM)
  in nuclear magnetons)

  Atom         1           2           3           4           5           6           7           8           9          10
 IAtWgt=          12           1          12           1           1          12          12          12           1           1
 AtmWgt=  12.0000000   1.0078250  12.0000000   1.0078250   1.0078250  12.0000000  12.0000000  12.0000000   1.0078250   1.0078250
 NucSpn=           0           1           0           1           1           0           0           0           1           1
 AtZEff=   0.0000000   0.0000000   0.0000000   0.0000000   0.0000000   0.0000000   0.0000000   0.0000000   0.0000000   0.0000000
 NQMom=    0.0000000   0.0000000   0.0000000   0.0000000   0.0000000   0.0000000   0.0000000   0.0000000   0.0000000   0.0000000
 NMagM=    0.0000000   2.7928460   0.0000000   2.7928460   2.7928460   0.0000000   0.0000000   0.0000000   2.7928460   2.7928460

  Atom        11          12          13          14          15          16          17          18          19          20
 IAtWgt=          12           1           1          12           1          12           1          12           1          12
 AtmWgt=  12.0000000   1.0078250   1.0078250  12.0000000   1.0078250  12.0000000   1.0078250  12.0000000   1.0078250  12.0000000
 NucSpn=           0           1           1           0           1           0           1           0           1           0
 AtZEff=   0.0000000   0.0000000   0.0000000   0.0000000   0.0000000   0.0000000   0.0000000   0.0000000   0.0000000   0.0000000
 NQMom=    0.0000000   0.0000000   0.0000000   0.0000000   0.0000000   0.0000000   0.0000000   0.0000000   0.0000000   0.0000000
 NMagM=    0.0000000   2.7928460   2.7928460   0.0000000   2.7928460   0.0000000   2.7928460   0.0000000   2.7928460   0.0000000

  Atom        21          22          23          24          25          26          27          28          29          30
 IAtWgt=           1          12           1           1          12           1           1          12          12           1
 AtmWgt=   1.0078250  12.0000000   1.0078250   1.0078250  12.0000000   1.0078250   1.0078250  12.0000000  12.0000000   1.0078250
 NucSpn=           1           0           1           1           0           1           1           0           0           1
 AtZEff=   0.0000000   0.0000000   0.0000000   0.0000000   0.0000000   0.0000000   0.0000000   0.0000000   0.0000000   0.0000000
 NQMom=    0.0000000   0.0000000   0.0000000   0.0000000   0.0000000   0.0000000   0.0000000   0.0000000   0.0000000   0.0000000
 NMagM=    2.7928460   0.0000000   2.7928460   2.7928460   0.0000000   2.7928460   2.7928460   0.0000000   0.0000000   2.7928460

  Atom        31          32          33          34          35          36          37          38          39          40
 IAtWgt=          12           1           1          12           1           1          12           1          12           1
 AtmWgt=  12.0000000   1.0078250   1.0078250  12.0000000   1.0078250   1.0078250  12.0000000   1.0078250  12.0000000   1.0078250
 NucSpn=           0           1           1           0           1           1           0           1           0           1
 AtZEff=   0.0000000   0.0000000   0.0000000   0.0000000   0.0000000   0.0000000   0.0000000   0.0000000   0.0000000   0.0000000
 NQMom=    0.0000000   0.0000000   0.0000000   0.0000000   0.0000000   0.0000000   0.0000000   0.0000000   0.0000000   0.0000000
 NMagM=    0.0000000   2.7928460   2.7928460   0.0000000   2.7928460   2.7928460   0.0000000   2.7928460   0.0000000   2.7928460

  Atom        41          42          43          44          45          46          47          48          49          50
 IAtWgt=           1           1          12           1          12           1           1           1          12           1
 AtmWgt=   1.0078250   1.0078250  12.0000000   1.0078250  12.0000000   1.0078250   1.0078250   1.0078250  12.0000000   1.0078250
 NucSpn=           1           1           0           1           0           1           1           1           0           1
 AtZEff=   0.0000000   0.0000000   0.0000000   0.0000000   0.0000000   0.0000000   0.0000000   0.0000000   0.0000000   0.0000000
 NQMom=    0.0000000   0.0000000   0.0000000   0.0000000   0.0000000   0.0000000   0.0000000   0.0000000   0.0000000   0.0000000
 NMagM=    2.7928460   2.7928460   0.0000000   2.7928460   0.0000000   2.7928460   2.7928460   2.7928460   0.0000000   2.7928460

  Atom        51          52          53          54          55          56          57          58          59          60
 IAtWgt=           1           1          16          16           1          16           1          12           1           1
 AtmWgt=   1.0078250   1.0078250  15.9949146  15.9949146   1.0078250  15.9949146   1.0078250  12.0000000   1.0078250   1.0078250
 NucSpn=           1           1           0           0           1           0           1           0           1           1
 AtZEff=   0.0000000   0.0000000   0.0000000   0.0000000   0.0000000   0.0000000   0.0000000   0.0000000   0.0000000   0.0000000
 NQMom=    0.0000000   0.0000000   0.0000000   0.0000000   0.0000000   0.0000000   0.0000000   0.0000000   0.0000000   0.0000000
 NMagM=    2.7928460   2.7928460   0.0000000   0.0000000   2.7928460   0.0000000   2.7928460   0.0000000   2.7928460   2.7928460

  Atom        61          62          63          64          65          66          67          68          69          70
 IAtWgt=          12           1           1          12           1           1          12           1          12           1
 AtmWgt=  12.0000000   1.0078250   1.0078250  12.0000000   1.0078250   1.0078250  12.0000000   1.0078250  12.0000000   1.0078250
 NucSpn=           0           1           1           0           1           1           0           1           0           1
 AtZEff=   0.0000000   0.0000000   0.0000000   0.0000000   0.0000000   0.0000000   0.0000000   0.0000000   0.0000000   0.0000000
 NQMom=    0.0000000   0.0000000   0.0000000   0.0000000   0.0000000   0.0000000   0.0000000   0.0000000   0.0000000   0.0000000
 NMagM=    0.0000000   2.7928460   2.7928460   0.0000000   2.7928460   2.7928460   0.0000000   2.7928460   0.0000000   2.7928460

  Atom        71          72          73          74          75          76
 IAtWgt=           1           1          12           1           1           1
 AtmWgt=   1.0078250   1.0078250  12.0000000   1.0078250   1.0078250   1.0078250
 NucSpn=           1           1           0           1           1           1
 AtZEff=   0.0000000   0.0000000   0.0000000   0.0000000   0.0000000   0.0000000
 NQMom=    0.0000000   0.0000000   0.0000000   0.0000000   0.0000000   0.0000000
 NMagM=    2.7928460   2.7928460   0.0000000   2.7928460   2.7928460   2.7928460
 Leave Link  101 at Fri Apr 28 13:13:15 2017, MaxMem=   33554432 cpu:      13.2
 (Enter /scratch/michal/g09/l202.exe)
 Symmetry turned off by external request.
 Stoichiometry    C27H46O3
 Framework group  C1[X(C27H46O3)]
 Deg. of freedom   222
 Full point group                 C1      NOp   1
                          Input orientation:                          
 ---------------------------------------------------------------------
 Center     Atomic      Atomic             Coordinates (Angstroms)
 Number     Number       Type             X           Y           Z
 ---------------------------------------------------------------------
      1          6           0        0.996649   -0.899842   -1.689600
      2          1           0        1.152106    0.067002   -2.183842
      3          6           0        2.207954   -1.801933   -1.963418
      4          1           0        2.349883   -1.916471   -3.042350
      5          1           0        1.973735   -2.803773   -1.567766
      6          6           0        3.481496   -1.286816   -1.319302
      7          6           0        3.418143   -0.928886    0.168913
      8          6           0        2.127121   -0.089381    0.421839
      9          1           0        2.280874    0.913661    0.000000
     10          1           0        1.983360    0.045442    1.499090
     11          6           0        0.843137   -0.675095   -0.185655
     12          1           0        0.591707   -1.631904    0.295455
     13          1           0        0.000000    0.000000    0.000000
     14          6           0        4.602893   -1.175627   -2.043433
     15          1           0        4.590971   -1.434360   -3.099851
     16          6           0        5.941048   -0.751342   -1.514200
     17          1           0        6.253760    0.192242   -1.987827
     18          6           0        6.007893   -0.621945    0.016475
     19          1           0        6.167739   -1.633450    0.411800
     20          6           0        4.662583   -0.059701    0.558836
     21          1           0        4.517216    0.907766    0.050998
     22          6           0        4.748123    0.241542    2.073719
     23          1           0        4.795676   -0.696903    2.636358
     24          1           0        3.829856    0.742660    2.398246
     25          6           0        5.949248    1.121070    2.470573
     26          1           0        5.828523    2.119161    2.026618
     27          1           0        5.942232    1.258390    3.558257
     28          6           0        7.282720    0.517626    1.991943
     29          6           0        7.159153    0.302774    0.453420
     30          1           0        6.905158    1.295149    0.044169
     31          6           0        8.600233    0.000000    0.000000
     32          1           0        8.760925    0.248011   -1.053790
     33          1           0        8.823764   -1.066238    0.106255
     34          6           0        9.480188    0.861980    0.948919
     35          1           0       10.250395    0.246875    1.425191
     36          1           0       10.011891    1.653402    0.409057
     37          6           0        8.517636    1.484515    2.008369
     38          1           0        8.137841    2.413448    1.560493
     39          6           0        7.563236   -0.809531    2.734636
     40          1           0        6.845895   -1.589259    2.466405
     41          1           0        8.559614   -1.202848    2.518261
     42          1           0        7.492164   -0.668780    3.816856
     43          6           0        9.254765    1.941274    3.300228
     44          1           0       10.088600    2.549650    2.917737
     45          6           0        9.908447    0.837834    4.156650
     46          1           0        9.175720    0.299341    4.764831
     47          1           0       10.630584    1.289101    4.846523
     48          1           0       10.450322    0.101271    3.556344
     49          6           0        3.354369   -2.243390    0.991902
     50          1           0        3.155037   -2.042970    2.049269
     51          1           0        2.558532   -2.901435    0.633395
     52          1           0        4.291184   -2.803474    0.917129
     53          8           0        6.939877   -1.747937   -1.848767
     54          8           0        7.121635   -1.728249   -3.296812
     55          1           0        8.037389   -1.408929   -3.351271
     56          8           0       -0.195798   -1.411903   -2.291147
     57          1           0       -0.391470   -2.276373   -1.903085
     58          6           0        8.424448    2.863989    4.226037
     59          1           0        7.575231    2.297861    4.629374
     60          1           0        9.053590    3.109400    5.093902
     61          6           0        7.905332    4.186611    3.631202
     62          1           0        7.213506    3.982528    2.806474
     63          1           0        7.306875    4.688776    4.404755
     64          6           0        9.009227    5.150139    3.167067
     65          1           0        9.540713    4.728132    2.301862
     66          1           0        9.756514    5.236580    3.969497
     67          6           0        8.525913    6.567872    2.798296
     68          1           0        7.975823    6.966341    3.664952
     69          6           0        9.722881    7.495712    2.536903
     70          1           0       10.310332    7.143681    1.679121
     71          1           0        9.393697    8.517449    2.315954
     72          1           0       10.392552    7.538668    3.403515
     73          6           0        7.570895    6.570070    1.593547
     74          1           0        8.064774    6.153573    0.705773
     75          1           0        7.253489    7.589780    1.347543
     76          1           0        6.667891    5.980680    1.781606
 ---------------------------------------------------------------------
 Rotational constants (GHZ):      0.2282348      0.0709813      0.0653684
 Leave Link  202 at Fri Apr 28 13:13:15 2017, MaxMem=   33554432 cpu:       0.1
 (Enter /scratch/michal/g09/l301.exe)
 Standard basis: 6-31G(d) (6D, 7F)
 Ernie: Thresh=  0.10000D-02 Tol=  0.10000D-05 Strict=F.
 AO basis set in the form of general basis input (Overlap normalization):
      1 0
 S   6 1.00       0.000000000000
      0.3047524880D+04  0.1834737132D-02
      0.4573695180D+03  0.1403732281D-01
      0.1039486850D+03  0.6884262226D-01
      0.2921015530D+02  0.2321844432D+00
      0.9286662960D+01  0.4679413484D+00
      0.3163926960D+01  0.3623119853D+00
 SP   3 1.00       0.000000000000
      0.7868272350D+01 -0.1193324198D+00  0.6899906659D-01
      0.1881288540D+01 -0.1608541517D+00  0.3164239610D+00
      0.5442492580D+00  0.1143456438D+01  0.7443082909D+00
 SP   1 1.00       0.000000000000
      0.1687144782D+00  0.1000000000D+01  0.1000000000D+01
 D   1 1.00       0.000000000000
      0.8000000000D+00  0.1000000000D+01
 ****
      2 0
 S   3 1.00       0.000000000000
      0.1873113696D+02  0.3349460434D-01
      0.2825394365D+01  0.2347269535D+00
      0.6401216923D+00  0.8137573261D+00
 S   1 1.00       0.000000000000
      0.1612777588D+00  0.1000000000D+01
 ****
      3 0
 S   6 1.00       0.000000000000
      0.3047524880D+04  0.1834737132D-02
      0.4573695180D+03  0.1403732281D-01
      0.1039486850D+03  0.6884262226D-01
      0.2921015530D+02  0.2321844432D+00
      0.9286662960D+01  0.4679413484D+00
      0.3163926960D+01  0.3623119853D+00
 SP   3 1.00       0.000000000000
      0.7868272350D+01 -0.1193324198D+00  0.6899906659D-01
      0.1881288540D+01 -0.1608541517D+00  0.3164239610D+00
      0.5442492580D+00  0.1143456438D+01  0.7443082909D+00
 SP   1 1.00       0.000000000000
      0.1687144782D+00  0.1000000000D+01  0.1000000000D+01
 D   1 1.00       0.000000000000
      0.8000000000D+00  0.1000000000D+01
 ****
      4 0
 S   3 1.00       0.000000000000
      0.1873113696D+02  0.3349460434D-01
      0.2825394365D+01  0.2347269535D+00
      0.6401216923D+00  0.8137573261D+00
 S   1 1.00       0.000000000000
      0.1612777588D+00  0.1000000000D+01
 ****
      5 0
 S   3 1.00       0.000000000000
      0.1873113696D+02  0.3349460434D-01
      0.2825394365D+01  0.2347269535D+00
      0.6401216923D+00  0.8137573261D+00
 S   1 1.00       0.000000000000
      0.1612777588D+00  0.1000000000D+01
 ****
      6 0
 S   6 1.00       0.000000000000
      0.3047524880D+04  0.1834737132D-02
      0.4573695180D+03  0.1403732281D-01
      0.1039486850D+03  0.6884262226D-01
      0.2921015530D+02  0.2321844432D+00
      0.9286662960D+01  0.4679413484D+00
      0.3163926960D+01  0.3623119853D+00
 SP   3 1.00       0.000000000000
      0.7868272350D+01 -0.1193324198D+00  0.6899906659D-01
      0.1881288540D+01 -0.1608541517D+00  0.3164239610D+00
      0.5442492580D+00  0.1143456438D+01  0.7443082909D+00
 SP   1 1.00       0.000000000000
      0.1687144782D+00  0.1000000000D+01  0.1000000000D+01
 D   1 1.00       0.000000000000
      0.8000000000D+00  0.1000000000D+01
 ****
      7 0
 S   6 1.00       0.000000000000
      0.3047524880D+04  0.1834737132D-02
      0.4573695180D+03  0.1403732281D-01
      0.1039486850D+03  0.6884262226D-01
      0.2921015530D+02  0.2321844432D+00
      0.9286662960D+01  0.4679413484D+00
      0.3163926960D+01  0.3623119853D+00
 SP   3 1.00       0.000000000000
      0.7868272350D+01 -0.1193324198D+00  0.6899906659D-01
      0.1881288540D+01 -0.1608541517D+00  0.3164239610D+00
      0.5442492580D+00  0.1143456438D+01  0.7443082909D+00
 SP   1 1.00       0.000000000000
      0.1687144782D+00  0.1000000000D+01  0.1000000000D+01
 D   1 1.00       0.000000000000
      0.8000000000D+00  0.1000000000D+01
 ****
      8 0
 S   6 1.00       0.000000000000
      0.3047524880D+04  0.1834737132D-02
      0.4573695180D+03  0.1403732281D-01
      0.1039486850D+03  0.6884262226D-01
      0.2921015530D+02  0.2321844432D+00
      0.9286662960D+01  0.4679413484D+00
      0.3163926960D+01  0.3623119853D+00
 SP   3 1.00       0.000000000000
      0.7868272350D+01 -0.1193324198D+00  0.6899906659D-01
      0.1881288540D+01 -0.1608541517D+00  0.3164239610D+00
      0.5442492580D+00  0.1143456438D+01  0.7443082909D+00
 SP   1 1.00       0.000000000000
      0.1687144782D+00  0.1000000000D+01  0.1000000000D+01
 D   1 1.00       0.000000000000
      0.8000000000D+00  0.1000000000D+01
 ****
      9 0
 S   3 1.00       0.000000000000
      0.1873113696D+02  0.3349460434D-01
      0.2825394365D+01  0.2347269535D+00
      0.6401216923D+00  0.8137573261D+00
 S   1 1.00       0.000000000000
      0.1612777588D+00  0.1000000000D+01
 ****
     10 0
 S   3 1.00       0.000000000000
      0.1873113696D+02  0.3349460434D-01
      0.2825394365D+01  0.2347269535D+00
      0.6401216923D+00  0.8137573261D+00
 S   1 1.00       0.000000000000
      0.1612777588D+00  0.1000000000D+01
 ****
     11 0
 S   6 1.00       0.000000000000
      0.3047524880D+04  0.1834737132D-02
      0.4573695180D+03  0.1403732281D-01
      0.1039486850D+03  0.6884262226D-01
      0.2921015530D+02  0.2321844432D+00
      0.9286662960D+01  0.4679413484D+00
      0.3163926960D+01  0.3623119853D+00
 SP   3 1.00       0.000000000000
      0.7868272350D+01 -0.1193324198D+00  0.6899906659D-01
      0.1881288540D+01 -0.1608541517D+00  0.3164239610D+00
      0.5442492580D+00  0.1143456438D+01  0.7443082909D+00
 SP   1 1.00       0.000000000000
      0.1687144782D+00  0.1000000000D+01  0.1000000000D+01
 D   1 1.00       0.000000000000
      0.8000000000D+00  0.1000000000D+01
 ****
     12 0
 S   3 1.00       0.000000000000
      0.1873113696D+02  0.3349460434D-01
      0.2825394365D+01  0.2347269535D+00
      0.6401216923D+00  0.8137573261D+00
 S   1 1.00       0.000000000000
      0.1612777588D+00  0.1000000000D+01
 ****
     13 0
 S   3 1.00       0.000000000000
      0.1873113696D+02  0.3349460434D-01
      0.2825394365D+01  0.2347269535D+00
      0.6401216923D+00  0.8137573261D+00
 S   1 1.00       0.000000000000
      0.1612777588D+00  0.1000000000D+01
 ****
     14 0
 S   6 1.00       0.000000000000
      0.3047524880D+04  0.1834737132D-02
      0.4573695180D+03  0.1403732281D-01
      0.1039486850D+03  0.6884262226D-01
      0.2921015530D+02  0.2321844432D+00
      0.9286662960D+01  0.4679413484D+00
      0.3163926960D+01  0.3623119853D+00
 SP   3 1.00       0.000000000000
      0.7868272350D+01 -0.1193324198D+00  0.6899906659D-01
      0.1881288540D+01 -0.1608541517D+00  0.3164239610D+00
      0.5442492580D+00  0.1143456438D+01  0.7443082909D+00
 SP   1 1.00       0.000000000000
      0.1687144782D+00  0.1000000000D+01  0.1000000000D+01
 D   1 1.00       0.000000000000
      0.8000000000D+00  0.1000000000D+01
 ****
     15 0
 S   3 1.00       0.000000000000
      0.1873113696D+02  0.3349460434D-01
      0.2825394365D+01  0.2347269535D+00
      0.6401216923D+00  0.8137573261D+00
 S   1 1.00       0.000000000000
      0.1612777588D+00  0.1000000000D+01
 ****
     16 0
 S   6 1.00       0.000000000000
      0.3047524880D+04  0.1834737132D-02
      0.4573695180D+03  0.1403732281D-01
      0.1039486850D+03  0.6884262226D-01
      0.2921015530D+02  0.2321844432D+00
      0.9286662960D+01  0.4679413484D+00
      0.3163926960D+01  0.3623119853D+00
 SP   3 1.00       0.000000000000
      0.7868272350D+01 -0.1193324198D+00  0.6899906659D-01
      0.1881288540D+01 -0.1608541517D+00  0.3164239610D+00
      0.5442492580D+00  0.1143456438D+01  0.7443082909D+00
 SP   1 1.00       0.000000000000
      0.1687144782D+00  0.1000000000D+01  0.1000000000D+01
 D   1 1.00       0.000000000000
      0.8000000000D+00  0.1000000000D+01
 ****
     17 0
 S   3 1.00       0.000000000000
      0.1873113696D+02  0.3349460434D-01
      0.2825394365D+01  0.2347269535D+00
      0.6401216923D+00  0.8137573261D+00
 S   1 1.00       0.000000000000
      0.1612777588D+00  0.1000000000D+01
 ****
     18 0
 S   6 1.00       0.000000000000
      0.3047524880D+04  0.1834737132D-02
      0.4573695180D+03  0.1403732281D-01
      0.1039486850D+03  0.6884262226D-01
      0.2921015530D+02  0.2321844432D+00
      0.9286662960D+01  0.4679413484D+00
      0.3163926960D+01  0.3623119853D+00
 SP   3 1.00       0.000000000000
      0.7868272350D+01 -0.1193324198D+00  0.6899906659D-01
      0.1881288540D+01 -0.1608541517D+00  0.3164239610D+00
      0.5442492580D+00  0.1143456438D+01  0.7443082909D+00
 SP   1 1.00       0.000000000000
      0.1687144782D+00  0.1000000000D+01  0.1000000000D+01
 D   1 1.00       0.000000000000
      0.8000000000D+00  0.1000000000D+01
 ****
     19 0
 S   3 1.00       0.000000000000
      0.1873113696D+02  0.3349460434D-01
      0.2825394365D+01  0.2347269535D+00
      0.6401216923D+00  0.8137573261D+00
 S   1 1.00       0.000000000000
      0.1612777588D+00  0.1000000000D+01
 ****
     20 0
 S   6 1.00       0.000000000000
      0.3047524880D+04  0.1834737132D-02
      0.4573695180D+03  0.1403732281D-01
      0.1039486850D+03  0.6884262226D-01
      0.2921015530D+02  0.2321844432D+00
      0.9286662960D+01  0.4679413484D+00
      0.3163926960D+01  0.3623119853D+00
 SP   3 1.00       0.000000000000
      0.7868272350D+01 -0.1193324198D+00  0.6899906659D-01
      0.1881288540D+01 -0.1608541517D+00  0.3164239610D+00
      0.5442492580D+00  0.1143456438D+01  0.7443082909D+00
 SP   1 1.00       0.000000000000
      0.1687144782D+00  0.1000000000D+01  0.1000000000D+01
 D   1 1.00       0.000000000000
      0.8000000000D+00  0.1000000000D+01
 ****
     21 0
 S   3 1.00       0.000000000000
      0.1873113696D+02  0.3349460434D-01
      0.2825394365D+01  0.2347269535D+00
      0.6401216923D+00  0.8137573261D+00
 S   1 1.00       0.000000000000
      0.1612777588D+00  0.1000000000D+01
 ****
     22 0
 S   6 1.00       0.000000000000
      0.3047524880D+04  0.1834737132D-02
      0.4573695180D+03  0.1403732281D-01
      0.1039486850D+03  0.6884262226D-01
      0.2921015530D+02  0.2321844432D+00
      0.9286662960D+01  0.4679413484D+00
      0.3163926960D+01  0.3623119853D+00
 SP   3 1.00       0.000000000000
      0.7868272350D+01 -0.1193324198D+00  0.6899906659D-01
      0.1881288540D+01 -0.1608541517D+00  0.3164239610D+00
      0.5442492580D+00  0.1143456438D+01  0.7443082909D+00
 SP   1 1.00       0.000000000000
      0.1687144782D+00  0.1000000000D+01  0.1000000000D+01
 D   1 1.00       0.000000000000
      0.8000000000D+00  0.1000000000D+01
 ****
     23 0
 S   3 1.00       0.000000000000
      0.1873113696D+02  0.3349460434D-01
      0.2825394365D+01  0.2347269535D+00
      0.6401216923D+00  0.8137573261D+00
 S   1 1.00       0.000000000000
      0.1612777588D+00  0.1000000000D+01
 ****
     24 0
 S   3 1.00       0.000000000000
      0.1873113696D+02  0.3349460434D-01
      0.2825394365D+01  0.2347269535D+00
      0.6401216923D+00  0.8137573261D+00
 S   1 1.00       0.000000000000
      0.1612777588D+00  0.1000000000D+01
 ****
     25 0
 S   6 1.00       0.000000000000
      0.3047524880D+04  0.1834737132D-02
      0.4573695180D+03  0.1403732281D-01
      0.1039486850D+03  0.6884262226D-01
      0.2921015530D+02  0.2321844432D+00
      0.9286662960D+01  0.4679413484D+00
      0.3163926960D+01  0.3623119853D+00
 SP   3 1.00       0.000000000000
      0.7868272350D+01 -0.1193324198D+00  0.6899906659D-01
      0.1881288540D+01 -0.1608541517D+00  0.3164239610D+00
      0.5442492580D+00  0.1143456438D+01  0.7443082909D+00
 SP   1 1.00       0.000000000000
      0.1687144782D+00  0.1000000000D+01  0.1000000000D+01
 D   1 1.00       0.000000000000
      0.8000000000D+00  0.1000000000D+01
 ****
     26 0
 S   3 1.00       0.000000000000
      0.1873113696D+02  0.3349460434D-01
      0.2825394365D+01  0.2347269535D+00
      0.6401216923D+00  0.8137573261D+00
 S   1 1.00       0.000000000000
      0.1612777588D+00  0.1000000000D+01
 ****
     27 0
 S   3 1.00       0.000000000000
      0.1873113696D+02  0.3349460434D-01
      0.2825394365D+01  0.2347269535D+00
      0.6401216923D+00  0.8137573261D+00
 S   1 1.00       0.000000000000
      0.1612777588D+00  0.1000000000D+01
 ****
     28 0
 S   6 1.00       0.000000000000
      0.3047524880D+04  0.1834737132D-02
      0.4573695180D+03  0.1403732281D-01
      0.1039486850D+03  0.6884262226D-01
      0.2921015530D+02  0.2321844432D+00
      0.9286662960D+01  0.4679413484D+00
      0.3163926960D+01  0.3623119853D+00
 SP   3 1.00       0.000000000000
      0.7868272350D+01 -0.1193324198D+00  0.6899906659D-01
      0.1881288540D+01 -0.1608541517D+00  0.3164239610D+00
      0.5442492580D+00  0.1143456438D+01  0.7443082909D+00
 SP   1 1.00       0.000000000000
      0.1687144782D+00  0.1000000000D+01  0.1000000000D+01
 D   1 1.00       0.000000000000
      0.8000000000D+00  0.1000000000D+01
 ****
     29 0
 S   6 1.00       0.000000000000
      0.3047524880D+04  0.1834737132D-02
      0.4573695180D+03  0.1403732281D-01
      0.1039486850D+03  0.6884262226D-01
      0.2921015530D+02  0.2321844432D+00
      0.9286662960D+01  0.4679413484D+00
      0.3163926960D+01  0.3623119853D+00
 SP   3 1.00       0.000000000000
      0.7868272350D+01 -0.1193324198D+00  0.6899906659D-01
      0.1881288540D+01 -0.1608541517D+00  0.3164239610D+00
      0.5442492580D+00  0.1143456438D+01  0.7443082909D+00
 SP   1 1.00       0.000000000000
      0.1687144782D+00  0.1000000000D+01  0.1000000000D+01
 D   1 1.00       0.000000000000
      0.8000000000D+00  0.1000000000D+01
 ****
     30 0
 S   3 1.00       0.000000000000
      0.1873113696D+02  0.3349460434D-01
      0.2825394365D+01  0.2347269535D+00
      0.6401216923D+00  0.8137573261D+00
 S   1 1.00       0.000000000000
      0.1612777588D+00  0.1000000000D+01
 ****
     31 0
 S   6 1.00       0.000000000000
      0.3047524880D+04  0.1834737132D-02
      0.4573695180D+03  0.1403732281D-01
      0.1039486850D+03  0.6884262226D-01
      0.2921015530D+02  0.2321844432D+00
      0.9286662960D+01  0.4679413484D+00
      0.3163926960D+01  0.3623119853D+00
 SP   3 1.00       0.000000000000
      0.7868272350D+01 -0.1193324198D+00  0.6899906659D-01
      0.1881288540D+01 -0.1608541517D+00  0.3164239610D+00
      0.5442492580D+00  0.1143456438D+01  0.7443082909D+00
 SP   1 1.00       0.000000000000
      0.1687144782D+00  0.1000000000D+01  0.1000000000D+01
 D   1 1.00       0.000000000000
      0.8000000000D+00  0.1000000000D+01
 ****
     32 0
 S   3 1.00       0.000000000000
      0.1873113696D+02  0.3349460434D-01
      0.2825394365D+01  0.2347269535D+00
      0.6401216923D+00  0.8137573261D+00
 S   1 1.00       0.000000000000
      0.1612777588D+00  0.1000000000D+01
 ****
     33 0
 S   3 1.00       0.000000000000
      0.1873113696D+02  0.3349460434D-01
      0.2825394365D+01  0.2347269535D+00
      0.6401216923D+00  0.8137573261D+00
 S   1 1.00       0.000000000000
      0.1612777588D+00  0.1000000000D+01
 ****
     34 0
 S   6 1.00       0.000000000000
      0.3047524880D+04  0.1834737132D-02
      0.4573695180D+03  0.1403732281D-01
      0.1039486850D+03  0.6884262226D-01
      0.2921015530D+02  0.2321844432D+00
      0.9286662960D+01  0.4679413484D+00
      0.3163926960D+01  0.3623119853D+00
 SP   3 1.00       0.000000000000
      0.7868272350D+01 -0.1193324198D+00  0.6899906659D-01
      0.1881288540D+01 -0.1608541517D+00  0.3164239610D+00
      0.5442492580D+00  0.1143456438D+01  0.7443082909D+00
 SP   1 1.00       0.000000000000
      0.1687144782D+00  0.1000000000D+01  0.1000000000D+01
 D   1 1.00       0.000000000000
      0.8000000000D+00  0.1000000000D+01
 ****
     35 0
 S   3 1.00       0.000000000000
      0.1873113696D+02  0.3349460434D-01
      0.2825394365D+01  0.2347269535D+00
      0.6401216923D+00  0.8137573261D+00
 S   1 1.00       0.000000000000
      0.1612777588D+00  0.1000000000D+01
 ****
     36 0
 S   3 1.00       0.000000000000
      0.1873113696D+02  0.3349460434D-01
      0.2825394365D+01  0.2347269535D+00
      0.6401216923D+00  0.8137573261D+00
 S   1 1.00       0.000000000000
      0.1612777588D+00  0.1000000000D+01
 ****
     37 0
 S   6 1.00       0.000000000000
      0.3047524880D+04  0.1834737132D-02
      0.4573695180D+03  0.1403732281D-01
      0.1039486850D+03  0.6884262226D-01
      0.2921015530D+02  0.2321844432D+00
      0.9286662960D+01  0.4679413484D+00
      0.3163926960D+01  0.3623119853D+00
 SP   3 1.00       0.000000000000
      0.7868272350D+01 -0.1193324198D+00  0.6899906659D-01
      0.1881288540D+01 -0.1608541517D+00  0.3164239610D+00
      0.5442492580D+00  0.1143456438D+01  0.7443082909D+00
 SP   1 1.00       0.000000000000
      0.1687144782D+00  0.1000000000D+01  0.1000000000D+01
 D   1 1.00       0.000000000000
      0.8000000000D+00  0.1000000000D+01
 ****
     38 0
 S   3 1.00       0.000000000000
      0.1873113696D+02  0.3349460434D-01
      0.2825394365D+01  0.2347269535D+00
      0.6401216923D+00  0.8137573261D+00
 S   1 1.00       0.000000000000
      0.1612777588D+00  0.1000000000D+01
 ****
     39 0
 S   6 1.00       0.000000000000
      0.3047524880D+04  0.1834737132D-02
      0.4573695180D+03  0.1403732281D-01
      0.1039486850D+03  0.6884262226D-01
      0.2921015530D+02  0.2321844432D+00
      0.9286662960D+01  0.4679413484D+00
      0.3163926960D+01  0.3623119853D+00
 SP   3 1.00       0.000000000000
      0.7868272350D+01 -0.1193324198D+00  0.6899906659D-01
      0.1881288540D+01 -0.1608541517D+00  0.3164239610D+00
      0.5442492580D+00  0.1143456438D+01  0.7443082909D+00
 SP   1 1.00       0.000000000000
      0.1687144782D+00  0.1000000000D+01  0.1000000000D+01
 D   1 1.00       0.000000000000
      0.8000000000D+00  0.1000000000D+01
 ****
     40 0
 S   3 1.00       0.000000000000
      0.1873113696D+02  0.3349460434D-01
      0.2825394365D+01  0.2347269535D+00
      0.6401216923D+00  0.8137573261D+00
 S   1 1.00       0.000000000000
      0.1612777588D+00  0.1000000000D+01
 ****
     41 0
 S   3 1.00       0.000000000000
      0.1873113696D+02  0.3349460434D-01
      0.2825394365D+01  0.2347269535D+00
      0.6401216923D+00  0.8137573261D+00
 S   1 1.00       0.000000000000
      0.1612777588D+00  0.1000000000D+01
 ****
     42 0
 S   3 1.00       0.000000000000
      0.1873113696D+02  0.3349460434D-01
      0.2825394365D+01  0.2347269535D+00
      0.6401216923D+00  0.8137573261D+00
 S   1 1.00       0.000000000000
      0.1612777588D+00  0.1000000000D+01
 ****
     43 0
 S   6 1.00       0.000000000000
      0.3047524880D+04  0.1834737132D-02
      0.4573695180D+03  0.1403732281D-01
      0.1039486850D+03  0.6884262226D-01
      0.2921015530D+02  0.2321844432D+00
      0.9286662960D+01  0.4679413484D+00
      0.3163926960D+01  0.3623119853D+00
 SP   3 1.00       0.000000000000
      0.7868272350D+01 -0.1193324198D+00  0.6899906659D-01
      0.1881288540D+01 -0.1608541517D+00  0.3164239610D+00
      0.5442492580D+00  0.1143456438D+01  0.7443082909D+00
 SP   1 1.00       0.000000000000
      0.1687144782D+00  0.1000000000D+01  0.1000000000D+01
 D   1 1.00       0.000000000000
      0.8000000000D+00  0.1000000000D+01
 ****
     44 0
 S   3 1.00       0.000000000000
      0.1873113696D+02  0.3349460434D-01
      0.2825394365D+01  0.2347269535D+00
      0.6401216923D+00  0.8137573261D+00
 S   1 1.00       0.000000000000
      0.1612777588D+00  0.1000000000D+01
 ****
     45 0
 S   6 1.00       0.000000000000
      0.3047524880D+04  0.1834737132D-02
      0.4573695180D+03  0.1403732281D-01
      0.1039486850D+03  0.6884262226D-01
      0.2921015530D+02  0.2321844432D+00
      0.9286662960D+01  0.4679413484D+00
      0.3163926960D+01  0.3623119853D+00
 SP   3 1.00       0.000000000000
      0.7868272350D+01 -0.1193324198D+00  0.6899906659D-01
      0.1881288540D+01 -0.1608541517D+00  0.3164239610D+00
      0.5442492580D+00  0.1143456438D+01  0.7443082909D+00
 SP   1 1.00       0.000000000000
      0.1687144782D+00  0.1000000000D+01  0.1000000000D+01
 D   1 1.00       0.000000000000
      0.8000000000D+00  0.1000000000D+01
 ****
     46 0
 S   3 1.00       0.000000000000
      0.1873113696D+02  0.3349460434D-01
      0.2825394365D+01  0.2347269535D+00
      0.6401216923D+00  0.8137573261D+00
 S   1 1.00       0.000000000000
      0.1612777588D+00  0.1000000000D+01
 ****
     47 0
 S   3 1.00       0.000000000000
      0.1873113696D+02  0.3349460434D-01
      0.2825394365D+01  0.2347269535D+00
      0.6401216923D+00  0.8137573261D+00
 S   1 1.00       0.000000000000
      0.1612777588D+00  0.1000000000D+01
 ****
     48 0
 S   3 1.00       0.000000000000
      0.1873113696D+02  0.3349460434D-01
      0.2825394365D+01  0.2347269535D+00
      0.6401216923D+00  0.8137573261D+00
 S   1 1.00       0.000000000000
      0.1612777588D+00  0.1000000000D+01
 ****
     49 0
 S   6 1.00       0.000000000000
      0.3047524880D+04  0.1834737132D-02
      0.4573695180D+03  0.1403732281D-01
      0.1039486850D+03  0.6884262226D-01
      0.2921015530D+02  0.2321844432D+00
      0.9286662960D+01  0.4679413484D+00
      0.3163926960D+01  0.3623119853D+00
 SP   3 1.00       0.000000000000
      0.7868272350D+01 -0.1193324198D+00  0.6899906659D-01
      0.1881288540D+01 -0.1608541517D+00  0.3164239610D+00
      0.5442492580D+00  0.1143456438D+01  0.7443082909D+00
 SP   1 1.00       0.000000000000
      0.1687144782D+00  0.1000000000D+01  0.1000000000D+01
 D   1 1.00       0.000000000000
      0.8000000000D+00  0.1000000000D+01
 ****
     50 0
 S   3 1.00       0.000000000000
      0.1873113696D+02  0.3349460434D-01
      0.2825394365D+01  0.2347269535D+00
      0.6401216923D+00  0.8137573261D+00
 S   1 1.00       0.000000000000
      0.1612777588D+00  0.1000000000D+01
 ****
     51 0
 S   3 1.00       0.000000000000
      0.1873113696D+02  0.3349460434D-01
      0.2825394365D+01  0.2347269535D+00
      0.6401216923D+00  0.8137573261D+00
 S   1 1.00       0.000000000000
      0.1612777588D+00  0.1000000000D+01
 ****
     52 0
 S   3 1.00       0.000000000000
      0.1873113696D+02  0.3349460434D-01
      0.2825394365D+01  0.2347269535D+00
      0.6401216923D+00  0.8137573261D+00
 S   1 1.00       0.000000000000
      0.1612777588D+00  0.1000000000D+01
 ****
     53 0
 S   6 1.00       0.000000000000
      0.5484671660D+04  0.1831074430D-02
      0.8252349460D+03  0.1395017220D-01
      0.1880469580D+03  0.6844507810D-01
      0.5296450000D+02  0.2327143360D+00
      0.1689757040D+02  0.4701928980D+00
      0.5799635340D+01  0.3585208530D+00
 SP   3 1.00       0.000000000000
      0.1553961625D+02 -0.1107775495D+00  0.7087426823D-01
      0.3599933586D+01 -0.1480262627D+00  0.3397528391D+00
      0.1013761750D+01  0.1130767015D+01  0.7271585773D+00
 SP   1 1.00       0.000000000000
      0.2700058226D+00  0.1000000000D+01  0.1000000000D+01
 D   1 1.00       0.000000000000
      0.8000000000D+00  0.1000000000D+01
 ****
     54 0
 S   6 1.00       0.000000000000
      0.5484671660D+04  0.1831074430D-02
      0.8252349460D+03  0.1395017220D-01
      0.1880469580D+03  0.6844507810D-01
      0.5296450000D+02  0.2327143360D+00
      0.1689757040D+02  0.4701928980D+00
      0.5799635340D+01  0.3585208530D+00
 SP   3 1.00       0.000000000000
      0.1553961625D+02 -0.1107775495D+00  0.7087426823D-01
      0.3599933586D+01 -0.1480262627D+00  0.3397528391D+00
      0.1013761750D+01  0.1130767015D+01  0.7271585773D+00
 SP   1 1.00       0.000000000000
      0.2700058226D+00  0.1000000000D+01  0.1000000000D+01
 D   1 1.00       0.000000000000
      0.8000000000D+00  0.1000000000D+01
 ****
     55 0
 S   3 1.00       0.000000000000
      0.1873113696D+02  0.3349460434D-01
      0.2825394365D+01  0.2347269535D+00
      0.6401216923D+00  0.8137573261D+00
 S   1 1.00       0.000000000000
      0.1612777588D+00  0.1000000000D+01
 ****
     56 0
 S   6 1.00       0.000000000000
      0.5484671660D+04  0.1831074430D-02
      0.8252349460D+03  0.1395017220D-01
      0.1880469580D+03  0.6844507810D-01
      0.5296450000D+02  0.2327143360D+00
      0.1689757040D+02  0.4701928980D+00
      0.5799635340D+01  0.3585208530D+00
 SP   3 1.00       0.000000000000
      0.1553961625D+02 -0.1107775495D+00  0.7087426823D-01
      0.3599933586D+01 -0.1480262627D+00  0.3397528391D+00
      0.1013761750D+01  0.1130767015D+01  0.7271585773D+00
 SP   1 1.00       0.000000000000
      0.2700058226D+00  0.1000000000D+01  0.1000000000D+01
 D   1 1.00       0.000000000000
      0.8000000000D+00  0.1000000000D+01
 ****
     57 0
 S   3 1.00       0.000000000000
      0.1873113696D+02  0.3349460434D-01
      0.2825394365D+01  0.2347269535D+00
      0.6401216923D+00  0.8137573261D+00
 S   1 1.00       0.000000000000
      0.1612777588D+00  0.1000000000D+01
 ****
     58 0
 S   6 1.00       0.000000000000
      0.3047524880D+04  0.1834737132D-02
      0.4573695180D+03  0.1403732281D-01
      0.1039486850D+03  0.6884262226D-01
      0.2921015530D+02  0.2321844432D+00
      0.9286662960D+01  0.4679413484D+00
      0.3163926960D+01  0.3623119853D+00
 SP   3 1.00       0.000000000000
      0.7868272350D+01 -0.1193324198D+00  0.6899906659D-01
      0.1881288540D+01 -0.1608541517D+00  0.3164239610D+00
      0.5442492580D+00  0.1143456438D+01  0.7443082909D+00
 SP   1 1.00       0.000000000000
      0.1687144782D+00  0.1000000000D+01  0.1000000000D+01
 D   1 1.00       0.000000000000
      0.8000000000D+00  0.1000000000D+01
 ****
     59 0
 S   3 1.00       0.000000000000
      0.1873113696D+02  0.3349460434D-01
      0.2825394365D+01  0.2347269535D+00
      0.6401216923D+00  0.8137573261D+00
 S   1 1.00       0.000000000000
      0.1612777588D+00  0.1000000000D+01
 ****
     60 0
 S   3 1.00       0.000000000000
      0.1873113696D+02  0.3349460434D-01
      0.2825394365D+01  0.2347269535D+00
      0.6401216923D+00  0.8137573261D+00
 S   1 1.00       0.000000000000
      0.1612777588D+00  0.1000000000D+01
 ****
     61 0
 S   6 1.00       0.000000000000
      0.3047524880D+04  0.1834737132D-02
      0.4573695180D+03  0.1403732281D-01
      0.1039486850D+03  0.6884262226D-01
      0.2921015530D+02  0.2321844432D+00
      0.9286662960D+01  0.4679413484D+00
      0.3163926960D+01  0.3623119853D+00
 SP   3 1.00       0.000000000000
      0.7868272350D+01 -0.1193324198D+00  0.6899906659D-01
      0.1881288540D+01 -0.1608541517D+00  0.3164239610D+00
      0.5442492580D+00  0.1143456438D+01  0.7443082909D+00
 SP   1 1.00       0.000000000000
      0.1687144782D+00  0.1000000000D+01  0.1000000000D+01
 D   1 1.00       0.000000000000
      0.8000000000D+00  0.1000000000D+01
 ****
     62 0
 S   3 1.00       0.000000000000
      0.1873113696D+02  0.3349460434D-01
      0.2825394365D+01  0.2347269535D+00
      0.6401216923D+00  0.8137573261D+00
 S   1 1.00       0.000000000000
      0.1612777588D+00  0.1000000000D+01
 ****
     63 0
 S   3 1.00       0.000000000000
      0.1873113696D+02  0.3349460434D-01
      0.2825394365D+01  0.2347269535D+00
      0.6401216923D+00  0.8137573261D+00
 S   1 1.00       0.000000000000
      0.1612777588D+00  0.1000000000D+01
 ****
     64 0
 S   6 1.00       0.000000000000
      0.3047524880D+04  0.1834737132D-02
      0.4573695180D+03  0.1403732281D-01
      0.1039486850D+03  0.6884262226D-01
      0.2921015530D+02  0.2321844432D+00
      0.9286662960D+01  0.4679413484D+00
      0.3163926960D+01  0.3623119853D+00
 SP   3 1.00       0.000000000000
      0.7868272350D+01 -0.1193324198D+00  0.6899906659D-01
      0.1881288540D+01 -0.1608541517D+00  0.3164239610D+00
      0.5442492580D+00  0.1143456438D+01  0.7443082909D+00
 SP   1 1.00       0.000000000000
      0.1687144782D+00  0.1000000000D+01  0.1000000000D+01
 D   1 1.00       0.000000000000
      0.8000000000D+00  0.1000000000D+01
 ****
     65 0
 S   3 1.00       0.000000000000
      0.1873113696D+02  0.3349460434D-01
      0.2825394365D+01  0.2347269535D+00
      0.6401216923D+00  0.8137573261D+00
 S   1 1.00       0.000000000000
      0.1612777588D+00  0.1000000000D+01
 ****
     66 0
 S   3 1.00       0.000000000000
      0.1873113696D+02  0.3349460434D-01
      0.2825394365D+01  0.2347269535D+00
      0.6401216923D+00  0.8137573261D+00
 S   1 1.00       0.000000000000
      0.1612777588D+00  0.1000000000D+01
 ****
     67 0
 S   6 1.00       0.000000000000
      0.3047524880D+04  0.1834737132D-02
      0.4573695180D+03  0.1403732281D-01
      0.1039486850D+03  0.6884262226D-01
      0.2921015530D+02  0.2321844432D+00
      0.9286662960D+01  0.4679413484D+00
      0.3163926960D+01  0.3623119853D+00
 SP   3 1.00       0.000000000000
      0.7868272350D+01 -0.1193324198D+00  0.6899906659D-01
      0.1881288540D+01 -0.1608541517D+00  0.3164239610D+00
      0.5442492580D+00  0.1143456438D+01  0.7443082909D+00
 SP   1 1.00       0.000000000000
      0.1687144782D+00  0.1000000000D+01  0.1000000000D+01
 D   1 1.00       0.000000000000
      0.8000000000D+00  0.1000000000D+01
 ****
     68 0
 S   3 1.00       0.000000000000
      0.1873113696D+02  0.3349460434D-01
      0.2825394365D+01  0.2347269535D+00
      0.6401216923D+00  0.8137573261D+00
 S   1 1.00       0.000000000000
      0.1612777588D+00  0.1000000000D+01
 ****
     69 0
 S   6 1.00       0.000000000000
      0.3047524880D+04  0.1834737132D-02
      0.4573695180D+03  0.1403732281D-01
      0.1039486850D+03  0.6884262226D-01
      0.2921015530D+02  0.2321844432D+00
      0.9286662960D+01  0.4679413484D+00
      0.3163926960D+01  0.3623119853D+00
 SP   3 1.00       0.000000000000
      0.7868272350D+01 -0.1193324198D+00  0.6899906659D-01
      0.1881288540D+01 -0.1608541517D+00  0.3164239610D+00
      0.5442492580D+00  0.1143456438D+01  0.7443082909D+00
 SP   1 1.00       0.000000000000
      0.1687144782D+00  0.1000000000D+01  0.1000000000D+01
 D   1 1.00       0.000000000000
      0.8000000000D+00  0.1000000000D+01
 ****
     70 0
 S   3 1.00       0.000000000000
      0.1873113696D+02  0.3349460434D-01
      0.2825394365D+01  0.2347269535D+00
      0.6401216923D+00  0.8137573261D+00
 S   1 1.00       0.000000000000
      0.1612777588D+00  0.1000000000D+01
 ****
     71 0
 S   3 1.00       0.000000000000
      0.1873113696D+02  0.3349460434D-01
      0.2825394365D+01  0.2347269535D+00
      0.6401216923D+00  0.8137573261D+00
 S   1 1.00       0.000000000000
      0.1612777588D+00  0.1000000000D+01
 ****
     72 0
 S   3 1.00       0.000000000000
      0.1873113696D+02  0.3349460434D-01
      0.2825394365D+01  0.2347269535D+00
      0.6401216923D+00  0.8137573261D+00
 S   1 1.00       0.000000000000
      0.1612777588D+00  0.1000000000D+01
 ****
     73 0
 S   6 1.00       0.000000000000
      0.3047524880D+04  0.1834737132D-02
      0.4573695180D+03  0.1403732281D-01
      0.1039486850D+03  0.6884262226D-01
      0.2921015530D+02  0.2321844432D+00
      0.9286662960D+01  0.4679413484D+00
      0.3163926960D+01  0.3623119853D+00
 SP   3 1.00       0.000000000000
      0.7868272350D+01 -0.1193324198D+00  0.6899906659D-01
      0.1881288540D+01 -0.1608541517D+00  0.3164239610D+00
      0.5442492580D+00  0.1143456438D+01  0.7443082909D+00
 SP   1 1.00       0.000000000000
      0.1687144782D+00  0.1000000000D+01  0.1000000000D+01
 D   1 1.00       0.000000000000
      0.8000000000D+00  0.1000000000D+01
 ****
     74 0
 S   3 1.00       0.000000000000
      0.1873113696D+02  0.3349460434D-01
      0.2825394365D+01  0.2347269535D+00
      0.6401216923D+00  0.8137573261D+00
 S   1 1.00       0.000000000000
      0.1612777588D+00  0.1000000000D+01
 ****
     75 0
 S   3 1.00       0.000000000000
      0.1873113696D+02  0.3349460434D-01
      0.2825394365D+01  0.2347269535D+00
      0.6401216923D+00  0.8137573261D+00
 S   1 1.00       0.000000000000
      0.1612777588D+00  0.1000000000D+01
 ****
     76 0
 S   3 1.00       0.000000000000
      0.1873113696D+02  0.3349460434D-01
      0.2825394365D+01  0.2347269535D+00
      0.6401216923D+00  0.8137573261D+00
 S   1 1.00       0.000000000000
      0.1612777588D+00  0.1000000000D+01
 ****

 AO basis set (Overlap normalization):
 Atom C1       Shell     1 S   6     bf    1 -     1          1.883394586580         -1.700455264122         -3.192880745000
      0.3047524880D+04  0.1834737132D-02
      0.4573695180D+03  0.1403732281D-01
      0.1039486850D+03  0.6884262226D-01
      0.2921015530D+02  0.2321844432D+00
      0.9286662960D+01  0.4679413484D+00
      0.3163926960D+01  0.3623119853D+00
 Atom C1       Shell     2 SP   3    bf    2 -     5          1.883394586580         -1.700455264122         -3.192880745000
      0.7868272350D+01 -0.1193324198D+00  0.6899906659D-01
      0.1881288540D+01 -0.1608541517D+00  0.3164239610D+00
      0.5442492580D+00  0.1143456438D+01  0.7443082909D+00
 Atom C1       Shell     3 SP   1    bf    6 -     9          1.883394586580         -1.700455264122         -3.192880745000
      0.1687144782D+00  0.1000000000D+01  0.1000000000D+01
 Atom C1       Shell     4 D   1     bf   10 -    15          1.883394586580         -1.700455264122         -3.192880745000
      0.8000000000D+00  0.1000000000D+01
 Atom H2       Shell     5 S   3     bf   16 -    16          2.177164683774          0.126614598876         -4.126863543158
      0.1873113696D+02  0.3349460434D-01
      0.2825394365D+01  0.2347269535D+00
      0.6401216923D+00  0.8137573261D+00
 Atom H2       Shell     6 S   1     bf   17 -    17          2.177164683774          0.126614598876         -4.126863543158
      0.1612777588D+00  0.1000000000D+01
 Atom C3       Shell     7 S   6     bf   18 -    18          4.172428770852         -3.405159653042         -3.710321888638
      0.3047524880D+04  0.1834737132D-02
      0.4573695180D+03  0.1403732281D-01
      0.1039486850D+03  0.6884262226D-01
      0.2921015530D+02  0.2321844432D+00
      0.9286662960D+01  0.4679413484D+00
      0.3163926960D+01  0.3623119853D+00
 Atom C3       Shell     8 SP   3    bf   19 -    22          4.172428770852         -3.405159653042         -3.710321888638
      0.7868272350D+01 -0.1193324198D+00  0.6899906659D-01
      0.1881288540D+01 -0.1608541517D+00  0.3164239610D+00
      0.5442492580D+00  0.1143456438D+01  0.7443082909D+00
 Atom C3       Shell     9 SP   1    bf   23 -    26          4.172428770852         -3.405159653042         -3.710321888638
      0.1687144782D+00  0.1000000000D+01  0.1000000000D+01
 Atom C3       Shell    10 D   1     bf   27 -    32          4.172428770852         -3.405159653042         -3.710321888638
      0.8000000000D+00  0.1000000000D+01
 Atom H4       Shell    11 S   3     bf   33 -    33          4.440634860789         -3.621606049713         -5.749208602741
      0.1873113696D+02  0.3349460434D-01
      0.2825394365D+01  0.2347269535D+00
      0.6401216923D+00  0.8137573261D+00
 Atom H4       Shell    12 S   1     bf   34 -    34          4.440634860789         -3.621606049713         -5.749208602741
      0.1612777588D+00  0.1000000000D+01
 Atom H5       Shell    13 S   3     bf   35 -    35          3.729818382124         -5.298362617450         -2.962649306415
      0.1873113696D+02  0.3349460434D-01
      0.2825394365D+01  0.2347269535D+00
      0.6401216923D+00  0.8137573261D+00
 Atom H5       Shell    14 S   1     bf   36 -    36          3.729818382124         -5.298362617450         -2.962649306415
      0.1612777588D+00  0.1000000000D+01
 Atom C6       Shell    15 S   6     bf   37 -    37          6.579073046771         -2.431729993491         -2.493119939000
      0.3047524880D+04  0.1834737132D-02
      0.4573695180D+03  0.1403732281D-01
      0.1039486850D+03  0.6884262226D-01
      0.2921015530D+02  0.2321844432D+00
      0.9286662960D+01  0.4679413484D+00
      0.3163926960D+01  0.3623119853D+00
 Atom C6       Shell    16 SP   3    bf   38 -    41          6.579073046771         -2.431729993491         -2.493119939000
      0.7868272350D+01 -0.1193324198D+00  0.6899906659D-01
      0.1881288540D+01 -0.1608541517D+00  0.3164239610D+00
      0.5442492580D+00  0.1143456438D+01  0.7443082909D+00
 Atom C6       Shell    17 SP   1    bf   42 -    45          6.579073046771         -2.431729993491         -2.493119939000
      0.1687144782D+00  0.1000000000D+01  0.1000000000D+01
 Atom C6       Shell    18 D   1     bf   46 -    51          6.579073046771         -2.431729993491         -2.493119939000
      0.8000000000D+00  0.1000000000D+01
 Atom C7       Shell    19 S   6     bf   52 -    52          6.459353605020         -1.755339997494          0.319198554394
      0.3047524880D+04  0.1834737132D-02
      0.4573695180D+03  0.1403732281D-01
      0.1039486850D+03  0.6884262226D-01
      0.2921015530D+02  0.2321844432D+00
      0.9286662960D+01  0.4679413484D+00
      0.3163926960D+01  0.3623119853D+00
 Atom C7       Shell    20 SP   3    bf   53 -    56          6.459353605020         -1.755339997494          0.319198554394
      0.7868272350D+01 -0.1193324198D+00  0.6899906659D-01
      0.1881288540D+01 -0.1608541517D+00  0.3164239610D+00
      0.5442492580D+00  0.1143456438D+01  0.7443082909D+00
 Atom C7       Shell    21 SP   1    bf   57 -    60          6.459353605020         -1.755339997494          0.319198554394
      0.1687144782D+00  0.1000000000D+01  0.1000000000D+01
 Atom C7       Shell    22 D   1     bf   61 -    66          6.459353605020         -1.755339997494          0.319198554394
      0.8000000000D+00  0.1000000000D+01
 Atom C8       Shell    23 S   6     bf   67 -    67          4.019676916298         -0.168906121710          0.797159596355
      0.3047524880D+04  0.1834737132D-02
      0.4573695180D+03  0.1403732281D-01
      0.1039486850D+03  0.6884262226D-01
      0.2921015530D+02  0.2321844432D+00
      0.9286662960D+01  0.4679413484D+00
      0.3163926960D+01  0.3623119853D+00
 Atom C8       Shell    24 SP   3    bf   68 -    71          4.019676916298         -0.168906121710          0.797159596355
      0.7868272350D+01 -0.1193324198D+00  0.6899906659D-01
      0.1881288540D+01 -0.1608541517D+00  0.3164239610D+00
      0.5442492580D+00  0.1143456438D+01  0.7443082909D+00
 Atom C8       Shell    25 SP   1    bf   72 -    75          4.019676916298         -0.168906121710          0.797159596355
      0.1687144782D+00  0.1000000000D+01  0.1000000000D+01
 Atom C8       Shell    26 D   1     bf   76 -    81          4.019676916298         -0.168906121710          0.797159596355
      0.8000000000D+00  0.1000000000D+01
 Atom H9       Shell    27 S   3     bf   82 -    82          4.310228110688          1.726569729703          0.000000000000
      0.1873113696D+02  0.3349460434D-01
      0.2825394365D+01  0.2347269535D+00
      0.6401216923D+00  0.8137573261D+00
 Atom H9       Shell    28 S   1     bf   83 -    83          4.310228110688          1.726569729703          0.000000000000
      0.1612777588D+00  0.1000000000D+01
 Atom H10      Shell    29 S   3     bf   84 -    84          3.748006353646          0.085872065657          2.832869964287
      0.1873113696D+02  0.3349460434D-01
      0.2825394365D+01  0.2347269535D+00
      0.6401216923D+00  0.8137573261D+00
 Atom H10      Shell    30 S   1     bf   85 -    85          3.748006353646          0.085872065657          2.832869964287
      0.1612777588D+00  0.1000000000D+01
 Atom C11      Shell    31 S   6     bf   86 -    86          1.593298230373         -1.275745343982         -0.350837898886
      0.3047524880D+04  0.1834737132D-02
      0.4573695180D+03  0.1403732281D-01
      0.1039486850D+03  0.6884262226D-01
      0.2921015530D+02  0.2321844432D+00
      0.9286662960D+01  0.4679413484D+00
      0.3163926960D+01  0.3623119853D+00
 Atom C11      Shell    32 SP   3    bf   87 -    90          1.593298230373         -1.275745343982         -0.350837898886
      0.7868272350D+01 -0.1193324198D+00  0.6899906659D-01
      0.1881288540D+01 -0.1608541517D+00  0.3164239610D+00
      0.5442492580D+00  0.1143456438D+01  0.7443082909D+00
 Atom C11      Shell    33 SP   1    bf   91 -    94          1.593298230373         -1.275745343982         -0.350837898886
      0.1687144782D+00  0.1000000000D+01  0.1000000000D+01
 Atom C11      Shell    34 D   1     bf   95 -   100          1.593298230373         -1.275745343982         -0.350837898886
      0.8000000000D+00  0.1000000000D+01
 Atom H12      Shell    35 S   3     bf  101 -   101          1.118163481713         -3.083850746989          0.558328146420
      0.1873113696D+02  0.3349460434D-01
      0.2825394365D+01  0.2347269535D+00
      0.6401216923D+00  0.8137573261D+00
 Atom H12      Shell    36 S   1     bf  102 -   102          1.118163481713         -3.083850746989          0.558328146420
      0.1612777588D+00  0.1000000000D+01
 Atom H13      Shell    37 S   3     bf  103 -   103          0.000000000000          0.000000000000          0.000000000000
      0.1873113696D+02  0.3349460434D-01
      0.2825394365D+01  0.2347269535D+00
      0.6401216923D+00  0.8137573261D+00
 Atom H13      Shell    38 S   1     bf  104 -   104          0.000000000000          0.000000000000          0.000000000000
      0.1612777588D+00  0.1000000000D+01
 Atom C14      Shell    39 S   6     bf  105 -   105          8.698206414189         -2.221612327433         -3.861528173983
      0.3047524880D+04  0.1834737132D-02
      0.4573695180D+03  0.1403732281D-01
      0.1039486850D+03  0.6884262226D-01
      0.2921015530D+02  0.2321844432D+00
      0.9286662960D+01  0.4679413484D+00
      0.3163926960D+01  0.3623119853D+00
 Atom C14      Shell    40 SP   3    bf  106 -   109          8.698206414189         -2.221612327433         -3.861528173983
      0.7868272350D+01 -0.1193324198D+00  0.6899906659D-01
      0.1881288540D+01 -0.1608541517D+00  0.3164239610D+00
      0.5442492580D+00  0.1143456438D+01  0.7443082909D+00
 Atom C14      Shell    41 SP   1    bf  110 -   113          8.698206414189         -2.221612327433         -3.861528173983
      0.1687144782D+00  0.1000000000D+01  0.1000000000D+01
 Atom C14      Shell    42 D   1     bf  114 -   119          8.698206414189         -2.221612327433         -3.861528173983
      0.8000000000D+00  0.1000000000D+01
 Atom H15      Shell    43 S   3     bf  120 -   120          8.675678138582         -2.710547575966         -5.857869442752
      0.1873113696D+02  0.3349460434D-01
      0.2825394365D+01  0.2347269535D+00
      0.6401216923D+00  0.8137573261D+00
 Atom H15      Shell    44 S   1     bf  121 -   121          8.675678138582         -2.710547575966         -5.857869442752
      0.1612777588D+00  0.1000000000D+01
 Atom C16      Shell    45 S   6     bf  122 -   122         11.226954437116         -1.419830517648         -2.861423612772
      0.3047524880D+04  0.1834737132D-02
      0.4573695180D+03  0.1403732281D-01
      0.1039486850D+03  0.6884262226D-01
      0.2921015530D+02  0.2321844432D+00
      0.9286662960D+01  0.4679413484D+00
      0.3163926960D+01  0.3623119853D+00
 Atom C16      Shell    46 SP   3    bf  123 -   126         11.226954437116         -1.419830517648         -2.861423612772
      0.7868272350D+01 -0.1193324198D+00  0.6899906659D-01
      0.1881288540D+01 -0.1608541517D+00  0.3164239610D+00
      0.5442492580D+00  0.1143456438D+01  0.7443082909D+00
 Atom C16      Shell    47 SP   1    bf  127 -   130         11.226954437116         -1.419830517648         -2.861423612772
      0.1687144782D+00  0.1000000000D+01  0.1000000000D+01
 Atom C16      Shell    48 D   1     bf  131 -   136         11.226954437116         -1.419830517648         -2.861423612772
      0.8000000000D+00  0.1000000000D+01
 Atom H17      Shell    49 S   3     bf  137 -   137         11.817894192124          0.363284825725         -3.756448818528
      0.1873113696D+02  0.3349460434D-01
      0.2825394365D+01  0.2347269535D+00
      0.6401216923D+00  0.8137573261D+00
 Atom H17      Shell    50 S   1     bf  138 -   138         11.817894192124          0.363284825725         -3.756448818528
      0.1612777588D+00  0.1000000000D+01
 Atom C18      Shell    51 S   6     bf  139 -   139         11.353272764729         -1.175305398464          0.031133464806
      0.3047524880D+04  0.1834737132D-02
      0.4573695180D+03  0.1403732281D-01
      0.1039486850D+03  0.6884262226D-01
      0.2921015530D+02  0.2321844432D+00
      0.9286662960D+01  0.4679413484D+00
      0.3163926960D+01  0.3623119853D+00
 Atom C18      Shell    52 SP   3    bf  140 -   143         11.353272764729         -1.175305398464          0.031133464806
      0.7868272350D+01 -0.1193324198D+00  0.6899906659D-01
      0.1881288540D+01 -0.1608541517D+00  0.3164239610D+00
      0.5442492580D+00  0.1143456438D+01  0.7443082909D+00
 Atom C18      Shell    53 SP   1    bf  144 -   147         11.353272764729         -1.175305398464          0.031133464806
      0.1687144782D+00  0.1000000000D+01  0.1000000000D+01
 Atom C18      Shell    54 D   1     bf  148 -   153         11.353272764729         -1.175305398464          0.031133464806
      0.8000000000D+00  0.1000000000D+01
 Atom H19      Shell    55 S   3     bf  154 -   154         11.655337096686         -3.086773926550          0.778188711296
      0.1873113696D+02  0.3349460434D-01
      0.2825394365D+01  0.2347269535D+00
      0.6401216923D+00  0.8137573261D+00
 Atom H19      Shell    56 S   1     bf  155 -   155         11.655337096686         -3.086773926550          0.778188711296
      0.1612777588D+00  0.1000000000D+01
 Atom C20      Shell    57 S   6     bf  156 -   156          8.811004185958         -0.112819220161          1.056047049889
      0.3047524880D+04  0.1834737132D-02
      0.4573695180D+03  0.1403732281D-01
      0.1039486850D+03  0.6884262226D-01
      0.2921015530D+02  0.2321844432D+00
      0.9286662960D+01  0.4679413484D+00
      0.3163926960D+01  0.3623119853D+00
 Atom C20      Shell    58 SP   3    bf  157 -   160          8.811004185958         -0.112819220161          1.056047049889
      0.7868272350D+01 -0.1193324198D+00  0.6899906659D-01
      0.1881288540D+01 -0.1608541517D+00  0.3164239610D+00
      0.5442492580D+00  0.1143456438D+01  0.7443082909D+00
 Atom C20      Shell    59 SP   1    bf  161 -   164          8.811004185958         -0.112819220161          1.056047049889
      0.1687144782D+00  0.1000000000D+01  0.1000000000D+01
 Atom C20      Shell    60 D   1     bf  165 -   170          8.811004185958         -0.112819220161          1.056047049889
      0.8000000000D+00  0.1000000000D+01
 Atom H21      Shell    61 S   3     bf  171 -   171          8.536301954569          1.715429605177          0.096371969866
      0.1873113696D+02  0.3349460434D-01
      0.2825394365D+01  0.2347269535D+00
      0.6401216923D+00  0.8137573261D+00
 Atom H21      Shell    62 S   1     bf  172 -   172          8.536301954569          1.715429605177          0.096371969866
      0.1612777588D+00  0.1000000000D+01
 Atom C22      Shell    63 S   6     bf  173 -   173          8.972651548338          0.456447398110          3.918761137740
      0.3047524880D+04  0.1834737132D-02
      0.4573695180D+03  0.1403732281D-01
      0.1039486850D+03  0.6884262226D-01
      0.2921015530D+02  0.2321844432D+00
      0.9286662960D+01  0.4679413484D+00
      0.3163926960D+01  0.3623119853D+00
 Atom C22      Shell    64 SP   3    bf  174 -   177          8.972651548338          0.456447398110          3.918761137740
      0.7868272350D+01 -0.1193324198D+00  0.6899906659D-01
      0.1881288540D+01 -0.1608541517D+00  0.3164239610D+00
      0.5442492580D+00  0.1143456438D+01  0.7443082909D+00
 Atom C22      Shell    65 SP   1    bf  178 -   181          8.972651548338          0.456447398110          3.918761137740
      0.1687144782D+00  0.1000000000D+01  0.1000000000D+01
 Atom C22      Shell    66 D   1     bf  182 -   187          8.972651548338          0.456447398110          3.918761137740
      0.8000000000D+00  0.1000000000D+01
 Atom H23      Shell    67 S   3     bf  188 -   188          9.062513657340         -1.316956642666          4.981994778317
      0.1873113696D+02  0.3349460434D-01
      0.2825394365D+01  0.2347269535D+00
      0.6401216923D+00  0.8137573261D+00
 Atom H23      Shell    68 S   1     bf  189 -   189          9.062513657340         -1.316956642666          4.981994778317
      0.1612777588D+00  0.1000000000D+01
 Atom H24      Shell    69 S   3     bf  190 -   190          7.237379327437          1.403424709048          4.532028555028
      0.1873113696D+02  0.3349460434D-01
      0.2825394365D+01  0.2347269535D+00
      0.6401216923D+00  0.8137573261D+00
 Atom H24      Shell    70 S   1     bf  191 -   191          7.237379327437          1.403424709048          4.532028555028
      0.1612777588D+00  0.1000000000D+01
 Atom C25      Shell    71 S   6     bf  192 -   192         11.242449152056          2.118515748226          4.668706682555
      0.3047524880D+04  0.1834737132D-02
      0.4573695180D+03  0.1403732281D-01
      0.1039486850D+03  0.6884262226D-01
      0.2921015530D+02  0.2321844432D+00
      0.9286662960D+01  0.4679413484D+00
      0.3163926960D+01  0.3623119853D+00
 Atom C25      Shell    72 SP   3    bf  193 -   196         11.242449152056          2.118515748226          4.668706682555
      0.7868272350D+01 -0.1193324198D+00  0.6899906659D-01
      0.1881288540D+01 -0.1608541517D+00  0.3164239610D+00
      0.5442492580D+00  0.1143456438D+01  0.7443082909D+00
 Atom C25      Shell    73 SP   1    bf  197 -   200         11.242449152056          2.118515748226          4.668706682555
      0.1687144782D+00  0.1000000000D+01  0.1000000000D+01
 Atom C25      Shell    74 D   1     bf  201 -   206         11.242449152056          2.118515748226          4.668706682555
      0.8000000000D+00  0.1000000000D+01
 Atom H26      Shell    75 S   3     bf  207 -   207         11.014311832383          4.004633014424          3.829752523545
      0.1873113696D+02  0.3349460434D-01
      0.2825394365D+01  0.2347269535D+00
      0.6401216923D+00  0.8137573261D+00
 Atom H26      Shell    76 S   1     bf  208 -   208         11.014311832383          4.004633014424          3.829752523545
      0.1612777588D+00  0.1000000000D+01
 Atom H27      Shell    77 S   3     bf  209 -   209         11.229190455562          2.378011712472          6.724131882930
      0.1873113696D+02  0.3349460434D-01
      0.2825394365D+01  0.2347269535D+00
      0.6401216923D+00  0.8137573261D+00
 Atom H27      Shell    78 S   1     bf  210 -   210         11.229190455562          2.378011712472          6.724131882930
      0.1612777588D+00  0.1000000000D+01
 Atom C28      Shell    79 S   6     bf  211 -   211         13.762346718229          0.978171587131          3.764226799010
      0.3047524880D+04  0.1834737132D-02
      0.4573695180D+03  0.1403732281D-01
      0.1039486850D+03  0.6884262226D-01
      0.2921015530D+02  0.2321844432D+00
      0.9286662960D+01  0.4679413484D+00
      0.3163926960D+01  0.3623119853D+00
 Atom C28      Shell    80 SP   3    bf  212 -   215         13.762346718229          0.978171587131          3.764226799010
      0.7868272350D+01 -0.1193324198D+00  0.6899906659D-01
      0.1881288540D+01 -0.1608541517D+00  0.3164239610D+00
      0.5442492580D+00  0.1143456438D+01  0.7443082909D+00
 Atom C28      Shell    81 SP   1    bf  216 -   219         13.762346718229          0.978171587131          3.764226799010
      0.1687144782D+00  0.1000000000D+01  0.1000000000D+01
 Atom C28      Shell    82 D   1     bf  220 -   225         13.762346718229          0.978171587131          3.764226799010
      0.8000000000D+00  0.1000000000D+01
 Atom C29      Shell    83 S   6     bf  226 -   226         13.528838381146          0.572159373240          0.856838923974
      0.3047524880D+04  0.1834737132D-02
      0.4573695180D+03  0.1403732281D-01
      0.1039486850D+03  0.6884262226D-01
      0.2921015530D+02  0.2321844432D+00
      0.9286662960D+01  0.4679413484D+00
      0.3163926960D+01  0.3623119853D+00
 Atom C29      Shell    84 SP   3    bf  227 -   230         13.528838381146          0.572159373240          0.856838923974
      0.7868272350D+01 -0.1193324198D+00  0.6899906659D-01
      0.1881288540D+01 -0.1608541517D+00  0.3164239610D+00
      0.5442492580D+00  0.1143456438D+01  0.7443082909D+00
 Atom C29      Shell    85 SP   1    bf  231 -   234         13.528838381146          0.572159373240          0.856838923974
      0.1687144782D+00  0.1000000000D+01  0.1000000000D+01
 Atom C29      Shell    86 D   1     bf  235 -   240         13.528838381146          0.572159373240          0.856838923974
      0.8000000000D+00  0.1000000000D+01
 Atom H30      Shell    87 S   3     bf  241 -   241         13.048856730619          2.447477837247          0.083467256872
      0.1873113696D+02  0.3349460434D-01
      0.2825394365D+01  0.2347269535D+00
      0.6401216923D+00  0.8137573261D+00
 Atom H30      Shell    88 S   1     bf  242 -   242         13.048856730619          2.447477837247          0.083467256872
      0.1612777588D+00  0.1000000000D+01
 Atom C31      Shell    89 S   6     bf  243 -   243         16.252085237978          0.000000000000          0.000000000000
      0.3047524880D+04  0.1834737132D-02
      0.4573695180D+03  0.1403732281D-01
      0.1039486850D+03  0.6884262226D-01
      0.2921015530D+02  0.2321844432D+00
      0.9286662960D+01  0.4679413484D+00
      0.3163926960D+01  0.3623119853D+00
 Atom C31      Shell    90 SP   3    bf  244 -   247         16.252085237978          0.000000000000          0.000000000000
      0.7868272350D+01 -0.1193324198D+00  0.6899906659D-01
      0.1881288540D+01 -0.1608541517D+00  0.3164239610D+00
      0.5442492580D+00  0.1143456438D+01  0.7443082909D+00
 Atom C31      Shell    91 SP   1    bf  248 -   251         16.252085237978          0.000000000000          0.000000000000
      0.1687144782D+00  0.1000000000D+01  0.1000000000D+01
 Atom C31      Shell    92 D   1     bf  252 -   257         16.252085237978          0.000000000000          0.000000000000
      0.8000000000D+00  0.1000000000D+01
 Atom H32      Shell    93 S   3     bf  258 -   258         16.555749695539          0.468672282128         -1.991375427539
      0.1873113696D+02  0.3349460434D-01
      0.2825394365D+01  0.2347269535D+00
      0.6401216923D+00  0.8137573261D+00
 Atom H32      Shell    94 S   1     bf  259 -   259         16.555749695539          0.468672282128         -1.991375427539
      0.1612777588D+00  0.1000000000D+01
 Atom H33      Shell    95 S   3     bf  260 -   260         16.674497175551         -2.014897963654          0.200792982531
      0.1873113696D+02  0.3349460434D-01
      0.2825394365D+01  0.2347269535D+00
      0.6401216923D+00  0.8137573261D+00
 Atom H33      Shell    96 S   1     bf  261 -   261         16.674497175551         -2.014897963654          0.200792982531
      0.1612777588D+00  0.1000000000D+01
 Atom C34      Shell    97 S   6     bf  262 -   262         17.914958535837          1.628906755634          1.793196616552
      0.3047524880D+04  0.1834737132D-02
      0.4573695180D+03  0.1403732281D-01
      0.1039486850D+03  0.6884262226D-01
      0.2921015530D+02  0.2321844432D+00
      0.9286662960D+01  0.4679413484D+00
      0.3163926960D+01  0.3623119853D+00
 Atom C34      Shell    98 SP   3    bf  263 -   266         17.914958535837          1.628906755634          1.793196616552
      0.7868272350D+01 -0.1193324198D+00  0.6899906659D-01
      0.1881288540D+01 -0.1608541517D+00  0.3164239610D+00
      0.5442492580D+00  0.1143456438D+01  0.7443082909D+00
 Atom C34      Shell    99 SP   1    bf  267 -   270         17.914958535837          1.628906755634          1.793196616552
      0.1687144782D+00  0.1000000000D+01  0.1000000000D+01
 Atom C34      Shell   100 D   1     bf  271 -   276         17.914958535837          1.628906755634          1.793196616552
      0.8000000000D+00  0.1000000000D+01
 Atom H35      Shell   101 S   3     bf  277 -   277         19.370438755880          0.466526781563          2.693220110136
      0.1873113696D+02  0.3349460434D-01
      0.2825394365D+01  0.2347269535D+00
      0.6401216923D+00  0.8137573261D+00
 Atom H35      Shell   102 S   1     bf  278 -   278         19.370438755880          0.466526781563          2.693220110136
      0.1612777588D+00  0.1000000000D+01
 Atom H36      Shell   103 S   3     bf  279 -   279         18.919731930022          3.124476230572          0.773005400384
      0.1873113696D+02  0.3349460434D-01
      0.2825394365D+01  0.2347269535D+00
      0.6401216923D+00  0.8137573261D+00
 Atom H36      Shell   104 S   1     bf  280 -   280         18.919731930022          3.124476230572          0.773005400384
      0.1612777588D+00  0.1000000000D+01
 Atom C37      Shell   105 S   6     bf  281 -   281         16.095999093943          2.805327262592          3.795267213702
      0.3047524880D+04  0.1834737132D-02
      0.4573695180D+03  0.1403732281D-01
      0.1039486850D+03  0.6884262226D-01
      0.2921015530D+02  0.2321844432D+00
      0.9286662960D+01  0.4679413484D+00
      0.3163926960D+01  0.3623119853D+00
 Atom C37      Shell   106 SP   3    bf  282 -   285         16.095999093943          2.805327262592          3.795267213702
      0.7868272350D+01 -0.1193324198D+00  0.6899906659D-01
      0.1881288540D+01 -0.1608541517D+00  0.3164239610D+00
      0.5442492580D+00  0.1143456438D+01  0.7443082909D+00
 Atom C37      Shell   107 SP   1    bf  286 -   289         16.095999093943          2.805327262592          3.795267213702
      0.1687144782D+00  0.1000000000D+01  0.1000000000D+01
 Atom C37      Shell   108 D   1     bf  290 -   295         16.095999093943          2.805327262592          3.795267213702
      0.8000000000D+00  0.1000000000D+01
 Atom H38      Shell   109 S   3     bf  296 -   296         15.378291162016          4.560755113454          2.948904912511
      0.1873113696D+02  0.3349460434D-01
      0.2825394365D+01  0.2347269535D+00
      0.6401216923D+00  0.8137573261D+00
 Atom H38      Shell   110 S   1     bf  297 -   297         15.378291162016          4.560755113454          2.948904912511
      0.1612777588D+00  0.1000000000D+01
 Atom C39      Shell   111 S   6     bf  298 -   298         14.292443943594         -1.529791602622          5.167713925712
      0.3047524880D+04  0.1834737132D-02
      0.4573695180D+03  0.1403732281D-01
      0.1039486850D+03  0.6884262226D-01
[...]
 **** Fit       0.000294
 **** Fit       0.000517
 **** Fit       0.000675
 **** Fit       0.000780
 **** Fit       0.001322
 **** Fit       0.001230
 **** Fit       0.001258
 **** Fit       0.001399
 **** Fit       0.001606
 **** Fit       0.001812
 **** Fit       0.001944
 **** Fit       0.001946
 **** Fit       0.001785
 **** Fit       0.001455
 **** Fit       0.000978
 **** Fit       0.000422
 **** Fit      -0.000096
 **** Fit      -0.000440
 **** Fit      -0.000514
 **** Fit      -0.000320
 **** Fit       0.000038
 **** Fit       0.000421
 **** Fit       0.000730
 **** Fit       0.000931
 **** Fit       0.001039
 **** Fit       0.001084
 **** Fit       0.001603
 **** Fit       0.001360
 **** Fit       0.001203
 **** Fit       0.001154
 **** Fit       0.001213
 **** Fit       0.001348
 **** Fit       0.001499
 **** Fit       0.001597
 **** Fit       0.001583
 **** Fit       0.001421
 **** Fit       0.001108
 **** Fit       0.000673
 **** Fit       0.000196
 **** Fit      -0.000202
 **** Fit      -0.000387
 **** Fit      -0.000280
 **** Fit       0.000087
 **** Fit       0.000572
 **** Fit       0.001010
 **** Fit       0.001303
 **** Fit       0.001441
 **** Fit       0.001468
 **** Fit       0.001434
 **** Fit       0.001377
 **** Fit       0.002076
 **** Fit       0.001774
 **** Fit       0.001505
 **** Fit       0.001299
 **** Fit       0.001183
 **** Fit       0.001164
 **** Fit       0.001224
 **** Fit       0.001315
 **** Fit       0.001376
 **** Fit       0.001351
 **** Fit       0.001205
 **** Fit       0.000934
 **** Fit       0.000574
 **** Fit       0.000205
 **** Fit      -0.000057
 **** Fit      -0.000089
 **** Fit       0.000170
 **** Fit       0.000662
 **** Fit       0.001219
 **** Fit       0.001663
 **** Fit       0.001907
 **** Fit       0.001964
 **** Fit       0.001902
 **** Fit       0.001785
 **** Fit       0.001658
 **** Fit       0.002307
 **** Fit       0.002021
 **** Fit       0.001749
 **** Fit       0.001517
 **** Fit       0.001351
 **** Fit       0.001269
 **** Fit       0.001261
 **** Fit       0.001294
 **** Fit       0.001318
 **** Fit       0.001285
 **** Fit       0.001162
 **** Fit       0.000948
 **** Fit       0.000676
 **** Fit       0.000419
 **** Fit       0.000282
 **** Fit       0.000367
 **** Fit       0.000717
 **** Fit       0.001258
 **** Fit       0.001820
 **** Fit       0.002231
 **** Fit       0.002415
 **** Fit       0.002403
 **** Fit       0.002271
 **** Fit       0.002091
 **** Fit       0.001910
 **** Fit       0.002563
 **** Fit       0.002310
 **** Fit       0.002055
 **** Fit       0.001818
 **** Fit       0.001627
 **** Fit       0.001499
 **** Fit       0.001438
 **** Fit       0.001373
 **** Fit       0.001273
 **** Fit       0.001113
 **** Fit       0.000921
 **** Fit       0.000760
 **** Fit       0.000715
 **** Fit       0.000865
 **** Fit       0.001234
 **** Fit       0.001748
 **** Fit       0.002256
 **** Fit       0.002610
 **** Fit       0.002746
 **** Fit       0.002696
 **** Fit       0.002531
 **** Fit       0.002320
 **** Fit       0.002110
 **** Fit       0.002811
 **** Fit       0.002600
 **** Fit       0.002374
 **** Fit       0.002151
 **** Fit       0.001953
 **** Fit       0.001802
 **** Fit       0.001706
 **** Fit       0.001619
 **** Fit       0.001571
 **** Fit       0.001488
 **** Fit       0.001368
 **** Fit       0.001236
 **** Fit       0.001140
 **** Fit       0.001148
 **** Fit       0.001313
 **** Fit       0.001647
 **** Fit       0.002083
 **** Fit       0.002504
 **** Fit       0.002792
 **** Fit       0.002896
 **** Fit       0.002837
 **** Fit       0.002673
 **** Fit       0.002464
 **** Fit       0.002853
 **** Fit       0.002663
 **** Fit       0.002464
 **** Fit       0.002276
 **** Fit       0.002119
 **** Fit       0.001874
 **** Fit       0.001818
 **** Fit       0.001744
 **** Fit       0.001649
 **** Fit       0.001552
 **** Fit       0.001492
 **** Fit       0.001518
 **** Fit       0.001666
 **** Fit       0.001937
 **** Fit       0.002280
 **** Fit       0.002606
 **** Fit       0.002830
 **** Fit       0.002913
 **** Fit       0.002863
 **** Fit       0.002722
 **** Fit       0.002533
 **** Fit       0.002724
 **** Fit       0.002120
 **** Fit       0.002055
 **** Fit       0.001981
 **** Fit       0.001896
 **** Fit       0.001815
 **** Fit       0.001769
 **** Fit       0.001793
 **** Fit       0.001912
 **** Fit       0.002119
 **** Fit       0.002376
 **** Fit       0.002620
 **** Fit       0.002792
 **** Fit       0.002859
 **** Fit       0.002824
 **** Fit       0.002710
 **** Fit       0.002313
 **** Fit       0.002233
 **** Fit       0.002151
 **** Fit       0.002065
 **** Fit       0.001989
 **** Fit       0.001948
 **** Fit       0.001965
 **** Fit       0.002057
 **** Fit       0.002214
 **** Fit       0.002407
 **** Fit       0.002591
 **** Fit       0.002724
 **** Fit       0.002780
 **** Fit       0.002758
 **** Fit       0.002328
 **** Fit       0.002230
 **** Fit       0.002138
 **** Fit       0.002063
 **** Fit       0.002025
 **** Fit       0.002041
 **** Fit       0.002545
 **** Fit       0.002217
 **** Fit       0.002115
 **** Fit       0.002043
 **** Fit       0.002014
 **** Fit       0.002051
 **** Fit       0.001721
 **** Fit       0.001389
 **** Fit       0.001107
 **** Fit       0.002444
 **** Fit       0.002211
 **** Fit       0.001896
 **** Fit       0.001527
 **** Fit       0.001156
 **** Fit       0.000852
 **** Fit       0.000675
 **** Fit       0.000661
 **** Fit       0.000808
 **** Fit       0.001080
 **** Fit       0.001417
 **** Fit       0.001759
 **** Fit       0.002469
 **** Fit       0.002314
 **** Fit       0.002065
 **** Fit       0.001721
 **** Fit       0.001312
 **** Fit       0.000901
 **** Fit       0.000574
 **** Fit       0.000407
 **** Fit       0.000436
 **** Fit       0.000651
 **** Fit       0.000998
 **** Fit       0.001399
 **** Fit       0.001781
 **** Fit       0.002094
 **** Fit       0.002308
 **** Fit       0.002148
 **** Fit       0.001883
 **** Fit       0.001512
 **** Fit       0.001066
 **** Fit       0.000623
 **** Fit       0.000282
 **** Fit       0.000133
 **** Fit       0.000217
 **** Fit       0.000512
 **** Fit       0.000942
 **** Fit       0.001410
 **** Fit       0.001830
 **** Fit       0.002151
 **** Fit       0.002359
 **** Fit       0.002101
 **** Fit       0.001929
 **** Fit       0.001648
 **** Fit       0.001256
 **** Fit       0.000788
 **** Fit       0.000329
 **** Fit      -0.000009
 **** Fit      -0.000125
 **** Fit       0.000023
 **** Fit       0.000401
 **** Fit       0.000914
 **** Fit       0.001442
 **** Fit       0.001890
 **** Fit       0.002210
 **** Fit       0.002399
 **** Fit       0.002479
 **** Fit       0.001954
 **** Fit       0.001846
 **** Fit       0.001656
 **** Fit       0.001360
 **** Fit       0.000957
 **** Fit       0.000487
 **** Fit       0.000039
 **** Fit      -0.000271
 **** Fit      -0.000341
 **** Fit      -0.000129
 **** Fit       0.000321
 **** Fit       0.000899
 **** Fit       0.001470
 **** Fit       0.001932
 **** Fit       0.002242
 **** Fit       0.002409
 **** Fit       0.002464
 **** Fit       0.001558
 **** Fit       0.001346
 **** Fit       0.001038
 **** Fit       0.000639
 **** Fit       0.000191
 **** Fit      -0.000219
 **** Fit      -0.000479
 **** Fit      -0.000496
 **** Fit      -0.000235
 **** Fit       0.000259
 **** Fit       0.000867
 **** Fit       0.001453
 **** Fit       0.001914
 **** Fit       0.002212
 **** Fit       0.002362
 **** Fit       0.002401
 **** Fit       0.001263
 **** Fit       0.001033
 **** Fit       0.000722
 **** Fit       0.000342
 **** Fit      -0.000063
 **** Fit      -0.000413
 **** Fit      -0.000614
 **** Fit      -0.000585
 **** Fit      -0.000299
 **** Fit       0.000197
 **** Fit       0.000795
 **** Fit       0.001365
 **** Fit       0.001811
 **** Fit       0.002099
 **** Fit       0.002242
 **** Fit       0.002281
 **** Fit       0.000992
 **** Fit       0.000754
 **** Fit       0.000453
 **** Fit       0.000106
 **** Fit      -0.000242
 **** Fit      -0.000526
 **** Fit      -0.000669
 **** Fit      -0.000610
 **** Fit      -0.000330
 **** Fit       0.000131
 **** Fit       0.000681
 **** Fit       0.001207
 **** Fit       0.001627
 **** Fit       0.001906
 **** Fit       0.002056
 **** Fit       0.002107
 **** Fit       0.000537
 **** Fit       0.000258
 **** Fit      -0.000045
 **** Fit      -0.000333
 **** Fit      -0.000555
 **** Fit      -0.000651
 **** Fit      -0.000579
 **** Fit      -0.000328
 **** Fit       0.000072
 **** Fit       0.000549
 **** Fit       0.001014
 **** Fit       0.001397
 **** Fit       0.001667
 **** Fit       0.001826
 **** Fit      -0.000110
 **** Fit      -0.000342
 **** Fit      -0.000511
 **** Fit      -0.000575
 **** Fit      -0.000504
 **** Fit      -0.000292
 **** Fit       0.000037
 **** Fit       0.000432
 **** Fit       0.000827
 **** Fit       0.001166
 **** Fit       0.001421
 **** Fit       0.001587
 **** Fit      -0.000394
 **** Fit      -0.000224
 **** Fit       0.000037
 **** Fit       0.000354
 **** Fit       0.000678
 **** Fit       0.000969
 **** Fit       0.001202
 **** Fit       0.002254
 **** Fit       0.002020
 **** Fit       0.001714
 **** Fit       0.001368
 **** Fit       0.001023
 **** Fit       0.000721
 **** Fit       0.002406
 **** Fit       0.002237
 **** Fit       0.001970
 **** Fit       0.001628
 **** Fit       0.001247
 **** Fit       0.000879
 **** Fit       0.000571
 **** Fit       0.000355
 **** Fit       0.001956
 **** Fit       0.002132
 **** Fit       0.002287
 **** Fit       0.002385
 **** Fit       0.002314
 **** Fit       0.002119
 **** Fit       0.001824
 **** Fit       0.001453
 **** Fit       0.001053
 **** Fit       0.000682
 **** Fit       0.000393
 **** Fit       0.000217
 **** Fit       0.001699
 **** Fit       0.001837
 **** Fit       0.001998
 **** Fit       0.002143
 **** Fit       0.002232
 **** Fit       0.002128
 **** Fit       0.001911
 **** Fit       0.001595
 **** Fit       0.001210
 **** Fit       0.000812
 **** Fit       0.000465
 **** Fit       0.000226
 **** Fit       0.000117
 **** Fit       0.000125
 **** Fit       0.000212
 **** Fit       0.000334
 **** Fit       0.001582
 **** Fit       0.001686
 **** Fit       0.001821
 **** Fit       0.001945
 **** Fit       0.002016
 **** Fit       0.002001
 **** Fit       0.001880
 **** Fit       0.001649
 **** Fit       0.001325
 **** Fit       0.000947
 **** Fit       0.000578
 **** Fit       0.000285
 **** Fit       0.000123
 **** Fit       0.000104
 **** Fit       0.000199
 **** Fit       0.000354
 **** Fit       0.000519
 **** Fit       0.000661
 **** Fit       0.001482
 **** Fit       0.001542
 **** Fit       0.001639
 **** Fit       0.001733
 **** Fit       0.001782
 **** Fit       0.001623
 **** Fit       0.001391
 **** Fit       0.001079
 **** Fit       0.000732
 **** Fit       0.000417
 **** Fit       0.000203
 **** Fit       0.000137
 **** Fit       0.000217
 **** Fit       0.000398
 **** Fit       0.000613
 **** Fit       0.000804
 **** Fit       0.000943
 **** Fit       0.001028
 **** Fit       0.001447
 **** Fit       0.001499
 **** Fit       0.001557
 **** Fit       0.001583
 **** Fit       0.001413
 **** Fit       0.001197
 **** Fit       0.000917
 **** Fit       0.000623
 **** Fit       0.000381
 **** Fit       0.000258
 **** Fit       0.000291
 **** Fit       0.000465
 **** Fit       0.000717
 **** Fit       0.000970
 **** Fit       0.001165
 **** Fit       0.001283
 **** Fit       0.001330
 **** Fit       0.001105
 **** Fit       0.000873
 **** Fit       0.000645
 **** Fit       0.000485
 **** Fit       0.000450
 **** Fit       0.000567
 **** Fit       0.000811
 **** Fit       0.001107
 **** Fit       0.001372
 **** Fit       0.001552
 **** Fit       0.001634
 **** Fit       0.001638
 **** Fit       0.001592
 **** Fit       0.000787
 **** Fit       0.000701
 **** Fit       0.000737
 **** Fit       0.000911
 **** Fit       0.001189
 **** Fit       0.001495
 **** Fit       0.001750
 **** Fit       0.001902
 **** Fit       0.001948
 **** Fit       0.001912
 **** Fit       0.001828
 **** Fit       0.001009
 **** Fit       0.000980
 **** Fit       0.001060
 **** Fit       0.001257
 **** Fit       0.001534
 **** Fit       0.001821
 **** Fit       0.002047
 **** Fit       0.002170
 **** Fit       0.002187
 **** Fit       0.002125
 **** Fit       0.001267
 **** Fit       0.001365
 **** Fit       0.001556
 **** Fit       0.001805
 **** Fit       0.002054
 **** Fit       0.002244
 **** Fit       0.002340
 **** Fit       0.002340
 **** Fit       0.002267
 **** Fit       0.001523
 **** Fit       0.001619
 **** Fit       0.001785
 **** Fit       0.001994
 **** Fit       0.002198
 **** Fit       0.002350
 **** Fit       0.002424
 **** Fit       0.002417
 **** Fit       0.001806
 **** Fit       0.001943
 **** Fit       0.002110
 **** Fit       0.002271
 **** Fit       0.002391
 **** Fit       0.002449
 **** Fit       0.001587
 **** Fit       0.001309
 **** Fit       0.001044
 **** Fit       0.001665
 **** Fit       0.001399
 **** Fit       0.001104
 **** Fit       0.000827
 **** Fit       0.000623
 **** Fit       0.000596
 **** Fit       0.000783
 **** Fit       0.001058
 **** Fit       0.001367
 **** Fit       0.001659
 **** Fit       0.001687
 **** Fit       0.001465
 **** Fit       0.001187
 **** Fit       0.000884
 **** Fit       0.000604
 **** Fit       0.000410
 **** Fit       0.000350
 **** Fit       0.000445
 **** Fit       0.000678
 **** Fit       0.000999
 **** Fit       0.001344
 **** Fit       0.001656
 **** Fit       0.001901
 **** Fit       0.001470
 **** Fit       0.001240
 **** Fit       0.000959
 **** Fit       0.000658
 **** Fit       0.000389
 **** Fit       0.000214
 **** Fit       0.000183
 **** Fit       0.000315
 **** Fit       0.000588
 **** Fit       0.000944
 **** Fit       0.001315
 **** Fit       0.001640
 **** Fit       0.001885
 **** Fit       0.001239
 **** Fit       0.001005
 **** Fit       0.000729
 **** Fit       0.000443
 **** Fit       0.000197
 **** Fit       0.000051
 **** Fit       0.000051
 **** Fit       0.000212
 **** Fit       0.000510
 **** Fit       0.000885
 **** Fit       0.001266
 **** Fit       0.001593
 **** Fit       0.001835
 **** Fit       0.000781
 **** Fit       0.000519
 **** Fit       0.000258
 **** Fit       0.000045
 **** Fit      -0.000068
 **** Fit      -0.000042
 **** Fit       0.000136
 **** Fit       0.000439
 **** Fit       0.000811
 **** Fit       0.001186
 **** Fit       0.001506
 **** Fit       0.001741
 **** Fit       0.000349
 **** Fit       0.000120
 **** Fit      -0.000056
 **** Fit      -0.000094
 **** Fit       0.000085
 **** Fit       0.000374
 **** Fit       0.000725
 **** Fit       0.001077
 **** Fit       0.001380
 **** Fit       0.001607
 **** Fit      -0.000107
 **** Fit       0.000060
 **** Fit       0.000321
 **** Fit       0.000635
 **** Fit       0.000953
 **** Fit       0.001233
 **** Fit       0.000285
 **** Fit       0.000556
 **** Fit       0.000833
 **** Fit       0.001182
 **** Fit       0.000923
 **** Fit       0.001041
 **** Fit       0.000804
 **** Fit       0.000468
 **** Fit       0.000505
 **** Fit       0.000533
 **** Fit       0.000559
 **** Fit       0.000647
 **** Fit       0.000762
 **** Fit       0.000874
 **** Fit       0.000645
 **** Fit       0.000646
 **** Fit       0.000727
 **** Fit       0.000857
 **** Fit       0.000998
 **** Fit       0.001118
 **** Fit       0.001200
 **** Fit       0.000778
 **** Fit       0.000830
 **** Fit       0.000952
 **** Fit       0.001111
 **** Fit       0.001264
 **** Fit       0.001381
 **** Fit       0.001447
 **** Fit       0.000967
 **** Fit       0.001055
 **** Fit       0.001203
 **** Fit       0.001373
 **** Fit       0.001524
 **** Fit       0.001629
 **** Fit       0.001676
 **** Fit       0.001183
 **** Fit       0.001290
 **** Fit       0.001443
 **** Fit       0.001609
 **** Fit       0.001748
 **** Fit       0.001836
 **** Fit       0.001503
 **** Fit       0.001648
 **** Fit       0.001797
 **** Fit       0.001918
 **** Fit       0.001989
 -----------------------------------------------------------------
 Leave Link  602 at Fri Apr 28 13:14:40 2017, MaxMem=   33554432 cpu:     101.8
 (Enter /scratch/michal/g09/l9999.exe)

 Test job not archived.
 1\1\GINC-RZEPICHA\SP\RHF\6-31G(d)\C27H46O3\MICHAL\28-Apr-2017\0\\#P HF
 /6-31G* SCF(Conver=6) NoSymm Test Pop=chelpg IOp(6/33=2) GFInput GFPri
 nt\\MEP - Input generated by R.E.D.-III.x MOLECULE\\0,1\C,0,0.99664949
 ,-0.89984217,-1.68959972\H,0,1.15210593,0.06700156,-2.18384213\C,0,2.2
 0795421,-1.80193288,-1.96341778\H,0,2.34988276,-1.91647138,-3.04235016
 \H,0,1.97373488,-2.80377274,-1.56776649\C,0,3.48149551,-1.28681609,-1.
 31930225\C,0,3.41814271,-0.92888592,0.1689126\C,0,2.12712141,-0.089381
 27,0.42183869\H,0,2.28087448,0.91366135,0.\H,0,1.98335954,0.04544154,1
 .49909022\C,0,0.84313711,-0.67509536,-0.18565542\H,0,0.59170663,-1.631
 90353,0.29545453\H,0,0.,0.,0.\C,0,4.60289259,-1.17562661,-2.0434327\H,
 0,4.59097114,-1.43436,-3.099851\C,0,5.94104841,-0.75134195,-1.51420016
 \H,0,6.25376026,0.19224205,-1.9878271\C,0,6.00789319,-0.62194483,0.016
 47512\H,0,6.16773875,-1.63345041,0.41179973\C,0,4.6625826,-0.05970136,
 0.55883603\H,0,4.51721644,0.90776625,0.05099785\C,0,4.7481227,0.241541
 56,2.07371908\H,0,4.79567568,-0.69690344,2.63635809\H,0,3.82985619,0.7
 4266037,2.39824622\C,0,5.94924786,1.12107025,2.47057317\H,0,5.82852279
 ,2.11916052,2.02661775\H,0,5.94223166,1.2583896,3.55825734\C,0,7.28272
 022,0.51762611,1.99194303\C,0,7.15915293,0.3027737,0.45341963\H,0,6.90
 515758,1.29514949,0.04416897\C,0,8.6002331,0.,0.\H,0,8.76092541,0.2480
 1069,-1.05379049\H,0,8.82376387,-1.06623808,0.10625507\C,0,9.48018775,
 0.86198033,0.94891878\H,0,10.25039471,0.24687534,1.4251907\H,0,10.0118
 9093,1.65340161,0.40905684\C,0,8.51763587,1.48451525,2.00836891\H,0,8.
 13784119,2.41344766,1.56049327\C,0,7.56323559,-0.80953085,2.73463643\H
 ,0,6.84589496,-1.58925881,2.4664053\H,0,8.55961357,-1.20284754,2.51826
 079\H,0,7.49216447,-0.66878017,3.81685619\C,0,9.2547649,1.94127393,3.3
 0022768\H,0,10.08859958,2.54964988,2.91773668\C,0,9.90844692,0.8378342
 8,4.15665021\H,0,9.17571952,0.29934073,4.76483061\H,0,10.63058382,1.28
 910136,4.84652314\H,0,10.45032164,0.10127139,3.55634445\C,0,3.35436945
 ,-2.24338986,0.99190241\H,0,3.15503673,-2.04297011,2.04926851\H,0,2.55
 853197,-2.90143471,0.63339451\H,0,4.29118393,-2.80347382,0.91712942\O,
 0,6.93987661,-1.74793717,-1.84876699\O,0,7.12163536,-1.72824898,-3.296
 8121\H,0,8.03738889,-1.40892944,-3.35127117\O,0,-0.19579789,-1.4119028
 8,-2.29114731\H,0,-0.39146981,-2.27637272,-1.9030854\C,0,8.4244483,2.8
 639893,4.22603662\H,0,7.57523141,2.29786068,4.62937444\H,0,9.05358969,
 3.10940015,5.09390155\C,0,7.90533164,4.18661082,3.63120179\H,0,7.21350
 586,3.98252835,2.80647414\H,0,7.30687476,4.68877584,4.4047546\C,0,9.00
 922722,5.15013944,3.16706719\H,0,9.54071275,4.72813179,2.30186193\H,0,
 9.75651385,5.23657992,3.96949747\C,0,8.5259133,6.56787158,2.79829582\H
 ,0,7.97582292,6.9663405,3.66495172\C,0,9.72288146,7.49571159,2.5369033
 3\H,0,10.31033179,7.1436807,1.67912088\H,0,9.39369684,8.51744939,2.315
 95373\H,0,10.39255157,7.53866847,3.40351511\C,0,7.57089456,6.57007023,
 1.59354743\H,0,8.06477355,6.15357281,0.70577315\H,0,7.25348937,7.58977
 983,1.34754342\H,0,6.6678911,5.98068023,1.78160621\\Version=EM64L-G09R
 evC.01\HF=-1273.6770444\RMSD=5.718e-07\Dipole=0.4650355,0.4358449,0.88
 97819\Quadrupole=5.5864816,-1.3155904,-4.2708912,9.4111487,-0.3956034,
 -3.1189696\PG=C01 [X(C27H46O3)]\\@


 Standing in the middle of the road is very dangerous;
 you get knocked down by the traffic from both sides.
                                -- Margaret Thatcher
 Job cpu time:  0 days  0 hours 41 minutes 55.1 seconds.
 File lengths (MBytes):  RWF=    159 Int=      0 D2E=      0 Chk=     11 Scr=      1
 Normal termination of Gaussian 09 at Fri Apr 28 13:14:40 2017.
