 Entering Gaussian System, Link 0=/scratch/michal/g09//g09
 Input=JOB2-gau_m1-19-3.com
 Output=JOB2-gau_m1-19-3.log
 Initial command:
 /scratch/michal/g09/l1.exe /scratch/michal/gauss_scratch/Gau-18748.inp -scrdir=/scratch/michal/gauss_scratch/
 Entering Link 1 = /scratch/michal/g09/l1.exe PID=     18750.
  
 Copyright (c) 1988,1990,1992,1993,1995,1998,2003,2009,2011,
            Gaussian, Inc.  All Rights Reserved.
  
 This is part of the Gaussian(R) 09 program.  It is based on
 the Gaussian(R) 03 system (copyright 2003, Gaussian, Inc.),
 the Gaussian(R) 98 system (copyright 1998, Gaussian, Inc.),
 the Gaussian(R) 94 system (copyright 1995, Gaussian, Inc.),
 the Gaussian 92(TM) system (copyright 1992, Gaussian, Inc.),
 the Gaussian 90(TM) system (copyright 1990, Gaussian, Inc.),
 the Gaussian 88(TM) system (copyright 1988, Gaussian, Inc.),
 the Gaussian 86(TM) system (copyright 1986, Carnegie Mellon
 University), and the Gaussian 82(TM) system (copyright 1983,
 Carnegie Mellon University). Gaussian is a federally registered
 trademark of Gaussian, Inc.
  
 This software contains proprietary and confidential information,
 including trade secrets, belonging to Gaussian, Inc.
  
 This software is provided under written license and may be
 used, copied, transmitted, or stored only in accord with that
 written license.
  
 The following legend is applicable only to US Government
 contracts under FAR:
  
                    RESTRICTED RIGHTS LEGEND
  
 Use, reproduction and disclosure by the US Government is
 subject to restrictions as set forth in subparagraphs (a)
 and (c) of the Commercial Computer Software - Restricted
 Rights clause in FAR 52.227-19.
  
 Gaussian, Inc.
 340 Quinnipiac St., Bldg. 40, Wallingford CT 06492
  
  
 ---------------------------------------------------------------
 Warning -- This program may not be used in any manner that
 competes with the business of Gaussian, Inc. or will provide
 assistance to any competitor of Gaussian, Inc.  The licensee
 of this program is prohibited from giving any competitor of
 Gaussian, Inc. access to this program.  By using this program,
 the user acknowledges that Gaussian, Inc. is engaged in the
 business of creating and licensing software in the field of
 computational chemistry and represents and warrants to the
 licensee that it is not a competitor of Gaussian, Inc. and that
 it will not use this program in any manner prohibited above.
 ---------------------------------------------------------------
  

 Cite this work as:
 Gaussian 09, Revision C.01,
 M. J. Frisch, G. W. Trucks, H. B. Schlegel, G. E. Scuseria, 
 M. A. Robb, J. R. Cheeseman, G. Scalmani, V. Barone, B. Mennucci, 
 G. A. Petersson, H. Nakatsuji, M. Caricato, X. Li, H. P. Hratchian, 
 A. F. Izmaylov, J. Bloino, G. Zheng, J. L. Sonnenberg, M. Hada, 
 M. Ehara, K. Toyota, R. Fukuda, J. Hasegawa, M. Ishida, T. Nakajima, 
 Y. Honda, O. Kitao, H. Nakai, T. Vreven, J. A. Montgomery, Jr., 
 J. E. Peralta, F. Ogliaro, M. Bearpark, J. J. Heyd, E. Brothers, 
 K. N. Kudin, V. N. Staroverov, T. Keith, R. Kobayashi, J. Normand, 
 K. Raghavachari, A. Rendell, J. C. Burant, S. S. Iyengar, J. Tomasi, 
 M. Cossi, N. Rega, J. M. Millam, M. Klene, J. E. Knox, J. B. Cross, 
 V. Bakken, C. Adamo, J. Jaramillo, R. Gomperts, R. E. Stratmann, 
 O. Yazyev, A. J. Austin, R. Cammi, C. Pomelli, J. W. Ochterski, 
 R. L. Martin, K. Morokuma, V. G. Zakrzewski, G. A. Voth, 
 P. Salvador, J. J. Dannenberg, S. Dapprich, A. D. Daniels, 
 O. Farkas, J. B. Foresman, J. V. Ortiz, J. Cioslowski, 
 and D. J. Fox, Gaussian, Inc., Wallingford CT, 2010.
 
 ******************************************
 Gaussian 09:  EM64L-G09RevC.01 23-Sep-2011
                28-Apr-2017 
 ******************************************
 %Mem=256MB
 %NProc=48
 Will use up to   48 processors via shared memory.
 ----------------------------------------------------------------------
 #P HF/6-31G* SCF(Conver=6) NoSymm Test Pop=chelpg IOp(6/33=2) GFInput 
 GFPrint
 ----------------------------------------------------------------------
 1/38=1/1;
 2/12=2,15=1,17=6,18=5,40=1/2;
 3/5=1,6=6,7=1,11=9,16=1,24=110,25=1,30=1/1,2,3;
 4//1;
 5/5=2,6=6,38=5/2;
 6/7=2,8=2,9=2,10=2,15=8,20=3,28=1,33=2/1,2;
 99/5=1,9=1/99;
 Leave Link    1 at Fri Apr 28 13:39:24 2017, MaxMem=   33554432 cpu:       6.8
 (Enter /scratch/michal/g09/l101.exe)
 ----------------------------------------------
 MEP - Input generated by R.E.D.-III.x MOLECULE
 ----------------------------------------------
 Charge =  0 Multiplicity = 1
 Symbolic Z-Matrix:
 C                    -1.0108    1.98327   1.68426 
 H                    -0.99206   1.00593   2.18194 
 C                     0.31622   2.70656   1.95238 
 H                     0.47531   2.80414   3.0306 
 H                     0.22472   3.7299    1.55293 
 C                     1.50289   2.01452   1.30822 
 C                     1.38619   1.66234  -0.17816 
 C                    -0.01112   1.01308  -0.42569 
 H                     0.        0.        0. 
 H                    -0.17459   0.8958   -1.50218 
 C                    -1.19798   1.77695   0.18145 
 H                    -1.31266   2.75796  -0.30299 
 H                    -2.12858   1.22727   0. 
 C                     2.59964   1.75047   2.03045 
 H                     2.62724   2.01339   3.08555 
 C                     3.86359   1.14032   1.5003 
 H                     4.04328   0.16531   1.97943 
 C                     3.90646   0.99252  -0.02955 
 H                     4.20862   1.96739  -0.43429 
 C                     2.49409   0.62376  -0.56517 
 H                     2.2146   -0.31068  -0.05167 
 C                     2.53519   0.30695  -2.0778 
 H                     2.70611   1.22905  -2.64373 
 H                     1.55732  -0.06741  -2.39934 
 C                     3.60598  -0.726    -2.47908 
 H                     3.3558   -1.70125  -2.0369 
 H                     3.57064  -0.85898  -3.56503 
 C                     5.01195  -0.31303  -2.00114 
 C                     4.91314  -0.08872  -0.46431 
 H                     4.51688  -1.03734  -0.06316 
 C                     6.37648   0.        0. 
 H                     6.49209  -0.26785   1.0549 
 H                     6.75607   1.02129  -0.10476 
 C                     7.12549  -0.98237  -0.9417 
 H                     7.99149  -0.49096  -1.40051 
 H                     7.51747  -1.84626  -0.39527 
 C                     6.10997  -1.43182  -2.04197 
 H                     5.61198  -2.34793  -1.69127 
 C                     5.49638   0.94752  -2.75305 
 H                     4.84814   1.81046  -2.58121 
 H                     6.50719   1.24068  -2.45417 
 H                     5.5142    0.7683   -3.83325 
 C                     6.80386  -1.77056  -3.38488 
 H                     7.31111  -0.85776  -3.72993 
 C                     5.83024  -2.19991  -4.49864 
 H                     5.15992  -3.00221  -4.17064 
 H                     6.38463  -2.5669   -5.3705 
 H                     5.20591  -1.36981  -4.83866 
 C                     1.50774   2.96919  -1.00682 
 H                     1.27765   2.79541  -2.06265 
 H                     0.81541   3.73534  -0.64833 
 H                     2.51521   3.39012  -0.93757 
 O                     4.9928    1.98994   1.82565 
 O                     5.17591   1.9532    3.2732 
 H                     6.03845   1.50969   3.32664 
 O                    -2.11771   2.66048   2.28603 
 H                    -2.1908    3.54237   1.89473 
 C                     7.92748  -2.82797  -3.21273 
 H                     8.42795  -2.93946  -4.18526 
 H                     8.69215  -2.43915  -2.52879 
 C                     7.49488  -4.22129  -2.72734 
 H                     7.0352   -4.1466   -1.73212 
 H                     6.72198  -4.62023  -3.39467 
 C                     8.67346  -5.20433  -2.65409 
 H                     9.4681   -4.75222  -2.04316 
 H                     9.10201  -5.33405  -3.6598 
 C                     8.34366  -6.59372  -2.07139 
 H                     7.88604  -6.43851  -1.08188 
 C                     7.34071  -7.37412  -2.93664 
 H                     7.73982  -7.5311   -3.9473 
 H                     7.13565  -8.36034  -2.5048 
 H                     6.38372  -6.85164  -3.03286 
 C                     9.62873  -7.41212  -1.86865 
 H                     10.13011  -7.59587  -2.8276 
 H                     9.41312  -8.38648  -1.41554 
 H                     10.33806  -6.8885   -1.2175 
 
 NAtoms=     76 NQM=        0 NQMF=       0 NMMI=     76 NMMIF=      0
                NMic=       0 NMicF=      0.
                    Isotopes and Nuclear Properties:
 (Nuclear quadrupole moments (NQMom) in fm**2, nuclear magnetic moments (NMagM)
  in nuclear magnetons)

  Atom         1           2           3           4           5           6           7           8           9          10
 IAtWgt=          12           1          12           1           1          12          12          12           1           1
 AtmWgt=  12.0000000   1.0078250  12.0000000   1.0078250   1.0078250  12.0000000  12.0000000  12.0000000   1.0078250   1.0078250
 NucSpn=           0           1           0           1           1           0           0           0           1           1
 AtZEff=   0.0000000   0.0000000   0.0000000   0.0000000   0.0000000   0.0000000   0.0000000   0.0000000   0.0000000   0.0000000
 NQMom=    0.0000000   0.0000000   0.0000000   0.0000000   0.0000000   0.0000000   0.0000000   0.0000000   0.0000000   0.0000000
 NMagM=    0.0000000   2.7928460   0.0000000   2.7928460   2.7928460   0.0000000   0.0000000   0.0000000   2.7928460   2.7928460

  Atom        11          12          13          14          15          16          17          18          19          20
 IAtWgt=          12           1           1          12           1          12           1          12           1          12
 AtmWgt=  12.0000000   1.0078250   1.0078250  12.0000000   1.0078250  12.0000000   1.0078250  12.0000000   1.0078250  12.0000000
 NucSpn=           0           1           1           0           1           0           1           0           1           0
 AtZEff=   0.0000000   0.0000000   0.0000000   0.0000000   0.0000000   0.0000000   0.0000000   0.0000000   0.0000000   0.0000000
 NQMom=    0.0000000   0.0000000   0.0000000   0.0000000   0.0000000   0.0000000   0.0000000   0.0000000   0.0000000   0.0000000
 NMagM=    0.0000000   2.7928460   2.7928460   0.0000000   2.7928460   0.0000000   2.7928460   0.0000000   2.7928460   0.0000000

  Atom        21          22          23          24          25          26          27          28          29          30
 IAtWgt=           1          12           1           1          12           1           1          12          12           1
 AtmWgt=   1.0078250  12.0000000   1.0078250   1.0078250  12.0000000   1.0078250   1.0078250  12.0000000  12.0000000   1.0078250
 NucSpn=           1           0           1           1           0           1           1           0           0           1
 AtZEff=   0.0000000   0.0000000   0.0000000   0.0000000   0.0000000   0.0000000   0.0000000   0.0000000   0.0000000   0.0000000
 NQMom=    0.0000000   0.0000000   0.0000000   0.0000000   0.0000000   0.0000000   0.0000000   0.0000000   0.0000000   0.0000000
 NMagM=    2.7928460   0.0000000   2.7928460   2.7928460   0.0000000   2.7928460   2.7928460   0.0000000   0.0000000   2.7928460

  Atom        31          32          33          34          35          36          37          38          39          40
 IAtWgt=          12           1           1          12           1           1          12           1          12           1
 AtmWgt=  12.0000000   1.0078250   1.0078250  12.0000000   1.0078250   1.0078250  12.0000000   1.0078250  12.0000000   1.0078250
 NucSpn=           0           1           1           0           1           1           0           1           0           1
 AtZEff=   0.0000000   0.0000000   0.0000000   0.0000000   0.0000000   0.0000000   0.0000000   0.0000000   0.0000000   0.0000000
 NQMom=    0.0000000   0.0000000   0.0000000   0.0000000   0.0000000   0.0000000   0.0000000   0.0000000   0.0000000   0.0000000
 NMagM=    0.0000000   2.7928460   2.7928460   0.0000000   2.7928460   2.7928460   0.0000000   2.7928460   0.0000000   2.7928460

  Atom        41          42          43          44          45          46          47          48          49          50
 IAtWgt=           1           1          12           1          12           1           1           1          12           1
 AtmWgt=   1.0078250   1.0078250  12.0000000   1.0078250  12.0000000   1.0078250   1.0078250   1.0078250  12.0000000   1.0078250
 NucSpn=           1           1           0           1           0           1           1           1           0           1
 AtZEff=   0.0000000   0.0000000   0.0000000   0.0000000   0.0000000   0.0000000   0.0000000   0.0000000   0.0000000   0.0000000
 NQMom=    0.0000000   0.0000000   0.0000000   0.0000000   0.0000000   0.0000000   0.0000000   0.0000000   0.0000000   0.0000000
 NMagM=    2.7928460   2.7928460   0.0000000   2.7928460   0.0000000   2.7928460   2.7928460   2.7928460   0.0000000   2.7928460

  Atom        51          52          53          54          55          56          57          58          59          60
 IAtWgt=           1           1          16          16           1          16           1          12           1           1
 AtmWgt=   1.0078250   1.0078250  15.9949146  15.9949146   1.0078250  15.9949146   1.0078250  12.0000000   1.0078250   1.0078250
 NucSpn=           1           1           0           0           1           0           1           0           1           1
 AtZEff=   0.0000000   0.0000000   0.0000000   0.0000000   0.0000000   0.0000000   0.0000000   0.0000000   0.0000000   0.0000000
 NQMom=    0.0000000   0.0000000   0.0000000   0.0000000   0.0000000   0.0000000   0.0000000   0.0000000   0.0000000   0.0000000
 NMagM=    2.7928460   2.7928460   0.0000000   0.0000000   2.7928460   0.0000000   2.7928460   0.0000000   2.7928460   2.7928460

  Atom        61          62          63          64          65          66          67          68          69          70
 IAtWgt=          12           1           1          12           1           1          12           1          12           1
 AtmWgt=  12.0000000   1.0078250   1.0078250  12.0000000   1.0078250   1.0078250  12.0000000   1.0078250  12.0000000   1.0078250
 NucSpn=           0           1           1           0           1           1           0           1           0           1
 AtZEff=   0.0000000   0.0000000   0.0000000   0.0000000   0.0000000   0.0000000   0.0000000   0.0000000   0.0000000   0.0000000
 NQMom=    0.0000000   0.0000000   0.0000000   0.0000000   0.0000000   0.0000000   0.0000000   0.0000000   0.0000000   0.0000000
 NMagM=    0.0000000   2.7928460   2.7928460   0.0000000   2.7928460   2.7928460   0.0000000   2.7928460   0.0000000   2.7928460

  Atom        71          72          73          74          75          76
 IAtWgt=           1           1          12           1           1           1
 AtmWgt=   1.0078250   1.0078250  12.0000000   1.0078250   1.0078250   1.0078250
 NucSpn=           1           1           0           1           1           1
 AtZEff=   0.0000000   0.0000000   0.0000000   0.0000000   0.0000000   0.0000000
 NQMom=    0.0000000   0.0000000   0.0000000   0.0000000   0.0000000   0.0000000
 NMagM=    2.7928460   2.7928460   0.0000000   2.7928460   2.7928460   2.7928460
 Leave Link  101 at Fri Apr 28 13:39:24 2017, MaxMem=   33554432 cpu:      13.6
 (Enter /scratch/michal/g09/l202.exe)
 Symmetry turned off by external request.
 Stoichiometry    C27H46O3
 Framework group  C1[X(C27H46O3)]
 Deg. of freedom   222
 Full point group                 C1      NOp   1
                          Input orientation:                          
 ---------------------------------------------------------------------
 Center     Atomic      Atomic             Coordinates (Angstroms)
 Number     Number       Type             X           Y           Z
 ---------------------------------------------------------------------
      1          6           0       -1.010799    1.983267    1.684256
      2          1           0       -0.992056    1.005925    2.181939
      3          6           0        0.316222    2.706560    1.952385
      4          1           0        0.475305    2.804139    3.030600
      5          1           0        0.224719    3.729896    1.552934
      6          6           0        1.502894    2.014524    1.308223
      7          6           0        1.386185    1.662341   -0.178159
      8          6           0       -0.011121    1.013080   -0.425693
      9          1           0        0.000000    0.000000    0.000000
     10          1           0       -0.174589    0.895805   -1.502180
     11          6           0       -1.197977    1.776950    0.181449
     12          1           0       -1.312656    2.757958   -0.302990
     13          1           0       -2.128581    1.227268    0.000000
     14          6           0        2.599640    1.750471    2.030453
     15          1           0        2.627239    2.013389    3.085555
     16          6           0        3.863595    1.140316    1.500301
     17          1           0        4.043277    0.165306    1.979429
     18          6           0        3.906456    0.992522   -0.029547
     19          1           0        4.208619    1.967386   -0.434286
     20          6           0        2.494093    0.623764   -0.565169
     21          1           0        2.214599   -0.310677   -0.051669
     22          6           0        2.535193    0.306951   -2.077798
     23          1           0        2.706109    1.229054   -2.643728
     24          1           0        1.557320   -0.067408   -2.399336
     25          6           0        3.605978   -0.726005   -2.479084
     26          1           0        3.355800   -1.701251   -2.036905
     27          1           0        3.570637   -0.858980   -3.565034
     28          6           0        5.011955   -0.313033   -2.001140
     29          6           0        4.913144   -0.088724   -0.464309
     30          1           0        4.516881   -1.037338   -0.063158
     31          6           0        6.376479    0.000000    0.000000
     32          1           0        6.492089   -0.267849    1.054896
     33          1           0        6.756075    1.021287   -0.104762
     34          6           0        7.125486   -0.982374   -0.941696
     35          1           0        7.991493   -0.490956   -1.400510
     36          1           0        7.517473   -1.846263   -0.395274
     37          6           0        6.109971   -1.431817   -2.041971
     38          1           0        5.611980   -2.347932   -1.691275
     39          6           0        5.496382    0.947523   -2.753046
     40          1           0        4.848140    1.810458   -2.581209
     41          1           0        6.507186    1.240678   -2.454170
     42          1           0        5.514200    0.768304   -3.833251
     43          6           0        6.803861   -1.770562   -3.384875
     44          1           0        7.311111   -0.857764   -3.729933
     45          6           0        5.830236   -2.199909   -4.498639
     46          1           0        5.159924   -3.002205   -4.170636
     47          1           0        6.384630   -2.566895   -5.370504
     48          1           0        5.205910   -1.369810   -4.838664
     49          6           0        1.507741    2.969194   -1.006818
     50          1           0        1.277647    2.795405   -2.062654
     51          1           0        0.815408    3.735340   -0.648333
     52          1           0        2.515214    3.390116   -0.937570
     53          8           0        4.992798    1.989944    1.825651
     54          8           0        5.175912    1.953198    3.273200
     55          1           0        6.038453    1.509688    3.326636
     56          8           0       -2.117711    2.660478    2.286028
     57          1           0       -2.190804    3.542365    1.894729
     58          6           0        7.927479   -2.827970   -3.212732
     59          1           0        8.427952   -2.939459   -4.185259
     60          1           0        8.692151   -2.439152   -2.528786
     61          6           0        7.494877   -4.221293   -2.727337
     62          1           0        7.035195   -4.146596   -1.732122
     63          1           0        6.721977   -4.620234   -3.394673
     64          6           0        8.673458   -5.204331   -2.654087
     65          1           0        9.468097   -4.752220   -2.043160
     66          1           0        9.102015   -5.334048   -3.659805
     67          6           0        8.343657   -6.593723   -2.071386
     68          1           0        7.886040   -6.438515   -1.081883
     69          6           0        7.340705   -7.374118   -2.936637
     70          1           0        7.739821   -7.531099   -3.947298
     71          1           0        7.135649   -8.360339   -2.504798
     72          1           0        6.383724   -6.851644   -3.032861
     73          6           0        9.628729   -7.412123   -1.868645
     74          1           0       10.130105   -7.595871   -2.827597
     75          1           0        9.413119   -8.386482   -1.415538
     76          1           0       10.338064   -6.888504   -1.217503
 ---------------------------------------------------------------------
 Rotational constants (GHZ):      0.2833375      0.0575755      0.0552950
 Leave Link  202 at Fri Apr 28 13:39:25 2017, MaxMem=   33554432 cpu:       0.1
 (Enter /scratch/michal/g09/l301.exe)
 Standard basis: 6-31G(d) (6D, 7F)
 Ernie: Thresh=  0.10000D-02 Tol=  0.10000D-05 Strict=F.
 AO basis set in the form of general basis input (Overlap normalization):
      1 0
 S   6 1.00       0.000000000000
      0.3047524880D+04  0.1834737132D-02
      0.4573695180D+03  0.1403732281D-01
      0.1039486850D+03  0.6884262226D-01
      0.2921015530D+02  0.2321844432D+00
      0.9286662960D+01  0.4679413484D+00
      0.3163926960D+01  0.3623119853D+00
 SP   3 1.00       0.000000000000
      0.7868272350D+01 -0.1193324198D+00  0.6899906659D-01
      0.1881288540D+01 -0.1608541517D+00  0.3164239610D+00
      0.5442492580D+00  0.1143456438D+01  0.7443082909D+00
 SP   1 1.00       0.000000000000
      0.1687144782D+00  0.1000000000D+01  0.1000000000D+01
 D   1 1.00       0.000000000000
      0.8000000000D+00  0.1000000000D+01
 ****
      2 0
 S   3 1.00       0.000000000000
      0.1873113696D+02  0.3349460434D-01
      0.2825394365D+01  0.2347269535D+00
      0.6401216923D+00  0.8137573261D+00
 S   1 1.00       0.000000000000
      0.1612777588D+00  0.1000000000D+01
 ****
      3 0
 S   6 1.00       0.000000000000
      0.3047524880D+04  0.1834737132D-02
      0.4573695180D+03  0.1403732281D-01
      0.1039486850D+03  0.6884262226D-01
      0.2921015530D+02  0.2321844432D+00
      0.9286662960D+01  0.4679413484D+00
      0.3163926960D+01  0.3623119853D+00
 SP   3 1.00       0.000000000000
      0.7868272350D+01 -0.1193324198D+00  0.6899906659D-01
      0.1881288540D+01 -0.1608541517D+00  0.3164239610D+00
      0.5442492580D+00  0.1143456438D+01  0.7443082909D+00
 SP   1 1.00       0.000000000000
      0.1687144782D+00  0.1000000000D+01  0.1000000000D+01
 D   1 1.00       0.000000000000
      0.8000000000D+00  0.1000000000D+01
 ****
      4 0
 S   3 1.00       0.000000000000
      0.1873113696D+02  0.3349460434D-01
      0.2825394365D+01  0.2347269535D+00
      0.6401216923D+00  0.8137573261D+00
 S   1 1.00       0.000000000000
      0.1612777588D+00  0.1000000000D+01
 ****
      5 0
 S   3 1.00       0.000000000000
      0.1873113696D+02  0.3349460434D-01
      0.2825394365D+01  0.2347269535D+00
      0.6401216923D+00  0.8137573261D+00
 S   1 1.00       0.000000000000
      0.1612777588D+00  0.1000000000D+01
 ****
      6 0
 S   6 1.00       0.000000000000
      0.3047524880D+04  0.1834737132D-02
      0.4573695180D+03  0.1403732281D-01
      0.1039486850D+03  0.6884262226D-01
      0.2921015530D+02  0.2321844432D+00
      0.9286662960D+01  0.4679413484D+00
      0.3163926960D+01  0.3623119853D+00
 SP   3 1.00       0.000000000000
      0.7868272350D+01 -0.1193324198D+00  0.6899906659D-01
      0.1881288540D+01 -0.1608541517D+00  0.3164239610D+00
      0.5442492580D+00  0.1143456438D+01  0.7443082909D+00
 SP   1 1.00       0.000000000000
      0.1687144782D+00  0.1000000000D+01  0.1000000000D+01
 D   1 1.00       0.000000000000
      0.8000000000D+00  0.1000000000D+01
 ****
      7 0
 S   6 1.00       0.000000000000
      0.3047524880D+04  0.1834737132D-02
      0.4573695180D+03  0.1403732281D-01
      0.1039486850D+03  0.6884262226D-01
      0.2921015530D+02  0.2321844432D+00
      0.9286662960D+01  0.4679413484D+00
      0.3163926960D+01  0.3623119853D+00
 SP   3 1.00       0.000000000000
      0.7868272350D+01 -0.1193324198D+00  0.6899906659D-01
      0.1881288540D+01 -0.1608541517D+00  0.3164239610D+00
      0.5442492580D+00  0.1143456438D+01  0.7443082909D+00
 SP   1 1.00       0.000000000000
      0.1687144782D+00  0.1000000000D+01  0.1000000000D+01
 D   1 1.00       0.000000000000
      0.8000000000D+00  0.1000000000D+01
 ****
      8 0
 S   6 1.00       0.000000000000
      0.3047524880D+04  0.1834737132D-02
      0.4573695180D+03  0.1403732281D-01
      0.1039486850D+03  0.6884262226D-01
      0.2921015530D+02  0.2321844432D+00
      0.9286662960D+01  0.4679413484D+00
      0.3163926960D+01  0.3623119853D+00
 SP   3 1.00       0.000000000000
      0.7868272350D+01 -0.1193324198D+00  0.6899906659D-01
      0.1881288540D+01 -0.1608541517D+00  0.3164239610D+00
      0.5442492580D+00  0.1143456438D+01  0.7443082909D+00
 SP   1 1.00       0.000000000000
      0.1687144782D+00  0.1000000000D+01  0.1000000000D+01
 D   1 1.00       0.000000000000
      0.8000000000D+00  0.1000000000D+01
 ****
      9 0
 S   3 1.00       0.000000000000
      0.1873113696D+02  0.3349460434D-01
      0.2825394365D+01  0.2347269535D+00
      0.6401216923D+00  0.8137573261D+00
 S   1 1.00       0.000000000000
      0.1612777588D+00  0.1000000000D+01
 ****
     10 0
 S   3 1.00       0.000000000000
      0.1873113696D+02  0.3349460434D-01
      0.2825394365D+01  0.2347269535D+00
      0.6401216923D+00  0.8137573261D+00
 S   1 1.00       0.000000000000
      0.1612777588D+00  0.1000000000D+01
 ****
     11 0
 S   6 1.00       0.000000000000
      0.3047524880D+04  0.1834737132D-02
      0.4573695180D+03  0.1403732281D-01
      0.1039486850D+03  0.6884262226D-01
      0.2921015530D+02  0.2321844432D+00
      0.9286662960D+01  0.4679413484D+00
      0.3163926960D+01  0.3623119853D+00
 SP   3 1.00       0.000000000000
      0.7868272350D+01 -0.1193324198D+00  0.6899906659D-01
      0.1881288540D+01 -0.1608541517D+00  0.3164239610D+00
      0.5442492580D+00  0.1143456438D+01  0.7443082909D+00
 SP   1 1.00       0.000000000000
      0.1687144782D+00  0.1000000000D+01  0.1000000000D+01
 D   1 1.00       0.000000000000
      0.8000000000D+00  0.1000000000D+01
 ****
     12 0
 S   3 1.00       0.000000000000
      0.1873113696D+02  0.3349460434D-01
      0.2825394365D+01  0.2347269535D+00
      0.6401216923D+00  0.8137573261D+00
 S   1 1.00       0.000000000000
      0.1612777588D+00  0.1000000000D+01
 ****
     13 0
 S   3 1.00       0.000000000000
      0.1873113696D+02  0.3349460434D-01
      0.2825394365D+01  0.2347269535D+00
      0.6401216923D+00  0.8137573261D+00
 S   1 1.00       0.000000000000
      0.1612777588D+00  0.1000000000D+01
 ****
     14 0
 S   6 1.00       0.000000000000
      0.3047524880D+04  0.1834737132D-02
      0.4573695180D+03  0.1403732281D-01
      0.1039486850D+03  0.6884262226D-01
      0.2921015530D+02  0.2321844432D+00
      0.9286662960D+01  0.4679413484D+00
      0.3163926960D+01  0.3623119853D+00
 SP   3 1.00       0.000000000000
      0.7868272350D+01 -0.1193324198D+00  0.6899906659D-01
      0.1881288540D+01 -0.1608541517D+00  0.3164239610D+00
      0.5442492580D+00  0.1143456438D+01  0.7443082909D+00
 SP   1 1.00       0.000000000000
      0.1687144782D+00  0.1000000000D+01  0.1000000000D+01
 D   1 1.00       0.000000000000
      0.8000000000D+00  0.1000000000D+01
 ****
     15 0
 S   3 1.00       0.000000000000
      0.1873113696D+02  0.3349460434D-01
      0.2825394365D+01  0.2347269535D+00
      0.6401216923D+00  0.8137573261D+00
 S   1 1.00       0.000000000000
      0.1612777588D+00  0.1000000000D+01
 ****
     16 0
 S   6 1.00       0.000000000000
      0.3047524880D+04  0.1834737132D-02
      0.4573695180D+03  0.1403732281D-01
      0.1039486850D+03  0.6884262226D-01
      0.2921015530D+02  0.2321844432D+00
      0.9286662960D+01  0.4679413484D+00
      0.3163926960D+01  0.3623119853D+00
 SP   3 1.00       0.000000000000
      0.7868272350D+01 -0.1193324198D+00  0.6899906659D-01
      0.1881288540D+01 -0.1608541517D+00  0.3164239610D+00
      0.5442492580D+00  0.1143456438D+01  0.7443082909D+00
 SP   1 1.00       0.000000000000
      0.1687144782D+00  0.1000000000D+01  0.1000000000D+01
 D   1 1.00       0.000000000000
      0.8000000000D+00  0.1000000000D+01
 ****
     17 0
 S   3 1.00       0.000000000000
      0.1873113696D+02  0.3349460434D-01
      0.2825394365D+01  0.2347269535D+00
      0.6401216923D+00  0.8137573261D+00
 S   1 1.00       0.000000000000
      0.1612777588D+00  0.1000000000D+01
 ****
     18 0
 S   6 1.00       0.000000000000
      0.3047524880D+04  0.1834737132D-02
      0.4573695180D+03  0.1403732281D-01
      0.1039486850D+03  0.6884262226D-01
      0.2921015530D+02  0.2321844432D+00
      0.9286662960D+01  0.4679413484D+00
      0.3163926960D+01  0.3623119853D+00
 SP   3 1.00       0.000000000000
      0.7868272350D+01 -0.1193324198D+00  0.6899906659D-01
      0.1881288540D+01 -0.1608541517D+00  0.3164239610D+00
      0.5442492580D+00  0.1143456438D+01  0.7443082909D+00
 SP   1 1.00       0.000000000000
      0.1687144782D+00  0.1000000000D+01  0.1000000000D+01
 D   1 1.00       0.000000000000
      0.8000000000D+00  0.1000000000D+01
 ****
     19 0
 S   3 1.00       0.000000000000
      0.1873113696D+02  0.3349460434D-01
      0.2825394365D+01  0.2347269535D+00
      0.6401216923D+00  0.8137573261D+00
 S   1 1.00       0.000000000000
      0.1612777588D+00  0.1000000000D+01
 ****
     20 0
 S   6 1.00       0.000000000000
      0.3047524880D+04  0.1834737132D-02
      0.4573695180D+03  0.1403732281D-01
      0.1039486850D+03  0.6884262226D-01
      0.2921015530D+02  0.2321844432D+00
      0.9286662960D+01  0.4679413484D+00
      0.3163926960D+01  0.3623119853D+00
 SP   3 1.00       0.000000000000
      0.7868272350D+01 -0.1193324198D+00  0.6899906659D-01
      0.1881288540D+01 -0.1608541517D+00  0.3164239610D+00
      0.5442492580D+00  0.1143456438D+01  0.7443082909D+00
 SP   1 1.00       0.000000000000
      0.1687144782D+00  0.1000000000D+01  0.1000000000D+01
 D   1 1.00       0.000000000000
      0.8000000000D+00  0.1000000000D+01
 ****
     21 0
 S   3 1.00       0.000000000000
      0.1873113696D+02  0.3349460434D-01
      0.2825394365D+01  0.2347269535D+00
      0.6401216923D+00  0.8137573261D+00
 S   1 1.00       0.000000000000
      0.1612777588D+00  0.1000000000D+01
 ****
     22 0
 S   6 1.00       0.000000000000
      0.3047524880D+04  0.1834737132D-02
      0.4573695180D+03  0.1403732281D-01
      0.1039486850D+03  0.6884262226D-01
      0.2921015530D+02  0.2321844432D+00
      0.9286662960D+01  0.4679413484D+00
      0.3163926960D+01  0.3623119853D+00
 SP   3 1.00       0.000000000000
      0.7868272350D+01 -0.1193324198D+00  0.6899906659D-01
      0.1881288540D+01 -0.1608541517D+00  0.3164239610D+00
      0.5442492580D+00  0.1143456438D+01  0.7443082909D+00
 SP   1 1.00       0.000000000000
      0.1687144782D+00  0.1000000000D+01  0.1000000000D+01
 D   1 1.00       0.000000000000
      0.8000000000D+00  0.1000000000D+01
 ****
     23 0
 S   3 1.00       0.000000000000
      0.1873113696D+02  0.3349460434D-01
      0.2825394365D+01  0.2347269535D+00
      0.6401216923D+00  0.8137573261D+00
 S   1 1.00       0.000000000000
      0.1612777588D+00  0.1000000000D+01
 ****
     24 0
 S   3 1.00       0.000000000000
      0.1873113696D+02  0.3349460434D-01
      0.2825394365D+01  0.2347269535D+00
      0.6401216923D+00  0.8137573261D+00
 S   1 1.00       0.000000000000
      0.1612777588D+00  0.1000000000D+01
 ****
     25 0
 S   6 1.00       0.000000000000
      0.3047524880D+04  0.1834737132D-02
      0.4573695180D+03  0.1403732281D-01
      0.1039486850D+03  0.6884262226D-01
      0.2921015530D+02  0.2321844432D+00
      0.9286662960D+01  0.4679413484D+00
      0.3163926960D+01  0.3623119853D+00
 SP   3 1.00       0.000000000000
      0.7868272350D+01 -0.1193324198D+00  0.6899906659D-01
      0.1881288540D+01 -0.1608541517D+00  0.3164239610D+00
      0.5442492580D+00  0.1143456438D+01  0.7443082909D+00
 SP   1 1.00       0.000000000000
      0.1687144782D+00  0.1000000000D+01  0.1000000000D+01
 D   1 1.00       0.000000000000
      0.8000000000D+00  0.1000000000D+01
 ****
     26 0
 S   3 1.00       0.000000000000
      0.1873113696D+02  0.3349460434D-01
      0.2825394365D+01  0.2347269535D+00
      0.6401216923D+00  0.8137573261D+00
 S   1 1.00       0.000000000000
      0.1612777588D+00  0.1000000000D+01
 ****
     27 0
 S   3 1.00       0.000000000000
      0.1873113696D+02  0.3349460434D-01
      0.2825394365D+01  0.2347269535D+00
      0.6401216923D+00  0.8137573261D+00
 S   1 1.00       0.000000000000
      0.1612777588D+00  0.1000000000D+01
 ****
     28 0
 S   6 1.00       0.000000000000
      0.3047524880D+04  0.1834737132D-02
      0.4573695180D+03  0.1403732281D-01
      0.1039486850D+03  0.6884262226D-01
      0.2921015530D+02  0.2321844432D+00
      0.9286662960D+01  0.4679413484D+00
      0.3163926960D+01  0.3623119853D+00
 SP   3 1.00       0.000000000000
      0.7868272350D+01 -0.1193324198D+00  0.6899906659D-01
      0.1881288540D+01 -0.1608541517D+00  0.3164239610D+00
      0.5442492580D+00  0.1143456438D+01  0.7443082909D+00
 SP   1 1.00       0.000000000000
      0.1687144782D+00  0.1000000000D+01  0.1000000000D+01
 D   1 1.00       0.000000000000
      0.8000000000D+00  0.1000000000D+01
 ****
     29 0
 S   6 1.00       0.000000000000
      0.3047524880D+04  0.1834737132D-02
      0.4573695180D+03  0.1403732281D-01
      0.1039486850D+03  0.6884262226D-01
      0.2921015530D+02  0.2321844432D+00
      0.9286662960D+01  0.4679413484D+00
      0.3163926960D+01  0.3623119853D+00
 SP   3 1.00       0.000000000000
      0.7868272350D+01 -0.1193324198D+00  0.6899906659D-01
      0.1881288540D+01 -0.1608541517D+00  0.3164239610D+00
      0.5442492580D+00  0.1143456438D+01  0.7443082909D+00
 SP   1 1.00       0.000000000000
      0.1687144782D+00  0.1000000000D+01  0.1000000000D+01
 D   1 1.00       0.000000000000
      0.8000000000D+00  0.1000000000D+01
 ****
     30 0
 S   3 1.00       0.000000000000
      0.1873113696D+02  0.3349460434D-01
      0.2825394365D+01  0.2347269535D+00
      0.6401216923D+00  0.8137573261D+00
 S   1 1.00       0.000000000000
      0.1612777588D+00  0.1000000000D+01
 ****
     31 0
 S   6 1.00       0.000000000000
      0.3047524880D+04  0.1834737132D-02
      0.4573695180D+03  0.1403732281D-01
      0.1039486850D+03  0.6884262226D-01
      0.2921015530D+02  0.2321844432D+00
      0.9286662960D+01  0.4679413484D+00
      0.3163926960D+01  0.3623119853D+00
 SP   3 1.00       0.000000000000
      0.7868272350D+01 -0.1193324198D+00  0.6899906659D-01
      0.1881288540D+01 -0.1608541517D+00  0.3164239610D+00
      0.5442492580D+00  0.1143456438D+01  0.7443082909D+00
 SP   1 1.00       0.000000000000
      0.1687144782D+00  0.1000000000D+01  0.1000000000D+01
 D   1 1.00       0.000000000000
      0.8000000000D+00  0.1000000000D+01
 ****
     32 0
 S   3 1.00       0.000000000000
      0.1873113696D+02  0.3349460434D-01
      0.2825394365D+01  0.2347269535D+00
      0.6401216923D+00  0.8137573261D+00
 S   1 1.00       0.000000000000
      0.1612777588D+00  0.1000000000D+01
 ****
     33 0
 S   3 1.00       0.000000000000
      0.1873113696D+02  0.3349460434D-01
      0.2825394365D+01  0.2347269535D+00
      0.6401216923D+00  0.8137573261D+00
 S   1 1.00       0.000000000000
      0.1612777588D+00  0.1000000000D+01
 ****
     34 0
 S   6 1.00       0.000000000000
      0.3047524880D+04  0.1834737132D-02
      0.4573695180D+03  0.1403732281D-01
      0.1039486850D+03  0.6884262226D-01
      0.2921015530D+02  0.2321844432D+00
      0.9286662960D+01  0.4679413484D+00
      0.3163926960D+01  0.3623119853D+00
 SP   3 1.00       0.000000000000
      0.7868272350D+01 -0.1193324198D+00  0.6899906659D-01
      0.1881288540D+01 -0.1608541517D+00  0.3164239610D+00
      0.5442492580D+00  0.1143456438D+01  0.7443082909D+00
 SP   1 1.00       0.000000000000
      0.1687144782D+00  0.1000000000D+01  0.1000000000D+01
 D   1 1.00       0.000000000000
      0.8000000000D+00  0.1000000000D+01
 ****
     35 0
 S   3 1.00       0.000000000000
      0.1873113696D+02  0.3349460434D-01
      0.2825394365D+01  0.2347269535D+00
      0.6401216923D+00  0.8137573261D+00
 S   1 1.00       0.000000000000
      0.1612777588D+00  0.1000000000D+01
 ****
     36 0
 S   3 1.00       0.000000000000
      0.1873113696D+02  0.3349460434D-01
      0.2825394365D+01  0.2347269535D+00
      0.6401216923D+00  0.8137573261D+00
 S   1 1.00       0.000000000000
      0.1612777588D+00  0.1000000000D+01
 ****
     37 0
 S   6 1.00       0.000000000000
      0.3047524880D+04  0.1834737132D-02
      0.4573695180D+03  0.1403732281D-01
      0.1039486850D+03  0.6884262226D-01
      0.2921015530D+02  0.2321844432D+00
      0.9286662960D+01  0.4679413484D+00
      0.3163926960D+01  0.3623119853D+00
 SP   3 1.00       0.000000000000
      0.7868272350D+01 -0.1193324198D+00  0.6899906659D-01
      0.1881288540D+01 -0.1608541517D+00  0.3164239610D+00
      0.5442492580D+00  0.1143456438D+01  0.7443082909D+00
 SP   1 1.00       0.000000000000
      0.1687144782D+00  0.1000000000D+01  0.1000000000D+01
 D   1 1.00       0.000000000000
      0.8000000000D+00  0.1000000000D+01
 ****
     38 0
 S   3 1.00       0.000000000000
      0.1873113696D+02  0.3349460434D-01
      0.2825394365D+01  0.2347269535D+00
      0.6401216923D+00  0.8137573261D+00
 S   1 1.00       0.000000000000
      0.1612777588D+00  0.1000000000D+01
 ****
     39 0
 S   6 1.00       0.000000000000
      0.3047524880D+04  0.1834737132D-02
      0.4573695180D+03  0.1403732281D-01
      0.1039486850D+03  0.6884262226D-01
      0.2921015530D+02  0.2321844432D+00
      0.9286662960D+01  0.4679413484D+00
      0.3163926960D+01  0.3623119853D+00
 SP   3 1.00       0.000000000000
      0.7868272350D+01 -0.1193324198D+00  0.6899906659D-01
      0.1881288540D+01 -0.1608541517D+00  0.3164239610D+00
      0.5442492580D+00  0.1143456438D+01  0.7443082909D+00
 SP   1 1.00       0.000000000000
      0.1687144782D+00  0.1000000000D+01  0.1000000000D+01
 D   1 1.00       0.000000000000
      0.8000000000D+00  0.1000000000D+01
 ****
     40 0
 S   3 1.00       0.000000000000
      0.1873113696D+02  0.3349460434D-01
      0.2825394365D+01  0.2347269535D+00
      0.6401216923D+00  0.8137573261D+00
 S   1 1.00       0.000000000000
      0.1612777588D+00  0.1000000000D+01
 ****
     41 0
 S   3 1.00       0.000000000000
      0.1873113696D+02  0.3349460434D-01
      0.2825394365D+01  0.2347269535D+00
      0.6401216923D+00  0.8137573261D+00
 S   1 1.00       0.000000000000
      0.1612777588D+00  0.1000000000D+01
 ****
     42 0
 S   3 1.00       0.000000000000
      0.1873113696D+02  0.3349460434D-01
      0.2825394365D+01  0.2347269535D+00
      0.6401216923D+00  0.8137573261D+00
 S   1 1.00       0.000000000000
      0.1612777588D+00  0.1000000000D+01
 ****
     43 0
 S   6 1.00       0.000000000000
      0.3047524880D+04  0.1834737132D-02
      0.4573695180D+03  0.1403732281D-01
      0.1039486850D+03  0.6884262226D-01
      0.2921015530D+02  0.2321844432D+00
      0.9286662960D+01  0.4679413484D+00
      0.3163926960D+01  0.3623119853D+00
 SP   3 1.00       0.000000000000
      0.7868272350D+01 -0.1193324198D+00  0.6899906659D-01
      0.1881288540D+01 -0.1608541517D+00  0.3164239610D+00
      0.5442492580D+00  0.1143456438D+01  0.7443082909D+00
 SP   1 1.00       0.000000000000
      0.1687144782D+00  0.1000000000D+01  0.1000000000D+01
 D   1 1.00       0.000000000000
      0.8000000000D+00  0.1000000000D+01
 ****
     44 0
 S   3 1.00       0.000000000000
      0.1873113696D+02  0.3349460434D-01
      0.2825394365D+01  0.2347269535D+00
      0.6401216923D+00  0.8137573261D+00
 S   1 1.00       0.000000000000
      0.1612777588D+00  0.1000000000D+01
 ****
     45 0
 S   6 1.00       0.000000000000
      0.3047524880D+04  0.1834737132D-02
      0.4573695180D+03  0.1403732281D-01
      0.1039486850D+03  0.6884262226D-01
      0.2921015530D+02  0.2321844432D+00
      0.9286662960D+01  0.4679413484D+00
      0.3163926960D+01  0.3623119853D+00
 SP   3 1.00       0.000000000000
      0.7868272350D+01 -0.1193324198D+00  0.6899906659D-01
      0.1881288540D+01 -0.1608541517D+00  0.3164239610D+00
      0.5442492580D+00  0.1143456438D+01  0.7443082909D+00
 SP   1 1.00       0.000000000000
      0.1687144782D+00  0.1000000000D+01  0.1000000000D+01
 D   1 1.00       0.000000000000
      0.8000000000D+00  0.1000000000D+01
 ****
     46 0
 S   3 1.00       0.000000000000
      0.1873113696D+02  0.3349460434D-01
      0.2825394365D+01  0.2347269535D+00
      0.6401216923D+00  0.8137573261D+00
 S   1 1.00       0.000000000000
      0.1612777588D+00  0.1000000000D+01
 ****
     47 0
 S   3 1.00       0.000000000000
      0.1873113696D+02  0.3349460434D-01
      0.2825394365D+01  0.2347269535D+00
      0.6401216923D+00  0.8137573261D+00
 S   1 1.00       0.000000000000
      0.1612777588D+00  0.1000000000D+01
 ****
     48 0
 S   3 1.00       0.000000000000
      0.1873113696D+02  0.3349460434D-01
      0.2825394365D+01  0.2347269535D+00
      0.6401216923D+00  0.8137573261D+00
 S   1 1.00       0.000000000000
      0.1612777588D+00  0.1000000000D+01
 ****
     49 0
 S   6 1.00       0.000000000000
      0.3047524880D+04  0.1834737132D-02
      0.4573695180D+03  0.1403732281D-01
      0.1039486850D+03  0.6884262226D-01
      0.2921015530D+02  0.2321844432D+00
      0.9286662960D+01  0.4679413484D+00
      0.3163926960D+01  0.3623119853D+00
 SP   3 1.00       0.000000000000
      0.7868272350D+01 -0.1193324198D+00  0.6899906659D-01
      0.1881288540D+01 -0.1608541517D+00  0.3164239610D+00
      0.5442492580D+00  0.1143456438D+01  0.7443082909D+00
 SP   1 1.00       0.000000000000
      0.1687144782D+00  0.1000000000D+01  0.1000000000D+01
 D   1 1.00       0.000000000000
      0.8000000000D+00  0.1000000000D+01
 ****
     50 0
 S   3 1.00       0.000000000000
      0.1873113696D+02  0.3349460434D-01
      0.2825394365D+01  0.2347269535D+00
      0.6401216923D+00  0.8137573261D+00
 S   1 1.00       0.000000000000
      0.1612777588D+00  0.1000000000D+01
 ****
     51 0
 S   3 1.00       0.000000000000
      0.1873113696D+02  0.3349460434D-01
      0.2825394365D+01  0.2347269535D+00
      0.6401216923D+00  0.8137573261D+00
 S   1 1.00       0.000000000000
      0.1612777588D+00  0.1000000000D+01
 ****
     52 0
 S   3 1.00       0.000000000000
      0.1873113696D+02  0.3349460434D-01
      0.2825394365D+01  0.2347269535D+00
      0.6401216923D+00  0.8137573261D+00
 S   1 1.00       0.000000000000
      0.1612777588D+00  0.1000000000D+01
 ****
     53 0
 S   6 1.00       0.000000000000
      0.5484671660D+04  0.1831074430D-02
      0.8252349460D+03  0.1395017220D-01
      0.1880469580D+03  0.6844507810D-01
      0.5296450000D+02  0.2327143360D+00
      0.1689757040D+02  0.4701928980D+00
      0.5799635340D+01  0.3585208530D+00
 SP   3 1.00       0.000000000000
      0.1553961625D+02 -0.1107775495D+00  0.7087426823D-01
      0.3599933586D+01 -0.1480262627D+00  0.3397528391D+00
      0.1013761750D+01  0.1130767015D+01  0.7271585773D+00
 SP   1 1.00       0.000000000000
      0.2700058226D+00  0.1000000000D+01  0.1000000000D+01
 D   1 1.00       0.000000000000
      0.8000000000D+00  0.1000000000D+01
 ****
     54 0
 S   6 1.00       0.000000000000
      0.5484671660D+04  0.1831074430D-02
      0.8252349460D+03  0.1395017220D-01
      0.1880469580D+03  0.6844507810D-01
      0.5296450000D+02  0.2327143360D+00
      0.1689757040D+02  0.4701928980D+00
      0.5799635340D+01  0.3585208530D+00
 SP   3 1.00       0.000000000000
      0.1553961625D+02 -0.1107775495D+00  0.7087426823D-01
      0.3599933586D+01 -0.1480262627D+00  0.3397528391D+00
      0.1013761750D+01  0.1130767015D+01  0.7271585773D+00
 SP   1 1.00       0.000000000000
      0.2700058226D+00  0.1000000000D+01  0.1000000000D+01
 D   1 1.00       0.000000000000
      0.8000000000D+00  0.1000000000D+01
 ****
     55 0
 S   3 1.00       0.000000000000
      0.1873113696D+02  0.3349460434D-01
      0.2825394365D+01  0.2347269535D+00
      0.6401216923D+00  0.8137573261D+00
 S   1 1.00       0.000000000000
      0.1612777588D+00  0.1000000000D+01
 ****
     56 0
 S   6 1.00       0.000000000000
      0.5484671660D+04  0.1831074430D-02
      0.8252349460D+03  0.1395017220D-01
      0.1880469580D+03  0.6844507810D-01
      0.5296450000D+02  0.2327143360D+00
      0.1689757040D+02  0.4701928980D+00
      0.5799635340D+01  0.3585208530D+00
 SP   3 1.00       0.000000000000
      0.1553961625D+02 -0.1107775495D+00  0.7087426823D-01
      0.3599933586D+01 -0.1480262627D+00  0.3397528391D+00
      0.1013761750D+01  0.1130767015D+01  0.7271585773D+00
 SP   1 1.00       0.000000000000
      0.2700058226D+00  0.1000000000D+01  0.1000000000D+01
 D   1 1.00       0.000000000000
      0.8000000000D+00  0.1000000000D+01
 ****
     57 0
 S   3 1.00       0.000000000000
      0.1873113696D+02  0.3349460434D-01
      0.2825394365D+01  0.2347269535D+00
      0.6401216923D+00  0.8137573261D+00
 S   1 1.00       0.000000000000
      0.1612777588D+00  0.1000000000D+01
 ****
     58 0
 S   6 1.00       0.000000000000
      0.3047524880D+04  0.1834737132D-02
      0.4573695180D+03  0.1403732281D-01
      0.1039486850D+03  0.6884262226D-01
      0.2921015530D+02  0.2321844432D+00
      0.9286662960D+01  0.4679413484D+00
      0.3163926960D+01  0.3623119853D+00
 SP   3 1.00       0.000000000000
      0.7868272350D+01 -0.1193324198D+00  0.6899906659D-01
      0.1881288540D+01 -0.1608541517D+00  0.3164239610D+00
      0.5442492580D+00  0.1143456438D+01  0.7443082909D+00
 SP   1 1.00       0.000000000000
      0.1687144782D+00  0.1000000000D+01  0.1000000000D+01
 D   1 1.00       0.000000000000
      0.8000000000D+00  0.1000000000D+01
 ****
     59 0
 S   3 1.00       0.000000000000
      0.1873113696D+02  0.3349460434D-01
      0.2825394365D+01  0.2347269535D+00
      0.6401216923D+00  0.8137573261D+00
 S   1 1.00       0.000000000000
      0.1612777588D+00  0.1000000000D+01
 ****
     60 0
 S   3 1.00       0.000000000000
      0.1873113696D+02  0.3349460434D-01
      0.2825394365D+01  0.2347269535D+00
      0.6401216923D+00  0.8137573261D+00
 S   1 1.00       0.000000000000
      0.1612777588D+00  0.1000000000D+01
 ****
     61 0
 S   6 1.00       0.000000000000
      0.3047524880D+04  0.1834737132D-02
      0.4573695180D+03  0.1403732281D-01
      0.1039486850D+03  0.6884262226D-01
      0.2921015530D+02  0.2321844432D+00
      0.9286662960D+01  0.4679413484D+00
      0.3163926960D+01  0.3623119853D+00
 SP   3 1.00       0.000000000000
      0.7868272350D+01 -0.1193324198D+00  0.6899906659D-01
      0.1881288540D+01 -0.1608541517D+00  0.3164239610D+00
      0.5442492580D+00  0.1143456438D+01  0.7443082909D+00
 SP   1 1.00       0.000000000000
      0.1687144782D+00  0.1000000000D+01  0.1000000000D+01
 D   1 1.00       0.000000000000
      0.8000000000D+00  0.1000000000D+01
 ****
     62 0
 S   3 1.00       0.000000000000
      0.1873113696D+02  0.3349460434D-01
      0.2825394365D+01  0.2347269535D+00
      0.6401216923D+00  0.8137573261D+00
 S   1 1.00       0.000000000000
      0.1612777588D+00  0.1000000000D+01
 ****
     63 0
 S   3 1.00       0.000000000000
      0.1873113696D+02  0.3349460434D-01
      0.2825394365D+01  0.2347269535D+00
      0.6401216923D+00  0.8137573261D+00
 S   1 1.00       0.000000000000
      0.1612777588D+00  0.1000000000D+01
 ****
     64 0
 S   6 1.00       0.000000000000
      0.3047524880D+04  0.1834737132D-02
      0.4573695180D+03  0.1403732281D-01
      0.1039486850D+03  0.6884262226D-01
      0.2921015530D+02  0.2321844432D+00
      0.9286662960D+01  0.4679413484D+00
      0.3163926960D+01  0.3623119853D+00
 SP   3 1.00       0.000000000000
      0.7868272350D+01 -0.1193324198D+00  0.6899906659D-01
      0.1881288540D+01 -0.1608541517D+00  0.3164239610D+00
      0.5442492580D+00  0.1143456438D+01  0.7443082909D+00
 SP   1 1.00       0.000000000000
      0.1687144782D+00  0.1000000000D+01  0.1000000000D+01
 D   1 1.00       0.000000000000
      0.8000000000D+00  0.1000000000D+01
 ****
     65 0
 S   3 1.00       0.000000000000
      0.1873113696D+02  0.3349460434D-01
      0.2825394365D+01  0.2347269535D+00
      0.6401216923D+00  0.8137573261D+00
 S   1 1.00       0.000000000000
      0.1612777588D+00  0.1000000000D+01
 ****
     66 0
 S   3 1.00       0.000000000000
      0.1873113696D+02  0.3349460434D-01
      0.2825394365D+01  0.2347269535D+00
      0.6401216923D+00  0.8137573261D+00
 S   1 1.00       0.000000000000
      0.1612777588D+00  0.1000000000D+01
 ****
     67 0
 S   6 1.00       0.000000000000
      0.3047524880D+04  0.1834737132D-02
      0.4573695180D+03  0.1403732281D-01
      0.1039486850D+03  0.6884262226D-01
      0.2921015530D+02  0.2321844432D+00
      0.9286662960D+01  0.4679413484D+00
      0.3163926960D+01  0.3623119853D+00
 SP   3 1.00       0.000000000000
      0.7868272350D+01 -0.1193324198D+00  0.6899906659D-01
      0.1881288540D+01 -0.1608541517D+00  0.3164239610D+00
      0.5442492580D+00  0.1143456438D+01  0.7443082909D+00
 SP   1 1.00       0.000000000000
      0.1687144782D+00  0.1000000000D+01  0.1000000000D+01
 D   1 1.00       0.000000000000
      0.8000000000D+00  0.1000000000D+01
 ****
     68 0
 S   3 1.00       0.000000000000
      0.1873113696D+02  0.3349460434D-01
      0.2825394365D+01  0.2347269535D+00
      0.6401216923D+00  0.8137573261D+00
 S   1 1.00       0.000000000000
      0.1612777588D+00  0.1000000000D+01
 ****
     69 0
 S   6 1.00       0.000000000000
      0.3047524880D+04  0.1834737132D-02
      0.4573695180D+03  0.1403732281D-01
      0.1039486850D+03  0.6884262226D-01
      0.2921015530D+02  0.2321844432D+00
      0.9286662960D+01  0.4679413484D+00
      0.3163926960D+01  0.3623119853D+00
 SP   3 1.00       0.000000000000
      0.7868272350D+01 -0.1193324198D+00  0.6899906659D-01
      0.1881288540D+01 -0.1608541517D+00  0.3164239610D+00
      0.5442492580D+00  0.1143456438D+01  0.7443082909D+00
 SP   1 1.00       0.000000000000
      0.1687144782D+00  0.1000000000D+01  0.1000000000D+01
 D   1 1.00       0.000000000000
      0.8000000000D+00  0.1000000000D+01
 ****
     70 0
 S   3 1.00       0.000000000000
      0.1873113696D+02  0.3349460434D-01
      0.2825394365D+01  0.2347269535D+00
      0.6401216923D+00  0.8137573261D+00
 S   1 1.00       0.000000000000
      0.1612777588D+00  0.1000000000D+01
 ****
     71 0
 S   3 1.00       0.000000000000
      0.1873113696D+02  0.3349460434D-01
      0.2825394365D+01  0.2347269535D+00
      0.6401216923D+00  0.8137573261D+00
 S   1 1.00       0.000000000000
      0.1612777588D+00  0.1000000000D+01
 ****
     72 0
 S   3 1.00       0.000000000000
      0.1873113696D+02  0.3349460434D-01
      0.2825394365D+01  0.2347269535D+00
      0.6401216923D+00  0.8137573261D+00
 S   1 1.00       0.000000000000
      0.1612777588D+00  0.1000000000D+01
 ****
     73 0
 S   6 1.00       0.000000000000
      0.3047524880D+04  0.1834737132D-02
      0.4573695180D+03  0.1403732281D-01
      0.1039486850D+03  0.6884262226D-01
      0.2921015530D+02  0.2321844432D+00
      0.9286662960D+01  0.4679413484D+00
      0.3163926960D+01  0.3623119853D+00
 SP   3 1.00       0.000000000000
      0.7868272350D+01 -0.1193324198D+00  0.6899906659D-01
      0.1881288540D+01 -0.1608541517D+00  0.3164239610D+00
      0.5442492580D+00  0.1143456438D+01  0.7443082909D+00
 SP   1 1.00       0.000000000000
      0.1687144782D+00  0.1000000000D+01  0.1000000000D+01
 D   1 1.00       0.000000000000
      0.8000000000D+00  0.1000000000D+01
 ****
     74 0
 S   3 1.00       0.000000000000
      0.1873113696D+02  0.3349460434D-01
      0.2825394365D+01  0.2347269535D+00
      0.6401216923D+00  0.8137573261D+00
 S   1 1.00       0.000000000000
      0.1612777588D+00  0.1000000000D+01
 ****
     75 0
 S   3 1.00       0.000000000000
      0.1873113696D+02  0.3349460434D-01
      0.2825394365D+01  0.2347269535D+00
      0.6401216923D+00  0.8137573261D+00
 S   1 1.00       0.000000000000
      0.1612777588D+00  0.1000000000D+01
 ****
     76 0
 S   3 1.00       0.000000000000
      0.1873113696D+02  0.3349460434D-01
      0.2825394365D+01  0.2347269535D+00
      0.6401216923D+00  0.8137573261D+00
 S   1 1.00       0.000000000000
      0.1612777588D+00  0.1000000000D+01
 ****

 AO basis set (Overlap normalization):
 Atom C1       Shell     1 S   6     bf    1 -     1         -1.910133417676          3.747831837438          3.182783409149
      0.3047524880D+04  0.1834737132D-02
      0.4573695180D+03  0.1403732281D-01
      0.1039486850D+03  0.6884262226D-01
      0.2921015530D+02  0.2321844432D+00
      0.9286662960D+01  0.4679413484D+00
      0.3163926960D+01  0.3623119853D+00
 Atom C1       Shell     2 SP   3    bf    2 -     5         -1.910133417676          3.747831837438          3.182783409149
      0.7868272350D+01 -0.1193324198D+00  0.6899906659D-01
      0.1881288540D+01 -0.1608541517D+00  0.3164239610D+00
      0.5442492580D+00  0.1143456438D+01  0.7443082909D+00
 Atom C1       Shell     3 SP   1    bf    6 -     9         -1.910133417676          3.747831837438          3.182783409149
      0.1687144782D+00  0.1000000000D+01  0.1000000000D+01
 Atom C1       Shell     4 D   1     bf   10 -    15         -1.910133417676          3.747831837438          3.182783409149
      0.8000000000D+00  0.1000000000D+01
 Atom H2       Shell     5 S   3     bf   16 -    16         -1.874713770541          1.900923346038          4.123266373875
      0.1873113696D+02  0.3349460434D-01
      0.2825394365D+01  0.2347269535D+00
      0.6401216923D+00  0.8137573261D+00
 Atom H2       Shell     6 S   1     bf   17 -    17         -1.874713770541          1.900923346038          4.123266373875
      0.1612777588D+00  0.1000000000D+01
 Atom C3       Shell     7 S   6     bf   18 -    18          0.597573544111          5.114657407887          3.689472143372
      0.3047524880D+04  0.1834737132D-02
      0.4573695180D+03  0.1403732281D-01
      0.1039486850D+03  0.6884262226D-01
      0.2921015530D+02  0.2321844432D+00
      0.9286662960D+01  0.4679413484D+00
      0.3163926960D+01  0.3623119853D+00
 Atom C3       Shell     8 SP   3    bf   19 -    22          0.597573544111          5.114657407887          3.689472143372
      0.7868272350D+01 -0.1193324198D+00  0.6899906659D-01
      0.1881288540D+01 -0.1608541517D+00  0.3164239610D+00
      0.5442492580D+00  0.1143456438D+01  0.7443082909D+00
 Atom C3       Shell     9 SP   1    bf   23 -    26          0.597573544111          5.114657407887          3.689472143372
      0.1687144782D+00  0.1000000000D+01  0.1000000000D+01
 Atom C3       Shell    10 D   1     bf   27 -    32          0.597573544111          5.114657407887          3.689472143372
      0.8000000000D+00  0.1000000000D+01
 Atom H4       Shell    11 S   3     bf   33 -    33          0.898196789817          5.299054446188          5.727004377371
      0.1873113696D+02  0.3349460434D-01
      0.2825394365D+01  0.2347269535D+00
      0.6401216923D+00  0.8137573261D+00
 Atom H4       Shell    12 S   1     bf   34 -    34          0.898196789817          5.299054446188          5.727004377371
      0.1612777588D+00  0.1000000000D+01
 Atom H5       Shell    13 S   3     bf   35 -    35          0.424657650315          7.048481207152          2.934619301042
      0.1873113696D+02  0.3349460434D-01
      0.2825394365D+01  0.2347269535D+00
      0.6401216923D+00  0.8137573261D+00
 Atom H5       Shell    14 S   1     bf   36 -    36          0.424657650315          7.048481207152          2.934619301042
      0.1612777588D+00  0.1000000000D+01
 Atom C6       Shell    15 S   6     bf   37 -    37          2.840058784853          3.806898345769          2.472182756105
      0.3047524880D+04  0.1834737132D-02
      0.4573695180D+03  0.1403732281D-01
      0.1039486850D+03  0.6884262226D-01
      0.2921015530D+02  0.2321844432D+00
      0.9286662960D+01  0.4679413484D+00
      0.3163926960D+01  0.3623119853D+00
 Atom C6       Shell    16 SP   3    bf   38 -    41          2.840058784853          3.806898345769          2.472182756105
      0.7868272350D+01 -0.1193324198D+00  0.6899906659D-01
      0.1881288540D+01 -0.1608541517D+00  0.3164239610D+00
      0.5442492580D+00  0.1143456438D+01  0.7443082909D+00
 Atom C6       Shell    17 SP   1    bf   42 -    45          2.840058784853          3.806898345769          2.472182756105
      0.1687144782D+00  0.1000000000D+01  0.1000000000D+01
 Atom C6       Shell    18 D   1     bf   46 -    51          2.840058784853          3.806898345769          2.472182756105
      0.8000000000D+00  0.1000000000D+01
 Atom C7       Shell    19 S   6     bf   52 -    52          2.619510888788          3.141368624755         -0.336672171643
      0.3047524880D+04  0.1834737132D-02
      0.4573695180D+03  0.1403732281D-01
      0.1039486850D+03  0.6884262226D-01
      0.2921015530D+02  0.2321844432D+00
      0.9286662960D+01  0.4679413484D+00
      0.3163926960D+01  0.3623119853D+00
 Atom C7       Shell    20 SP   3    bf   53 -    56          2.619510888788          3.141368624755         -0.336672171643
      0.7868272350D+01 -0.1193324198D+00  0.6899906659D-01
      0.1881288540D+01 -0.1608541517D+00  0.3164239610D+00
      0.5442492580D+00  0.1143456438D+01  0.7443082909D+00
 Atom C7       Shell    21 SP   1    bf   57 -    60          2.619510888788          3.141368624755         -0.336672171643
      0.1687144782D+00  0.1000000000D+01  0.1000000000D+01
 Atom C7       Shell    22 D   1     bf   61 -    66          2.619510888788          3.141368624755         -0.336672171643
      0.8000000000D+00  0.1000000000D+01
 Atom C8       Shell    23 S   6     bf   67 -    67         -0.021016305728          1.914443920779         -0.804443054406
      0.3047524880D+04  0.1834737132D-02
      0.4573695180D+03  0.1403732281D-01
      0.1039486850D+03  0.6884262226D-01
      0.2921015530D+02  0.2321844432D+00
      0.9286662960D+01  0.4679413484D+00
      0.3163926960D+01  0.3623119853D+00
 Atom C8       Shell    24 SP   3    bf   68 -    71         -0.021016305728          1.914443920779         -0.804443054406
      0.7868272350D+01 -0.1193324198D+00  0.6899906659D-01
      0.1881288540D+01 -0.1608541517D+00  0.3164239610D+00
      0.5442492580D+00  0.1143456438D+01  0.7443082909D+00
 Atom C8       Shell    25 SP   1    bf   72 -    75         -0.021016305728          1.914443920779         -0.804443054406
      0.1687144782D+00  0.1000000000D+01  0.1000000000D+01
 Atom C8       Shell    26 D   1     bf   76 -    81         -0.021016305728          1.914443920779         -0.804443054406
      0.8000000000D+00  0.1000000000D+01
 Atom H9       Shell    27 S   3     bf   82 -    82          0.000000000000          0.000000000000          0.000000000000
      0.1873113696D+02  0.3349460434D-01
      0.2825394365D+01  0.2347269535D+00
      0.6401216923D+00  0.8137573261D+00
 Atom H9       Shell    28 S   1     bf   83 -    83          0.000000000000          0.000000000000          0.000000000000
      0.1612777588D+00  0.1000000000D+01
 Atom H10      Shell    29 S   3     bf   84 -    84         -0.329925565890          1.692825438168         -2.838708726709
      0.1873113696D+02  0.3349460434D-01
      0.2825394365D+01  0.2347269535D+00
      0.6401216923D+00  0.8137573261D+00
 Atom H10      Shell    30 S   1     bf   85 -    85         -0.329925565890          1.692825438168         -2.838708726709
      0.1612777588D+00  0.1000000000D+01
 Atom C11      Shell    31 S   6     bf   86 -    86         -2.263849010414          3.357949173085          0.342889313928
      0.3047524880D+04  0.1834737132D-02
      0.4573695180D+03  0.1403732281D-01
      0.1039486850D+03  0.6884262226D-01
      0.2921015530D+02  0.2321844432D+00
      0.9286662960D+01  0.4679413484D+00
      0.3163926960D+01  0.3623119853D+00
 Atom C11      Shell    32 SP   3    bf   87 -    90         -2.263849010414          3.357949173085          0.342889313928
      0.7868272350D+01 -0.1193324198D+00  0.6899906659D-01
      0.1881288540D+01 -0.1608541517D+00  0.3164239610D+00
      0.5442492580D+00  0.1143456438D+01  0.7443082909D+00
 Atom C11      Shell    33 SP   1    bf   91 -    94         -2.263849010414          3.357949173085          0.342889313928
      0.1687144782D+00  0.1000000000D+01  0.1000000000D+01
 Atom C11      Shell    34 D   1     bf   95 -   100         -2.263849010414          3.357949173085          0.342889313928
      0.8000000000D+00  0.1000000000D+01
 Atom H12      Shell    35 S   3     bf  101 -   101         -2.480560101025          5.211785986302         -0.572569028072
      0.1873113696D+02  0.3349460434D-01
      0.2825394365D+01  0.2347269535D+00
      0.6401216923D+00  0.8137573261D+00
 Atom H12      Shell    36 S   1     bf  102 -   102         -2.480560101025          5.211785986302         -0.572569028072
      0.1612777588D+00  0.1000000000D+01
 Atom H13      Shell    37 S   3     bf  103 -   103         -4.022435859760          2.319201243134          0.000000000000
      0.1873113696D+02  0.3349460434D-01
      0.2825394365D+01  0.2347269535D+00
      0.6401216923D+00  0.8137573261D+00
 Atom H13      Shell    38 S   1     bf  104 -   104         -4.022435859760          2.319201243134          0.000000000000
      0.1612777588D+00  0.1000000000D+01
 Atom C14      Shell    39 S   6     bf  105 -   105          4.912607511814          3.307911473860          3.837001002765
      0.3047524880D+04  0.1834737132D-02
      0.4573695180D+03  0.1403732281D-01
      0.1039486850D+03  0.6884262226D-01
      0.2921015530D+02  0.2321844432D+00
      0.9286662960D+01  0.4679413484D+00
      0.3163926960D+01  0.3623119853D+00
 Atom C14      Shell    40 SP   3    bf  106 -   109          4.912607511814          3.307911473860          3.837001002765
      0.7868272350D+01 -0.1193324198D+00  0.6899906659D-01
      0.1881288540D+01 -0.1608541517D+00  0.3164239610D+00
      0.5442492580D+00  0.1143456438D+01  0.7443082909D+00
 Atom C14      Shell    41 SP   1    bf  110 -   113          4.912607511814          3.307911473860          3.837001002765
      0.1687144782D+00  0.1000000000D+01  0.1000000000D+01
 Atom C14      Shell    42 D   1     bf  114 -   119          4.912607511814          3.307911473860          3.837001002765
      0.8000000000D+00  0.1000000000D+01
 Atom H15      Shell    43 S   3     bf  120 -   120          4.964763121602          3.804753223149          5.830853180963
      0.1873113696D+02  0.3349460434D-01
      0.2825394365D+01  0.2347269535D+00
      0.6401216923D+00  0.8137573261D+00
 Atom H15      Shell    44 S   1     bf  121 -   121          4.964763121602          3.804753223149          5.830853180963
      0.1612777588D+00  0.1000000000D+01
 Atom C16      Shell    45 S   6     bf  122 -   122          7.301136268311          2.154884963845          2.835158214764
      0.3047524880D+04  0.1834737132D-02
      0.4573695180D+03  0.1403732281D-01
      0.1039486850D+03  0.6884262226D-01
      0.2921015530D+02  0.2321844432D+00
      0.9286662960D+01  0.4679413484D+00
      0.3163926960D+01  0.3623119853D+00
 Atom C16      Shell    46 SP   3    bf  123 -   126          7.301136268311          2.154884963845          2.835158214764
      0.7868272350D+01 -0.1193324198D+00  0.6899906659D-01
      0.1881288540D+01 -0.1608541517D+00  0.3164239610D+00
      0.5442492580D+00  0.1143456438D+01  0.7443082909D+00
 Atom C16      Shell    47 SP   1    bf  127 -   130          7.301136268311          2.154884963845          2.835158214764
      0.1687144782D+00  0.1000000000D+01  0.1000000000D+01
 Atom C16      Shell    48 D   1     bf  131 -   136          7.301136268311          2.154884963845          2.835158214764
      0.8000000000D+00  0.1000000000D+01
 Atom H17      Shell    49 S   3     bf  137 -   137          7.640685812553          0.312383786219          3.740578350444
      0.1873113696D+02  0.3349460434D-01
      0.2825394365D+01  0.2347269535D+00
      0.6401216923D+00  0.8137573261D+00
 Atom H17      Shell    50 S   1     bf  138 -   138          7.640685812553          0.312383786219          3.740578350444
      0.1612777588D+00  0.1000000000D+01
 Atom C18      Shell    51 S   6     bf  139 -   139          7.382132613778          1.875595554549         -0.055836550631
      0.3047524880D+04  0.1834737132D-02
      0.4573695180D+03  0.1403732281D-01
      0.1039486850D+03  0.6884262226D-01
      0.2921015530D+02  0.2321844432D+00
      0.9286662960D+01  0.4679413484D+00
      0.3163926960D+01  0.3623119853D+00
 Atom C18      Shell    52 SP   3    bf  140 -   143          7.382132613778          1.875595554549         -0.055836550631
      0.7868272350D+01 -0.1193324198D+00  0.6899906659D-01
      0.1881288540D+01 -0.1608541517D+00  0.3164239610D+00
      0.5442492580D+00  0.1143456438D+01  0.7443082909D+00
 Atom C18      Shell    53 SP   1    bf  144 -   147          7.382132613778          1.875595554549         -0.055836550631
      0.1687144782D+00  0.1000000000D+01  0.1000000000D+01
 Atom C18      Shell    54 D   1     bf  148 -   153          7.382132613778          1.875595554549         -0.055836550631
      0.8000000000D+00  0.1000000000D+01
 Atom H19      Shell    55 S   3     bf  154 -   154          7.953136929714          3.717820662084         -0.820681867908
      0.1873113696D+02  0.3349460434D-01
      0.2825394365D+01  0.2347269535D+00
      0.6401216923D+00  0.8137573261D+00
 Atom H19      Shell    56 S   1     bf  155 -   155          7.953136929714          3.717820662084         -0.820681867908
      0.1612777588D+00  0.1000000000D+01
 Atom C20      Shell    57 S   6     bf  156 -   156          4.713153475838          1.178743452807         -1.068014024084
      0.3047524880D+04  0.1834737132D-02
      0.4573695180D+03  0.1403732281D-01
      0.1039486850D+03  0.6884262226D-01
      0.2921015530D+02  0.2321844432D+00
      0.9286662960D+01  0.4679413484D+00
      0.3163926960D+01  0.3623119853D+00
 Atom C20      Shell    58 SP   3    bf  157 -   160          4.713153475838          1.178743452807         -1.068014024084
      0.7868272350D+01 -0.1193324198D+00  0.6899906659D-01
      0.1881288540D+01 -0.1608541517D+00  0.3164239610D+00
      0.5442492580D+00  0.1143456438D+01  0.7443082909D+00
 Atom C20      Shell    59 SP   1    bf  161 -   164          4.713153475838          1.178743452807         -1.068014024084
      0.1687144782D+00  0.1000000000D+01  0.1000000000D+01
 Atom C20      Shell    60 D   1     bf  165 -   170          4.713153475838          1.178743452807         -1.068014024084
      0.8000000000D+00  0.1000000000D+01
 Atom H21      Shell    61 S   3     bf  171 -   171          4.184984772683         -0.587093746588         -0.097641128834
      0.1873113696D+02  0.3349460434D-01
      0.2825394365D+01  0.2347269535D+00
      0.6401216923D+00  0.8137573261D+00
 Atom H21      Shell    62 S   1     bf  172 -   172          4.184984772683         -0.587093746588         -0.097641128834
      0.1612777588D+00  0.1000000000D+01
 Atom C22      Shell    63 S   6     bf  173 -   173          4.790820029372          0.580053382907         -3.926468631437
      0.3047524880D+04  0.1834737132D-02
      0.4573695180D+03  0.1403732281D-01
      0.1039486850D+03  0.6884262226D-01
      0.2921015530D+02  0.2321844432D+00
      0.9286662960D+01  0.4679413484D+00
      0.3163926960D+01  0.3623119853D+00
 Atom C22      Shell    64 SP   3    bf  174 -   177          4.790820029372          0.580053382907         -3.926468631437
      0.7868272350D+01 -0.1193324198D+00  0.6899906659D-01
      0.1881288540D+01 -0.1608541517D+00  0.3164239610D+00
      0.5442492580D+00  0.1143456438D+01  0.7443082909D+00
 Atom C22      Shell    65 SP   1    bf  178 -   181          4.790820029372          0.580053382907         -3.926468631437
      0.1687144782D+00  0.1000000000D+01  0.1000000000D+01
 Atom C22      Shell    66 D   1     bf  182 -   187          4.790820029372          0.580053382907         -3.926468631437
      0.8000000000D+00  0.1000000000D+01
 Atom H23      Shell    67 S   3     bf  188 -   188          5.113804196538          2.322576256213         -4.995922362273
      0.1873113696D+02  0.3349460434D-01
      0.2825394365D+01  0.2347269535D+00
      0.6401216923D+00  0.8137573261D+00
 Atom H23      Shell    68 S   1     bf  189 -   189          5.113804196538          2.322576256213         -4.995922362273
      0.1612777588D+00  0.1000000000D+01
 Atom H24      Shell    69 S   3     bf  190 -   190          2.942908717005         -0.127381789892         -4.534087600623
      0.1873113696D+02  0.3349460434D-01
      0.2825394365D+01  0.2347269535D+00
      0.6401216923D+00  0.8137573261D+00
 Atom H24      Shell    70 S   1     bf  191 -   191          2.942908717005         -0.127381789892         -4.534087600623
      0.1612777588D+00  0.1000000000D+01
 Atom C25      Shell    71 S   6     bf  192 -   192          6.814310539957         -1.371949808523         -4.684789234604
      0.3047524880D+04  0.1834737132D-02
      0.4573695180D+03  0.1403732281D-01
      0.1039486850D+03  0.6884262226D-01
      0.2921015530D+02  0.2321844432D+00
      0.9286662960D+01  0.4679413484D+00
      0.3163926960D+01  0.3623119853D+00
 Atom C25      Shell    72 SP   3    bf  193 -   196          6.814310539957         -1.371949808523         -4.684789234604
      0.7868272350D+01 -0.1193324198D+00  0.6899906659D-01
      0.1881288540D+01 -0.1608541517D+00  0.3164239610D+00
      0.5442492580D+00  0.1143456438D+01  0.7443082909D+00
 Atom C25      Shell    73 SP   1    bf  197 -   200          6.814310539957         -1.371949808523         -4.684789234604
      0.1687144782D+00  0.1000000000D+01  0.1000000000D+01
 Atom C25      Shell    74 D   1     bf  201 -   206          6.814310539957         -1.371949808523         -4.684789234604
      0.8000000000D+00  0.1000000000D+01
 Atom H26      Shell    75 S   3     bf  207 -   207          6.341542540998         -3.214898133147         -3.849191909507
      0.1873113696D+02  0.3349460434D-01
      0.2825394365D+01  0.2347269535D+00
      0.6401216923D+00  0.8137573261D+00
 Atom H26      Shell    76 S   1     bf  208 -   208          6.341542540998         -3.214898133147         -3.849191909507
      0.1612777588D+00  0.1000000000D+01
 Atom H27      Shell    77 S   3     bf  209 -   209          6.747525407442         -1.623236556784         -6.736938500241
      0.1873113696D+02  0.3349460434D-01
      0.2825394365D+01  0.2347269535D+00
      0.6401216923D+00  0.8137573261D+00
 Atom H27      Shell    78 S   1     bf  210 -   210          6.747525407442         -1.623236556784         -6.736938500241
      0.1612777588D+00  0.1000000000D+01
 Atom C28      Shell    79 S   6     bf  211 -   211          9.471221565559         -0.591547547624         -3.781606326796
      0.3047524880D+04  0.1834737132D-02
      0.4573695180D+03  0.1403732281D-01
      0.1039486850D+03  0.6884262226D-01
      0.2921015530D+02  0.2321844432D+00
      0.9286662960D+01  0.4679413484D+00
      0.3163926960D+01  0.3623119853D+00
 Atom C28      Shell    80 SP   3    bf  212 -   215          9.471221565559         -0.591547547624         -3.781606326796
      0.7868272350D+01 -0.1193324198D+00  0.6899906659D-01
      0.1881288540D+01 -0.1608541517D+00  0.3164239610D+00
      0.5442492580D+00  0.1143456438D+01  0.7443082909D+00
 Atom C28      Shell    81 SP   1    bf  216 -   219          9.471221565559         -0.591547547624         -3.781606326796
      0.1687144782D+00  0.1000000000D+01  0.1000000000D+01
 Atom C28      Shell    82 D   1     bf  220 -   225          9.471221565559         -0.591547547624         -3.781606326796
      0.8000000000D+00  0.1000000000D+01
 Atom C29      Shell    83 S   6     bf  226 -   226          9.284495817745         -0.167663607880         -0.877416851034
      0.3047524880D+04  0.1834737132D-02
      0.4573695180D+03  0.1403732281D-01
      0.1039486850D+03  0.6884262226D-01
      0.2921015530D+02  0.2321844432D+00
      0.9286662960D+01  0.4679413484D+00
      0.3163926960D+01  0.3623119853D+00
 Atom C29      Shell    84 SP   3    bf  227 -   230          9.284495817745         -0.167663607880         -0.877416851034
      0.7868272350D+01 -0.1193324198D+00  0.6899906659D-01
      0.1881288540D+01 -0.1608541517D+00  0.3164239610D+00
      0.5442492580D+00  0.1143456438D+01  0.7443082909D+00
 Atom C29      Shell    85 SP   1    bf  231 -   234          9.284495817745         -0.167663607880         -0.877416851034
      0.1687144782D+00  0.1000000000D+01  0.1000000000D+01
 Atom C29      Shell    86 D   1     bf  235 -   240          9.284495817745         -0.167663607880         -0.877416851034
      0.8000000000D+00  0.1000000000D+01
 Atom H30      Shell    87 S   3     bf  241 -   241          8.535667781376         -1.960285237461         -0.119351020745
      0.1873113696D+02  0.3349460434D-01
      0.2825394365D+01  0.2347269535D+00
      0.6401216923D+00  0.8137573261D+00
 Atom H30      Shell    88 S   1     bf  242 -   242          8.535667781376         -1.960285237461         -0.119351020745
      0.1612777588D+00  0.1000000000D+01
 Atom C31      Shell    89 S   6     bf  243 -   243         12.049799625706          0.000000000000          0.000000000000
      0.3047524880D+04  0.1834737132D-02
      0.4573695180D+03  0.1403732281D-01
      0.1039486850D+03  0.6884262226D-01
      0.2921015530D+02  0.2321844432D+00
      0.9286662960D+01  0.4679413484D+00
      0.3163926960D+01  0.3623119853D+00
 Atom C31      Shell    90 SP   3    bf  244 -   247         12.049799625706          0.000000000000          0.000000000000
      0.7868272350D+01 -0.1193324198D+00  0.6899906659D-01
      0.1881288540D+01 -0.1608541517D+00  0.3164239610D+00
      0.5442492580D+00  0.1143456438D+01  0.7443082909D+00
 Atom C31      Shell    91 SP   1    bf  248 -   251         12.049799625706          0.000000000000          0.000000000000
      0.1687144782D+00  0.1000000000D+01  0.1000000000D+01
 Atom C31      Shell    92 D   1     bf  252 -   257         12.049799625706          0.000000000000          0.000000000000
      0.8000000000D+00  0.1000000000D+01
 Atom H32      Shell    93 S   3     bf  258 -   258         12.268269578915         -0.506161859680          1.993464859930
      0.1873113696D+02  0.3349460434D-01
      0.2825394365D+01  0.2347269535D+00
      0.6401216923D+00  0.8137573261D+00
 Atom H32      Shell    94 S   1     bf  259 -   259         12.268269578915         -0.506161859680          1.993464859930
      0.1612777588D+00  0.1000000000D+01
 Atom H33      Shell    95 S   3     bf  260 -   260         12.767131048598          1.929953659042         -0.197970865524
      0.1873113696D+02  0.3349460434D-01
      0.2825394365D+01  0.2347269535D+00
      0.6401216923D+00  0.8137573261D+00
 Atom H33      Shell    96 S   1     bf  261 -   261         12.767131048598          1.929953659042         -0.197970865524
      0.1612777588D+00  0.1000000000D+01
 Atom C34      Shell    97 S   6     bf  262 -   262         13.465217424964         -1.856418443677         -1.779547332564
      0.3047524880D+04  0.1834737132D-02
      0.4573695180D+03  0.1403732281D-01
      0.1039486850D+03  0.6884262226D-01
      0.2921015530D+02  0.2321844432D+00
      0.9286662960D+01  0.4679413484D+00
      0.3163926960D+01  0.3623119853D+00
 Atom C34      Shell    98 SP   3    bf  263 -   266         13.465217424964         -1.856418443677         -1.779547332564
      0.7868272350D+01 -0.1193324198D+00  0.6899906659D-01
      0.1881288540D+01 -0.1608541517D+00  0.3164239610D+00
      0.5442492580D+00  0.1143456438D+01  0.7443082909D+00
 Atom C34      Shell    99 SP   1    bf  267 -   270         13.465217424964         -1.856418443677         -1.779547332564
      0.1687144782D+00  0.1000000000D+01  0.1000000000D+01
 Atom C34      Shell   100 D   1     bf  271 -   276         13.465217424964         -1.856418443677         -1.779547332564
      0.8000000000D+00  0.1000000000D+01
 Atom H35      Shell   101 S   3     bf  277 -   277         15.101732236907         -0.927772950215         -2.646580573135
      0.1873113696D+02  0.3349460434D-01
      0.2825394365D+01  0.2347269535D+00
      0.6401216923D+00  0.8137573261D+00
 Atom H35      Shell   102 S   1     bf  278 -   278         15.101732236907         -0.927772950215         -2.646580573135
      0.1612777588D+00  0.1000000000D+01
 Atom H36      Shell   103 S   3     bf  279 -   279         14.205965162465         -3.488931968403         -0.746959229505
      0.1873113696D+02  0.3349460434D-01
      0.2825394365D+01  0.2347269535D+00
      0.6401216923D+00  0.8137573261D+00
 Atom H36      Shell   104 S   1     bf  280 -   280         14.205965162465         -3.488931968403         -0.746959229505
      0.1612777588D+00  0.1000000000D+01
 Atom C37      Shell   105 S   6     bf  281 -   281         11.546171567517         -2.705742248074         -3.858766717185
      0.3047524880D+04  0.1834737132D-02
      0.4573695180D+03  0.1403732281D-01
      0.1039486850D+03  0.6884262226D-01
      0.2921015530D+02  0.2321844432D+00
      0.9286662960D+01  0.4679413484D+00
      0.3163926960D+01  0.3623119853D+00
 Atom C37      Shell   106 SP   3    bf  282 -   285         11.546171567517         -2.705742248074         -3.858766717185
      0.7868272350D+01 -0.1193324198D+00  0.6899906659D-01
      0.1881288540D+01 -0.1608541517D+00  0.3164239610D+00
      0.5442492580D+00  0.1143456438D+01  0.7443082909D+00
 Atom C37      Shell   107 SP   1    bf  286 -   289         11.546171567517         -2.705742248074         -3.858766717185
      0.1687144782D+00  0.1000000000D+01  0.1000000000D+01
 Atom C37      Shell   108 D   1     bf  290 -   295         11.546171567517         -2.705742248074         -3.858766717185
      0.8000000000D+00  0.1000000000D+01
 Atom H38      Shell   109 S   3     bf  296 -   296         10.605105055362         -4.436948345255         -3.196045885095
      0.1873113696D+02  0.3349460434D-01
      0.2825394365D+01  0.2347269535D+00
      0.6401216923D+00  0.8137573261D+00
 Atom H38      Shell   110 S   1     bf  297 -   297         10.605105055362         -4.436948345255         -3.196045885095
      0.1612777588D+00  0.1000000000D+01
 Atom C39      Shell   111 S   6     bf  298 -   298         10.386657249743          1.790559465939         -5.202502668880
      0.3047524880D+04  0.1834737132D-02
      0.4573695180D+03  0.1403732281D-01
      0.1039486850D+03  0.6884262226D-01
[...]
 **** Fit       0.000883
 **** Fit       0.001321
 **** Fit       0.001756
 **** Fit       0.002136
 **** Fit       0.002432
 **** Fit       0.002638
 **** Fit       0.001006
 **** Fit       0.001392
 **** Fit       0.001771
 **** Fit       0.002103
 **** Fit       0.000001
 **** Fit      -0.000294
 **** Fit      -0.000589
 **** Fit      -0.000843
 **** Fit      -0.001020
 **** Fit       0.000598
 **** Fit       0.000351
 **** Fit       0.000029
 **** Fit      -0.000353
 **** Fit      -0.000751
 **** Fit      -0.001107
 **** Fit      -0.001363
 **** Fit      -0.001485
 **** Fit      -0.001471
 **** Fit      -0.001343
 **** Fit      -0.001132
 **** Fit       0.000938
 **** Fit       0.000764
 **** Fit       0.000495
 **** Fit       0.000115
 **** Fit      -0.000362
 **** Fit      -0.000884
 **** Fit      -0.001365
 **** Fit      -0.001717
 **** Fit      -0.001891
 **** Fit      -0.001883
 **** Fit      -0.001723
 **** Fit      -0.001458
 **** Fit      -0.001133
 **** Fit      -0.000789
 **** Fit       0.001126
 **** Fit       0.000966
 **** Fit       0.000689
 **** Fit       0.000262
 **** Fit      -0.000312
 **** Fit      -0.000971
 **** Fit      -0.001596
 **** Fit      -0.002057
 **** Fit      -0.002280
 **** Fit      -0.002263
 **** Fit      -0.002054
 **** Fit      -0.001718
 **** Fit      -0.001315
 **** Fit      -0.000900
 **** Fit      -0.000510
 **** Fit      -0.000168
 **** Fit       0.001361
 **** Fit       0.001308
 **** Fit       0.001170
 **** Fit       0.000897
 **** Fit       0.000437
 **** Fit      -0.000225
 **** Fit      -0.001021
 **** Fit      -0.001793
 **** Fit      -0.002359
 **** Fit      -0.002609
 **** Fit      -0.002548
 **** Fit      -0.002252
 **** Fit      -0.001816
 **** Fit      -0.001327
 **** Fit      -0.000850
 **** Fit      -0.000423
 **** Fit      -0.000065
 **** Fit       0.000224
 **** Fit       0.001480
 **** Fit       0.001446
 **** Fit       0.001325
 **** Fit       0.001056
 **** Fit       0.000571
 **** Fit      -0.000162
 **** Fit      -0.001075
 **** Fit      -0.001968
 **** Fit      -0.002601
 **** Fit      -0.002825
 **** Fit      -0.002651
 **** Fit      -0.002201
 **** Fit      -0.001628
 **** Fit      -0.001054
 **** Fit      -0.000548
 **** Fit      -0.000135
 **** Fit       0.000190
 **** Fit       0.000441
 **** Fit       0.001536
 **** Fit       0.001501
 **** Fit       0.001376
 **** Fit       0.001095
 **** Fit       0.000581
 **** Fit      -0.000205
 **** Fit      -0.001188
 **** Fit      -0.002135
 **** Fit      -0.002753
 **** Fit      -0.002857
 **** Fit      -0.002469
 **** Fit      -0.001781
 **** Fit      -0.001032
 **** Fit      -0.000398
 **** Fit       0.000068
 **** Fit       0.000390
 **** Fit       0.000614
 **** Fit       0.000776
 **** Fit       0.000898
 **** Fit       0.001519
 **** Fit       0.001457
 **** Fit       0.001298
 **** Fit       0.000979
 **** Fit       0.000428
 **** Fit      -0.000385
 **** Fit      -0.001368
 **** Fit      -0.002267
 **** Fit      -0.002758
 **** Fit      -0.002635
 **** Fit      -0.001936
 **** Fit      -0.000942
 **** Fit      -0.000011
 **** Fit       0.000630
 **** Fit       0.000971
 **** Fit       0.001119
 **** Fit       0.001177
 **** Fit       0.001204
 **** Fit       0.001225
 **** Fit       0.001434
 **** Fit       0.001325
 **** Fit       0.001112
 **** Fit       0.000742
 **** Fit       0.000160
 **** Fit      -0.000637
 **** Fit      -0.001537
 **** Fit      -0.002284
 **** Fit      -0.002557
 **** Fit      -0.002149
 **** Fit      -0.001121
 **** Fit       0.000162
 **** Fit       0.001230
 **** Fit       0.001821
 **** Fit       0.001987
 **** Fit       0.001923
 **** Fit       0.001792
 **** Fit       0.001669
 **** Fit       0.001579
 **** Fit       0.001303
 **** Fit       0.001141
 **** Fit       0.000874
 **** Fit       0.000463
 **** Fit      -0.000118
 **** Fit      -0.000843
 **** Fit      -0.001590
 **** Fit      -0.002120
 **** Fit      -0.002149
 **** Fit      -0.001498
 **** Fit      -0.000251
 **** Fit       0.001187
 **** Fit       0.002302
 **** Fit       0.002825
 **** Fit       0.002849
 **** Fit       0.002624
 **** Fit       0.002343
 **** Fit       0.002099
 **** Fit       0.001916
 **** Fit       0.000945
 **** Fit       0.000640
 **** Fit       0.000218
 **** Fit      -0.000319
 **** Fit      -0.000925
 **** Fit      -0.001479
 **** Fit      -0.001782
 **** Fit      -0.001613
 **** Fit      -0.000840
 **** Fit       0.000437
 **** Fit       0.001840
 **** Fit       0.002902
 **** Fit       0.003379
 **** Fit       0.003359
 **** Fit       0.003081
 **** Fit       0.002740
 **** Fit       0.002435
 **** Fit       0.002197
 **** Fit       0.000768
 **** Fit       0.000446
 **** Fit       0.000043
 **** Fit      -0.000420
 **** Fit      -0.000884
 **** Fit      -0.001244
 **** Fit      -0.001351
 **** Fit      -0.001055
 **** Fit      -0.000280
 **** Fit       0.000870
 **** Fit       0.002095
 **** Fit       0.003032
 **** Fit       0.003483
 **** Fit       0.003502
 **** Fit       0.003270
 **** Fit       0.002954
 **** Fit       0.002652
 **** Fit       0.002402
 **** Fit       0.000302
 **** Fit      -0.000065
 **** Fit      -0.000441
 **** Fit      -0.000768
 **** Fit      -0.000960
 **** Fit      -0.000917
 **** Fit      -0.000552
 **** Fit       0.000160
 **** Fit       0.001123
 **** Fit       0.002121
 **** Fit       0.002903
 **** Fit       0.003326
 **** Fit       0.003406
 **** Fit       0.003262
 **** Fit       0.003019
 **** Fit       0.002762
 **** Fit       0.002533
 **** Fit      -0.000414
 **** Fit      -0.000624
 **** Fit      -0.000684
 **** Fit      -0.000533
 **** Fit      -0.000132
 **** Fit       0.000504
 **** Fit       0.001294
 **** Fit       0.002086
 **** Fit       0.002720
 **** Fit       0.003099
 **** Fit       0.003222
 **** Fit       0.003158
 **** Fit       0.002994
 **** Fit       0.002796
 **** Fit      -0.000435
 **** Fit      -0.000209
 **** Fit       0.000209
 **** Fit       0.000784
 **** Fit       0.001439
 **** Fit       0.002071
 **** Fit       0.002580
 **** Fit       0.002904
 **** Fit       0.003041
 **** Fit       0.003031
 **** Fit       0.002931
 **** Fit      -0.000320
 **** Fit      -0.000211
 **** Fit       0.000065
 **** Fit       0.000490
 **** Fit       0.001016
 **** Fit       0.001574
 **** Fit       0.002089
 **** Fit       0.002499
 **** Fit       0.002769
 **** Fit       0.002900
 **** Fit       0.002919
 **** Fit      -0.000161
 **** Fit      -0.000003
 **** Fit       0.000302
 **** Fit       0.000723
 **** Fit       0.001209
 **** Fit       0.001694
 **** Fit       0.002124
 **** Fit       0.002459
 **** Fit       0.002682
 **** Fit       0.000004
 **** Fit       0.000192
 **** Fit       0.000507
 **** Fit       0.000914
 **** Fit       0.001360
 **** Fit       0.001788
 **** Fit       0.002155
 **** Fit       0.002435
 **** Fit       0.000371
 **** Fit       0.000682
 **** Fit       0.001065
 **** Fit       0.001470
 **** Fit       0.001850
 **** Fit       0.002168
 **** Fit       0.000827
 **** Fit       0.001179
 **** Fit       0.001544
 **** Fit       0.001881
 **** Fit       0.000068
 **** Fit      -0.000219
 **** Fit      -0.000509
 **** Fit      -0.000764
 **** Fit      -0.000950
 **** Fit       0.000395
 **** Fit       0.000098
 **** Fit      -0.000252
 **** Fit      -0.000617
 **** Fit      -0.000947
 **** Fit      -0.001188
 **** Fit      -0.001309
 **** Fit       0.000737
 **** Fit       0.000489
 **** Fit       0.000151
 **** Fit      -0.000263
 **** Fit      -0.000709
 **** Fit      -0.001115
 **** Fit      -0.001412
 **** Fit      -0.001554
 **** Fit      -0.001537
 **** Fit      -0.001384
 **** Fit      -0.001138
 **** Fit      -0.000842
 **** Fit      -0.000533
 **** Fit       0.001011
 **** Fit       0.000845
 **** Fit       0.000583
 **** Fit       0.000209
 **** Fit      -0.000265
 **** Fit      -0.000786
 **** Fit      -0.001264
 **** Fit      -0.001605
 **** Fit      -0.001752
 **** Fit      -0.001699
 **** Fit      -0.001485
 **** Fit      -0.001171
 **** Fit      -0.000815
 **** Fit      -0.000463
 **** Fit      -0.000146
 **** Fit       0.001090
 **** Fit       0.000922
 **** Fit       0.000646
 **** Fit       0.000242
 **** Fit      -0.000280
 **** Fit      -0.000861
 **** Fit      -0.001389
 **** Fit      -0.001748
 **** Fit      -0.001865
 **** Fit      -0.001742
 **** Fit      -0.001436
 **** Fit      -0.001035
 **** Fit      -0.000618
 **** Fit      -0.000239
 **** Fit       0.000079
 **** Fit       0.000333
 **** Fit       0.001121
 **** Fit       0.000943
 **** Fit       0.000652
 **** Fit       0.000225
 **** Fit      -0.000328
 **** Fit      -0.000937
 **** Fit      -0.001477
 **** Fit      -0.001810
 **** Fit      -0.001855
 **** Fit      -0.001618
 **** Fit      -0.001188
 **** Fit      -0.000687
 **** Fit      -0.000220
 **** Fit       0.000160
 **** Fit       0.000444
 **** Fit       0.000649
 **** Fit       0.000796
 **** Fit       0.001095
 **** Fit       0.000899
 **** Fit       0.000590
 **** Fit       0.000149
 **** Fit      -0.000409
 **** Fit      -0.001005
 **** Fit      -0.001504
 **** Fit      -0.001761
 **** Fit      -0.001687
 **** Fit      -0.001303
 **** Fit      -0.000731
 **** Fit      -0.000133
 **** Fit       0.000363
 **** Fit       0.000709
 **** Fit       0.000924
 **** Fit       0.001048
 **** Fit       0.001120
 **** Fit       0.001020
 **** Fit       0.000802
 **** Fit       0.000478
 **** Fit       0.000038
 **** Fit      -0.000493
 **** Fit      -0.001031
 **** Fit      -0.001440
 **** Fit      -0.001579
 **** Fit      -0.001363
 **** Fit      -0.000829
 **** Fit      -0.000129
 **** Fit       0.000540
 **** Fit       0.001035
 **** Fit       0.001323
 **** Fit       0.001449
 **** Fit       0.001480
 **** Fit       0.001468
 **** Fit       0.000915
 **** Fit       0.000677
 **** Fit       0.000348
 **** Fit      -0.000070
 **** Fit      -0.000542
 **** Fit      -0.000984
 **** Fit      -0.001271
 **** Fit      -0.001276
 **** Fit      -0.000933
 **** Fit      -0.000289
 **** Fit       0.000487
 **** Fit       0.001182
 **** Fit       0.001654
 **** Fit       0.001881
 **** Fit       0.001928
 **** Fit       0.001879
 **** Fit       0.001797
 **** Fit       0.000552
 **** Fit       0.000234
 **** Fit      -0.000141
 **** Fit      -0.000531
 **** Fit      -0.000857
 **** Fit      -0.001014
 **** Fit      -0.000902
 **** Fit      -0.000473
 **** Fit       0.000212
 **** Fit       0.000992
 **** Fit       0.001665
 **** Fit       0.002102
 **** Fit       0.002287
 **** Fit       0.002289
 **** Fit       0.002194
 **** Fit       0.002067
 **** Fit       0.000153
 **** Fit      -0.000165
 **** Fit      -0.000462
 **** Fit      -0.000672
 **** Fit      -0.000713
 **** Fit      -0.000513
 **** Fit      -0.000052
 **** Fit       0.000611
 **** Fit       0.001332
 **** Fit       0.001947
 **** Fit       0.002344
 **** Fit       0.002511
 **** Fit       0.002504
 **** Fit       0.002400
 **** Fit       0.002262
 **** Fit      -0.000356
 **** Fit      -0.000463
 **** Fit      -0.000411
 **** Fit      -0.000157
 **** Fit       0.000300
 **** Fit       0.000901
 **** Fit       0.001534
 **** Fit       0.002070
 **** Fit       0.002426
 **** Fit       0.002587
 **** Fit       0.002594
 **** Fit       0.002508
 **** Fit       0.002382
 **** Fit      -0.000136
 **** Fit       0.000148
 **** Fit       0.000582
 **** Fit       0.001111
 **** Fit       0.001650
 **** Fit       0.002107
 **** Fit       0.002420
 **** Fit       0.002577
 **** Fit       0.002604
 **** Fit       0.002546
 **** Fit       0.000402
 **** Fit       0.000807
 **** Fit       0.001270
 **** Fit       0.001726
 **** Fit       0.002111
 **** Fit       0.002383
 **** Fit       0.002531
 **** Fit       0.002575
 **** Fit       0.001398
 **** Fit       0.001786
 **** Fit       0.002110
 **** Fit       0.002344
 **** Fit       0.000138
 **** Fit      -0.000157
 **** Fit      -0.000460
 **** Fit      -0.000727
 **** Fit      -0.000918
 **** Fit       0.000440
 **** Fit       0.000156
 **** Fit      -0.000176
 **** Fit      -0.000518
 **** Fit      -0.000818
 **** Fit      -0.001027
 **** Fit      -0.001112
 **** Fit      -0.001069
 **** Fit      -0.000918
 **** Fit      -0.000696
 **** Fit      -0.000441
 **** Fit       0.000701
 **** Fit       0.000467
 **** Fit       0.000163
 **** Fit      -0.000195
 **** Fit      -0.000565
 **** Fit      -0.000884
 **** Fit      -0.001093
 **** Fit      -0.001154
 **** Fit      -0.001066
 **** Fit      -0.000860
 **** Fit      -0.000585
 **** Fit      -0.000291
 **** Fit      -0.000013
 **** Fit       0.000229
 **** Fit       0.000713
 **** Fit       0.000468
 **** Fit       0.000151
 **** Fit      -0.000221
 **** Fit      -0.000598
 **** Fit      -0.000913
 **** Fit      -0.001098
 **** Fit      -0.001112
 **** Fit      -0.000960
 **** Fit      -0.000685
 **** Fit      -0.000353
 **** Fit      -0.000024
 **** Fit       0.000262
 **** Fit       0.000490
 **** Fit       0.000692
 **** Fit       0.000440
 **** Fit       0.000119
 **** Fit      -0.000248
 **** Fit      -0.000610
 **** Fit      -0.000893
 **** Fit      -0.001028
 **** Fit      -0.000974
 **** Fit      -0.000743
 **** Fit      -0.000394
 **** Fit      -0.000009
 **** Fit       0.000343
 **** Fit       0.000621
 **** Fit       0.000820
 **** Fit       0.000954
 **** Fit       0.000390
 **** Fit       0.000078
 **** Fit      -0.000265
 **** Fit      -0.000586
 **** Fit      -0.000813
 **** Fit      -0.000878
 **** Fit      -0.000745
 **** Fit      -0.000435
 **** Fit      -0.000021
 **** Fit       0.000405
 **** Fit       0.000764
 **** Fit       0.001021
 **** Fit       0.001180
 **** Fit       0.001265
 **** Fit       0.000334
 **** Fit       0.000044
 **** Fit      -0.000257
 **** Fit      -0.000519
 **** Fit      -0.000672
 **** Fit      -0.000659
 **** Fit      -0.000452
 **** Fit      -0.000081
 **** Fit       0.000377
 **** Fit       0.000820
 **** Fit       0.001172
 **** Fit       0.001401
 **** Fit       0.001520
 **** Fit       0.001561
 **** Fit       0.000031
 **** Fit      -0.000217
 **** Fit      -0.000408
 **** Fit      -0.000484
 **** Fit      -0.000399
 **** Fit      -0.000137
 **** Fit       0.000268
 **** Fit       0.000738
 **** Fit       0.001175
 **** Fit       0.001508
 **** Fit       0.001710
 **** Fit       0.001799
 **** Fit       0.001809
 **** Fit      -0.000272
 **** Fit      -0.000130
 **** Fit       0.000164
 **** Fit       0.000573
 **** Fit       0.001025
 **** Fit       0.001436
 **** Fit       0.001744
 **** Fit       0.001926
 **** Fit       0.001998
 **** Fit       0.001993
 **** Fit       0.000122
 **** Fit       0.000426
 **** Fit       0.000818
 **** Fit       0.001235
 **** Fit       0.001607
 **** Fit       0.001886
 **** Fit       0.002053
 **** Fit       0.002119
 **** Fit       0.000345
 **** Fit       0.000645
 **** Fit       0.001008
 **** Fit       0.001381
 **** Fit       0.001711
 **** Fit       0.001961
 **** Fit       0.002114
 **** Fit       0.001155
 **** Fit       0.001485
 **** Fit       0.001775
 **** Fit      -0.000312
 **** Fit      -0.000501
 **** Fit      -0.000319
 **** Fit      -0.000095
 **** Fit       0.000137
 **** Fit      -0.000297
 **** Fit      -0.000490
 **** Fit      -0.000341
 **** Fit      -0.000117
 **** Fit       0.000138
 **** Fit       0.000386
 **** Fit       0.000598
 **** Fit      -0.000411
 **** Fit      -0.000321
 **** Fit      -0.000127
 **** Fit       0.000134
 **** Fit       0.000414
 **** Fit       0.000669
 **** Fit       0.000873
 **** Fit      -0.000250
 **** Fit      -0.000115
 **** Fit       0.000117
 **** Fit       0.000406
 **** Fit       0.000698
 **** Fit       0.000952
 **** Fit       0.001143
 **** Fit      -0.000064
 **** Fit       0.000108
 **** Fit       0.000365
 **** Fit       0.000665
 **** Fit       0.000958
 **** Fit       0.001203
 **** Fit       0.001379
 **** Fit       0.000325
 **** Fit       0.000592
 **** Fit       0.000889
 **** Fit       0.001171
 **** Fit       0.001402
 **** Fit       0.001564
 **** Fit       0.000786
 **** Fit       0.001069
 **** Fit       0.001333
 -----------------------------------------------------------------
 Leave Link  602 at Fri Apr 28 13:40:49 2017, MaxMem=   33554432 cpu:     102.6
 (Enter /scratch/michal/g09/l9999.exe)

 Test job not archived.
 1\1\GINC-RZEPICHA\SP\RHF\6-31G(d)\C27H46O3\MICHAL\28-Apr-2017\0\\#P HF
 /6-31G* SCF(Conver=6) NoSymm Test Pop=chelpg IOp(6/33=2) GFInput GFPri
 nt\\MEP - Input generated by R.E.D.-III.x MOLECULE\\0,1\C,0,-1.0107990
 7,1.98326719,1.68425644\H,0,-0.9920558,1.00592531,2.18193859\C,0,0.316
 2223,2.70656013,1.95238457\H,0,0.47530527,2.80413884,3.03060019\H,0,0.
 22471915,3.72989561,1.55293365\C,0,1.50289438,2.01452384,1.30822277\C,
 0,1.38618546,1.66234068,-0.17815924\C,0,-0.01112135,1.01308009,-0.4256
 9293\H,0,0.,0.,0.\H,0,-0.17458909,0.89580464,-1.50217996\C,0,-1.197977
 3,1.77695017,0.18144921\H,0,-1.31265587,2.75795836,-0.30299048\H,0,-2.
 12858138,1.22726844,0.\C,0,2.59963993,1.75047136,2.03045348\H,0,2.6272
 3949,2.01338869,3.08555461\C,0,3.86359491,1.14031601,1.50030111\H,0,4.
 04327679,0.16530638,1.97942881\C,0,3.90645633,0.99252242,-0.02954743\H
 ,0,4.2086188,1.96738596,-0.43428614\C,0,2.4940934,0.62376417,-0.565168
 68\H,0,2.21459856,-0.31067663,-0.05166946\C,0,2.53519277,0.30695103,-2
 .07779771\H,0,2.70610863,1.22905442,-2.64372825\H,0,1.55732022,-0.0674
 0754,-2.39933582\C,0,3.60597783,-0.72600457,-2.47908369\H,0,3.35579978
 ,-1.70125082,-2.03690463\H,0,3.57063666,-0.85897979,-3.56503431\C,0,5.
 01195459,-0.31303348,-2.00113988\C,0,4.91314358,-0.08872376,-0.464309\
 H,0,4.51688085,-1.03733827,-0.06315784\C,0,6.37647933,0.,0.\H,0,6.4920
 8865,-0.26784932,1.05489617\H,0,6.75607477,1.02128749,-0.10476167\C,0,
 7.12548617,-0.98237433,-0.94169589\H,0,7.99149251,-0.4909563,-1.400510
 12\H,0,7.51747299,-1.84626328,-0.3952738\C,0,6.10997084,-1.43181713,-2
 .0419714\H,0,5.61197989,-2.34793194,-1.69127464\C,0,5.49638229,0.94752
 326,-2.75304584\H,0,4.84814044,1.8104578,-2.5812086\H,0,6.50718551,1.2
 4067788,-2.45416976\H,0,5.5142003,0.76830437,-3.83325139\C,0,6.8038605
 7,-1.77056168,-3.38487544\H,0,7.31111129,-0.85776368,-3.72993294\C,0,5
 .83023617,-2.19990873,-4.49863943\H,0,5.15992409,-3.00220506,-4.170635
 67\H,0,6.38462961,-2.56689549,-5.37050407\H,0,5.20591029,-1.36980971,-
 4.838664\C,0,1.50774059,2.96919393,-1.00681835\H,0,1.27764736,2.795405
 05,-2.06265426\H,0,0.81540756,3.73533954,-0.64833312\H,0,2.51521426,3.
 39011584,-0.93756957\O,0,4.99279834,1.98994351,1.82565143\O,0,5.175912
 23,1.9531975,3.27320044\H,0,6.03845283,1.50968772,3.32663565\O,0,-2.11
 77109,2.66047762,2.28602809\H,0,-2.19080375,3.54236518,1.89472894\C,0,
 7.92747894,-2.82796989,-3.21273156\H,0,8.42795188,-2.93945941,-4.18525
 882\H,0,8.69215102,-2.43915242,-2.52878571\C,0,7.49487661,-4.22129338,
 -2.72733694\H,0,7.03519526,-4.14659648,-1.73212212\H,0,6.72197744,-4.6
 2023398,-3.39467312\C,0,8.6734584,-5.20433121,-2.65408653\H,0,9.468096
 95,-4.75222043,-2.04316039\H,0,9.1020148,-5.33404784,-3.65980469\C,0,8
 .34365722,-6.5937225,-2.07138621\H,0,7.88604,-6.43851496,-1.0818828\C,
 0,7.34070527,-7.37411825,-2.93663704\H,0,7.73982061,-7.53109938,-3.947
 29792\H,0,7.13564929,-8.36033899,-2.50479847\H,0,6.38372447,-6.8516444
 ,-3.0328608\C,0,9.62872865,-7.41212301,-1.86864531\H,0,10.13010526,-7.
 59587074,-2.82759728\H,0,9.41311864,-8.38648241,-1.41553753\H,0,10.338
 06362,-6.8885039,-1.21750305\\Version=EM64L-G09RevC.01\HF=-1273.684416
 7\RMSD=5.628e-07\Dipole=0.4196564,-0.4388974,-0.8455433\Quadrupole=1.9
 192187,0.3797744,-2.2989931,-6.0925567,3.5867006,-6.4452142\PG=C01 [X(
 C27H46O3)]\\@


 ERROR IS THE FORCE THAT WELDS MEN TOGETHER....
 TRUTH IS COMMUNICATED TO MEN ONLY BY DEEDS OF TRUTH.
           TOLSTOI,MY RELIGION
 Job cpu time:  0 days  0 hours 42 minutes 14.5 seconds.
 File lengths (MBytes):  RWF=    159 Int=      0 D2E=      0 Chk=     11 Scr=      1
 Normal termination of Gaussian 09 at Fri Apr 28 13:40:50 2017.
