 Entering Gaussian System, Link 0=/scratch/michal/g09//g09
 Input=JOB2-gau_m1-13-3.com
 Output=JOB2-gau_m1-13-3.log
 Initial command:
 /scratch/michal/g09/l1.exe /scratch/michal/gauss_scratch/Gau-6252.inp -scrdir=/scratch/michal/gauss_scratch/
 Entering Link 1 = /scratch/michal/g09/l1.exe PID=      6254.
  
 Copyright (c) 1988,1990,1992,1993,1995,1998,2003,2009,2011,
            Gaussian, Inc.  All Rights Reserved.
  
 This is part of the Gaussian(R) 09 program.  It is based on
 the Gaussian(R) 03 system (copyright 2003, Gaussian, Inc.),
 the Gaussian(R) 98 system (copyright 1998, Gaussian, Inc.),
 the Gaussian(R) 94 system (copyright 1995, Gaussian, Inc.),
 the Gaussian 92(TM) system (copyright 1992, Gaussian, Inc.),
 the Gaussian 90(TM) system (copyright 1990, Gaussian, Inc.),
 the Gaussian 88(TM) system (copyright 1988, Gaussian, Inc.),
 the Gaussian 86(TM) system (copyright 1986, Carnegie Mellon
 University), and the Gaussian 82(TM) system (copyright 1983,
 Carnegie Mellon University). Gaussian is a federally registered
 trademark of Gaussian, Inc.
  
 This software contains proprietary and confidential information,
 including trade secrets, belonging to Gaussian, Inc.
  
 This software is provided under written license and may be
 used, copied, transmitted, or stored only in accord with that
 written license.
  
 The following legend is applicable only to US Government
 contracts under FAR:
  
                    RESTRICTED RIGHTS LEGEND
  
 Use, reproduction and disclosure by the US Government is
 subject to restrictions as set forth in subparagraphs (a)
 and (c) of the Commercial Computer Software - Restricted
 Rights clause in FAR 52.227-19.
  
 Gaussian, Inc.
 340 Quinnipiac St., Bldg. 40, Wallingford CT 06492
  
  
 ---------------------------------------------------------------
 Warning -- This program may not be used in any manner that
 competes with the business of Gaussian, Inc. or will provide
 assistance to any competitor of Gaussian, Inc.  The licensee
 of this program is prohibited from giving any competitor of
 Gaussian, Inc. access to this program.  By using this program,
 the user acknowledges that Gaussian, Inc. is engaged in the
 business of creating and licensing software in the field of
 computational chemistry and represents and warrants to the
 licensee that it is not a competitor of Gaussian, Inc. and that
 it will not use this program in any manner prohibited above.
 ---------------------------------------------------------------
  

 Cite this work as:
 Gaussian 09, Revision C.01,
 M. J. Frisch, G. W. Trucks, H. B. Schlegel, G. E. Scuseria, 
 M. A. Robb, J. R. Cheeseman, G. Scalmani, V. Barone, B. Mennucci, 
 G. A. Petersson, H. Nakatsuji, M. Caricato, X. Li, H. P. Hratchian, 
 A. F. Izmaylov, J. Bloino, G. Zheng, J. L. Sonnenberg, M. Hada, 
 M. Ehara, K. Toyota, R. Fukuda, J. Hasegawa, M. Ishida, T. Nakajima, 
 Y. Honda, O. Kitao, H. Nakai, T. Vreven, J. A. Montgomery, Jr., 
 J. E. Peralta, F. Ogliaro, M. Bearpark, J. J. Heyd, E. Brothers, 
 K. N. Kudin, V. N. Staroverov, T. Keith, R. Kobayashi, J. Normand, 
 K. Raghavachari, A. Rendell, J. C. Burant, S. S. Iyengar, J. Tomasi, 
 M. Cossi, N. Rega, J. M. Millam, M. Klene, J. E. Knox, J. B. Cross, 
 V. Bakken, C. Adamo, J. Jaramillo, R. Gomperts, R. E. Stratmann, 
 O. Yazyev, A. J. Austin, R. Cammi, C. Pomelli, J. W. Ochterski, 
 R. L. Martin, K. Morokuma, V. G. Zakrzewski, G. A. Voth, 
 P. Salvador, J. J. Dannenberg, S. Dapprich, A. D. Daniels, 
 O. Farkas, J. B. Foresman, J. V. Ortiz, J. Cioslowski, 
 and D. J. Fox, Gaussian, Inc., Wallingford CT, 2010.
 
 ******************************************
 Gaussian 09:  EM64L-G09RevC.01 23-Sep-2011
                28-Apr-2017 
 ******************************************
 %Mem=256MB
 %NProc=48
 Will use up to   48 processors via shared memory.
 ----------------------------------------------------------------------
 #P HF/6-31G* SCF(Conver=6) NoSymm Test Pop=chelpg IOp(6/33=2) GFInput 
 GFPrint
 ----------------------------------------------------------------------
 1/38=1/1;
 2/12=2,15=1,17=6,18=5,40=1/2;
 3/5=1,6=6,7=1,11=9,16=1,24=110,25=1,30=1/1,2,3;
 4//1;
 5/5=2,6=6,38=5/2;
 6/7=2,8=2,9=2,10=2,15=8,20=3,28=1,33=2/1,2;
 99/5=1,9=1/99;
 Leave Link    1 at Fri Apr 28 13:06:13 2017, MaxMem=   33554432 cpu:       3.5
 (Enter /scratch/michal/g09/l101.exe)
 ----------------------------------------------
 MEP - Input generated by R.E.D.-III.x MOLECULE
 ----------------------------------------------
 Charge =  0 Multiplicity = 1
 Symbolic Z-Matrix:
 C                    -1.00929   1.97926   1.69048 
 H                    -0.99509   0.99983   2.18419 
 C                     0.31935   2.69705   1.96518 
 H                     0.47575   2.78966   3.04422 
 H                     0.23238   3.72233   1.56975 
 C                     1.50563   2.00389   1.32147 
 C                     1.39209   1.65855  -0.16678 
 C                    -0.00672   1.0151   -0.42099 
 H                     0.        0.        0. 
 H                    -0.16778   0.90335  -1.49842 
 C                    -1.19298   1.77984   0.18635 
 H                    -1.30357   2.76318  -0.29429 
 H                    -2.12462   1.23355   0. 
 C                     2.59939   1.73296   2.04572 
 H                     2.6247    1.99091   3.1021 
 C                     3.86296   1.12118   1.51652 
 H                     4.03743   0.14272   1.99045 
 C                     3.91025   0.98287  -0.01412 
 H                     4.21229   1.96111  -0.40996 
 C                     2.49794   0.61811  -0.55515 
 H                     2.21533  -0.31713  -0.04475 
 C                     2.53755   0.30394  -2.06928 
 H                     2.71554   1.22488  -2.63466 
 H                     1.55713  -0.06357  -2.39078 
 C                     3.60171  -0.7373   -2.46583 
 H                     3.34164  -1.70755  -2.02001 
 H                     3.57374  -0.87414  -3.55324 
 C                     5.00775  -0.32775  -1.9897 
 C                     4.91796  -0.0963   -0.45125 
 H                     4.52632  -1.04231  -0.04072 
 C                     6.38801   0.        0. 
 H                     6.5137   -0.26766   1.05375 
 H                     6.75964   1.02397  -0.1073 
 C                     7.13624  -0.97789  -0.94951 
 H                     7.98473  -0.47766  -1.4272 
 H                     7.55192  -1.83608  -0.40983 
 C                     6.09403  -1.45905  -2.00721 
 H                     5.58785  -2.32517  -1.55829 
 C                     5.4719    0.94551  -2.73471 
 H                     4.87224   1.8192   -2.46739 
 H                     6.51412   1.19462  -2.52015 
 H                     5.38023   0.81411  -3.81654 
 C                     6.75744  -2.01552  -3.3 
 H                     7.49704  -2.73573  -2.9183 
 C                     7.56134  -1.01614  -4.15651 
 H                     6.91261  -0.37722  -4.76288 
 H                     8.2102   -1.56554  -4.84801 
 H                     8.20424  -0.36585  -3.55627 
 C                     1.52076   2.96821  -0.98984 
 H                     1.29513   2.79907  -2.04739 
 H                     0.82895   3.73495  -0.63162 
 H                     2.529     3.38614  -0.91435 
 O                     4.9942    1.96467   1.85052 
 O                     5.1715    1.91969   3.29859 
 H                     6.03301   1.47431   3.35292 
 O                    -2.11564   2.65759   2.29202 
 H                    -2.18442   3.54152   1.90456 
 C                     5.80341  -2.80858  -4.22686 
 H                     5.04933  -2.12305  -4.63414 
 H                     6.3921   -3.14492  -5.09263 
 C                     5.08795  -4.03952  -3.6376 
 H                     4.44402  -3.74349  -2.79945 
 H                     4.41112  -4.42434  -4.41043 
 C                     6.02758  -5.16448  -3.17674 
 H                     6.7      -4.77887  -2.3992 
 H                     6.67465  -5.4644   -4.01583 
 C                     5.32359  -6.4194   -2.61865 
 H                     4.63522  -6.08871  -1.82529 
 C                     4.49565  -7.15776  -3.68315 
 H                     5.13629  -7.4908   -4.51017 
 H                     4.01571  -8.04639  -3.25763 
 H                     3.70572  -6.52843  -4.10487 
 C                     6.3474   -7.37266  -1.98163 
 H                     7.06637  -7.73006  -2.73003 
 H                     5.85725  -8.25141  -1.54727 
 H                     6.91477  -6.87684  -1.18564 
 
 NAtoms=     76 NQM=        0 NQMF=       0 NMMI=     76 NMMIF=      0
                NMic=       0 NMicF=      0.
                    Isotopes and Nuclear Properties:
 (Nuclear quadrupole moments (NQMom) in fm**2, nuclear magnetic moments (NMagM)
  in nuclear magnetons)

  Atom         1           2           3           4           5           6           7           8           9          10
 IAtWgt=          12           1          12           1           1          12          12          12           1           1
 AtmWgt=  12.0000000   1.0078250  12.0000000   1.0078250   1.0078250  12.0000000  12.0000000  12.0000000   1.0078250   1.0078250
 NucSpn=           0           1           0           1           1           0           0           0           1           1
 AtZEff=   0.0000000   0.0000000   0.0000000   0.0000000   0.0000000   0.0000000   0.0000000   0.0000000   0.0000000   0.0000000
 NQMom=    0.0000000   0.0000000   0.0000000   0.0000000   0.0000000   0.0000000   0.0000000   0.0000000   0.0000000   0.0000000
 NMagM=    0.0000000   2.7928460   0.0000000   2.7928460   2.7928460   0.0000000   0.0000000   0.0000000   2.7928460   2.7928460

  Atom        11          12          13          14          15          16          17          18          19          20
 IAtWgt=          12           1           1          12           1          12           1          12           1          12
 AtmWgt=  12.0000000   1.0078250   1.0078250  12.0000000   1.0078250  12.0000000   1.0078250  12.0000000   1.0078250  12.0000000
 NucSpn=           0           1           1           0           1           0           1           0           1           0
 AtZEff=   0.0000000   0.0000000   0.0000000   0.0000000   0.0000000   0.0000000   0.0000000   0.0000000   0.0000000   0.0000000
 NQMom=    0.0000000   0.0000000   0.0000000   0.0000000   0.0000000   0.0000000   0.0000000   0.0000000   0.0000000   0.0000000
 NMagM=    0.0000000   2.7928460   2.7928460   0.0000000   2.7928460   0.0000000   2.7928460   0.0000000   2.7928460   0.0000000

  Atom        21          22          23          24          25          26          27          28          29          30
 IAtWgt=           1          12           1           1          12           1           1          12          12           1
 AtmWgt=   1.0078250  12.0000000   1.0078250   1.0078250  12.0000000   1.0078250   1.0078250  12.0000000  12.0000000   1.0078250
 NucSpn=           1           0           1           1           0           1           1           0           0           1
 AtZEff=   0.0000000   0.0000000   0.0000000   0.0000000   0.0000000   0.0000000   0.0000000   0.0000000   0.0000000   0.0000000
 NQMom=    0.0000000   0.0000000   0.0000000   0.0000000   0.0000000   0.0000000   0.0000000   0.0000000   0.0000000   0.0000000
 NMagM=    2.7928460   0.0000000   2.7928460   2.7928460   0.0000000   2.7928460   2.7928460   0.0000000   0.0000000   2.7928460

  Atom        31          32          33          34          35          36          37          38          39          40
 IAtWgt=          12           1           1          12           1           1          12           1          12           1
 AtmWgt=  12.0000000   1.0078250   1.0078250  12.0000000   1.0078250   1.0078250  12.0000000   1.0078250  12.0000000   1.0078250
 NucSpn=           0           1           1           0           1           1           0           1           0           1
 AtZEff=   0.0000000   0.0000000   0.0000000   0.0000000   0.0000000   0.0000000   0.0000000   0.0000000   0.0000000   0.0000000
 NQMom=    0.0000000   0.0000000   0.0000000   0.0000000   0.0000000   0.0000000   0.0000000   0.0000000   0.0000000   0.0000000
 NMagM=    0.0000000   2.7928460   2.7928460   0.0000000   2.7928460   2.7928460   0.0000000   2.7928460   0.0000000   2.7928460

  Atom        41          42          43          44          45          46          47          48          49          50
 IAtWgt=           1           1          12           1          12           1           1           1          12           1
 AtmWgt=   1.0078250   1.0078250  12.0000000   1.0078250  12.0000000   1.0078250   1.0078250   1.0078250  12.0000000   1.0078250
 NucSpn=           1           1           0           1           0           1           1           1           0           1
 AtZEff=   0.0000000   0.0000000   0.0000000   0.0000000   0.0000000   0.0000000   0.0000000   0.0000000   0.0000000   0.0000000
 NQMom=    0.0000000   0.0000000   0.0000000   0.0000000   0.0000000   0.0000000   0.0000000   0.0000000   0.0000000   0.0000000
 NMagM=    2.7928460   2.7928460   0.0000000   2.7928460   0.0000000   2.7928460   2.7928460   2.7928460   0.0000000   2.7928460

  Atom        51          52          53          54          55          56          57          58          59          60
 IAtWgt=           1           1          16          16           1          16           1          12           1           1
 AtmWgt=   1.0078250   1.0078250  15.9949146  15.9949146   1.0078250  15.9949146   1.0078250  12.0000000   1.0078250   1.0078250
 NucSpn=           1           1           0           0           1           0           1           0           1           1
 AtZEff=   0.0000000   0.0000000   0.0000000   0.0000000   0.0000000   0.0000000   0.0000000   0.0000000   0.0000000   0.0000000
 NQMom=    0.0000000   0.0000000   0.0000000   0.0000000   0.0000000   0.0000000   0.0000000   0.0000000   0.0000000   0.0000000
 NMagM=    2.7928460   2.7928460   0.0000000   0.0000000   2.7928460   0.0000000   2.7928460   0.0000000   2.7928460   2.7928460

  Atom        61          62          63          64          65          66          67          68          69          70
 IAtWgt=          12           1           1          12           1           1          12           1          12           1
 AtmWgt=  12.0000000   1.0078250   1.0078250  12.0000000   1.0078250   1.0078250  12.0000000   1.0078250  12.0000000   1.0078250
 NucSpn=           0           1           1           0           1           1           0           1           0           1
 AtZEff=   0.0000000   0.0000000   0.0000000   0.0000000   0.0000000   0.0000000   0.0000000   0.0000000   0.0000000   0.0000000
 NQMom=    0.0000000   0.0000000   0.0000000   0.0000000   0.0000000   0.0000000   0.0000000   0.0000000   0.0000000   0.0000000
 NMagM=    0.0000000   2.7928460   2.7928460   0.0000000   2.7928460   2.7928460   0.0000000   2.7928460   0.0000000   2.7928460

  Atom        71          72          73          74          75          76
 IAtWgt=           1           1          12           1           1           1
 AtmWgt=   1.0078250   1.0078250  12.0000000   1.0078250   1.0078250   1.0078250
 NucSpn=           1           1           0           1           1           1
 AtZEff=   0.0000000   0.0000000   0.0000000   0.0000000   0.0000000   0.0000000
 NQMom=    0.0000000   0.0000000   0.0000000   0.0000000   0.0000000   0.0000000
 NMagM=    2.7928460   2.7928460   0.0000000   2.7928460   2.7928460   2.7928460
 Leave Link  101 at Fri Apr 28 13:06:13 2017, MaxMem=   33554432 cpu:      13.3
 (Enter /scratch/michal/g09/l202.exe)
 Symmetry turned off by external request.
 Stoichiometry    C27H46O3
 Framework group  C1[X(C27H46O3)]
 Deg. of freedom   222
 Full point group                 C1      NOp   1
                          Input orientation:                          
 ---------------------------------------------------------------------
 Center     Atomic      Atomic             Coordinates (Angstroms)
 Number     Number       Type             X           Y           Z
 ---------------------------------------------------------------------
      1          6           0       -1.009290    1.979264    1.690475
      2          1           0       -0.995091    0.999832    2.184187
      3          6           0        0.319345    2.697050    1.965183
      4          1           0        0.475753    2.789656    3.044220
      5          1           0        0.232379    3.722325    1.569749
      6          6           0        1.505628    2.003893    1.321467
      7          6           0        1.392089    1.658546   -0.166782
      8          6           0       -0.006715    1.015104   -0.420989
      9          1           0        0.000000    0.000000    0.000000
     10          1           0       -0.167784    0.903352   -1.498416
     11          6           0       -1.192981    1.779836    0.186346
     12          1           0       -1.303572    2.763179   -0.294290
     13          1           0       -2.124622    1.233553    0.000000
     14          6           0        2.599391    1.732960    2.045724
     15          1           0        2.624701    1.990908    3.102100
     16          6           0        3.862957    1.121183    1.516516
     17          1           0        4.037431    0.142716    1.990452
     18          6           0        3.910249    0.982871   -0.014124
     19          1           0        4.212286    1.961109   -0.409956
     20          6           0        2.497945    0.618109   -0.555150
     21          1           0        2.215328   -0.317133   -0.044748
     22          6           0        2.537551    0.303935   -2.069283
     23          1           0        2.715537    1.224875   -2.634660
     24          1           0        1.557128   -0.063570   -2.390782
     25          6           0        3.601712   -0.737299   -2.465831
     26          1           0        3.341639   -1.707554   -2.020006
     27          1           0        3.573740   -0.874141   -3.553237
     28          6           0        5.007755   -0.327755   -1.989698
     29          6           0        4.917956   -0.096300   -0.451252
     30          1           0        4.526321   -1.042311   -0.040718
     31          6           0        6.388012    0.000000    0.000000
     32          1           0        6.513700   -0.267663    1.053748
     33          1           0        6.759644    1.023970   -0.107299
     34          6           0        7.136241   -0.977893   -0.949507
     35          1           0        7.984732   -0.477656   -1.427197
     36          1           0        7.551915   -1.836078   -0.409829
     37          6           0        6.094025   -1.459052   -2.007209
     38          1           0        5.587845   -2.325168   -1.558289
     39          6           0        5.471901    0.945512   -2.734705
     40          1           0        4.872244    1.819199   -2.467393
     41          1           0        6.514124    1.194621   -2.520150
     42          1           0        5.380232    0.814111   -3.816536
     43          6           0        6.757439   -2.015516   -3.299997
     44          1           0        7.497043   -2.735726   -2.918303
     45          6           0        7.561336   -1.016136   -4.156507
     46          1           0        6.912613   -0.377221   -4.762879
     47          1           0        8.210196   -1.565543   -4.848015
     48          1           0        8.204242   -0.365846   -3.556270
     49          6           0        1.520760    2.968212   -0.989839
     50          1           0        1.295130    2.799072   -2.047393
     51          1           0        0.828955    3.734952   -0.631621
     52          1           0        2.528998    3.386137   -0.914345
     53          8           0        4.994196    1.964667    1.850523
     54          8           0        5.171496    1.919691    3.298592
     55          1           0        6.033011    1.474311    3.352922
     56          8           0       -2.115639    2.657591    2.292017
     57          1           0       -2.184425    3.541525    1.904564
     58          6           0        5.803413   -2.808583   -4.226856
     59          1           0        5.049327   -2.123052   -4.634143
     60          1           0        6.392103   -3.144922   -5.092633
     61          6           0        5.087953   -4.039517   -3.637601
     62          1           0        4.444021   -3.743489   -2.799446
     63          1           0        4.411116   -4.424338   -4.410433
     64          6           0        6.027583   -5.164484   -3.176738
     65          1           0        6.699997   -4.778873   -2.399202
     66          1           0        6.674646   -5.464396   -4.015835
     67          6           0        5.323585   -6.419404   -2.618652
     68          1           0        4.635220   -6.088706   -1.825294
     69          6           0        4.495652   -7.157764   -3.683155
     70          1           0        5.136290   -7.490796   -4.510170
     71          1           0        4.015713   -8.046394   -3.257634
     72          1           0        3.705724   -6.528425   -4.104871
     73          6           0        6.347404   -7.372660   -1.981631
     74          1           0        7.066372   -7.730057   -2.730031
     75          1           0        5.857248   -8.251409   -1.547269
     76          1           0        6.914767   -6.876843   -1.185636
 ---------------------------------------------------------------------
 Rotational constants (GHZ):      0.2250171      0.0699612      0.0636667
 Leave Link  202 at Fri Apr 28 13:06:13 2017, MaxMem=   33554432 cpu:       0.1
 (Enter /scratch/michal/g09/l301.exe)
 Standard basis: 6-31G(d) (6D, 7F)
 Ernie: Thresh=  0.10000D-02 Tol=  0.10000D-05 Strict=F.
 AO basis set in the form of general basis input (Overlap normalization):
      1 0
 S   6 1.00       0.000000000000
      0.3047524880D+04  0.1834737132D-02
      0.4573695180D+03  0.1403732281D-01
      0.1039486850D+03  0.6884262226D-01
      0.2921015530D+02  0.2321844432D+00
      0.9286662960D+01  0.4679413484D+00
      0.3163926960D+01  0.3623119853D+00
 SP   3 1.00       0.000000000000
      0.7868272350D+01 -0.1193324198D+00  0.6899906659D-01
      0.1881288540D+01 -0.1608541517D+00  0.3164239610D+00
      0.5442492580D+00  0.1143456438D+01  0.7443082909D+00
 SP   1 1.00       0.000000000000
      0.1687144782D+00  0.1000000000D+01  0.1000000000D+01
 D   1 1.00       0.000000000000
      0.8000000000D+00  0.1000000000D+01
 ****
      2 0
 S   3 1.00       0.000000000000
      0.1873113696D+02  0.3349460434D-01
      0.2825394365D+01  0.2347269535D+00
      0.6401216923D+00  0.8137573261D+00
 S   1 1.00       0.000000000000
      0.1612777588D+00  0.1000000000D+01
 ****
      3 0
 S   6 1.00       0.000000000000
      0.3047524880D+04  0.1834737132D-02
      0.4573695180D+03  0.1403732281D-01
      0.1039486850D+03  0.6884262226D-01
      0.2921015530D+02  0.2321844432D+00
      0.9286662960D+01  0.4679413484D+00
      0.3163926960D+01  0.3623119853D+00
 SP   3 1.00       0.000000000000
      0.7868272350D+01 -0.1193324198D+00  0.6899906659D-01
      0.1881288540D+01 -0.1608541517D+00  0.3164239610D+00
      0.5442492580D+00  0.1143456438D+01  0.7443082909D+00
 SP   1 1.00       0.000000000000
      0.1687144782D+00  0.1000000000D+01  0.1000000000D+01
 D   1 1.00       0.000000000000
      0.8000000000D+00  0.1000000000D+01
 ****
      4 0
 S   3 1.00       0.000000000000
      0.1873113696D+02  0.3349460434D-01
      0.2825394365D+01  0.2347269535D+00
      0.6401216923D+00  0.8137573261D+00
 S   1 1.00       0.000000000000
      0.1612777588D+00  0.1000000000D+01
 ****
      5 0
 S   3 1.00       0.000000000000
      0.1873113696D+02  0.3349460434D-01
      0.2825394365D+01  0.2347269535D+00
      0.6401216923D+00  0.8137573261D+00
 S   1 1.00       0.000000000000
      0.1612777588D+00  0.1000000000D+01
 ****
      6 0
 S   6 1.00       0.000000000000
      0.3047524880D+04  0.1834737132D-02
      0.4573695180D+03  0.1403732281D-01
      0.1039486850D+03  0.6884262226D-01
      0.2921015530D+02  0.2321844432D+00
      0.9286662960D+01  0.4679413484D+00
      0.3163926960D+01  0.3623119853D+00
 SP   3 1.00       0.000000000000
      0.7868272350D+01 -0.1193324198D+00  0.6899906659D-01
      0.1881288540D+01 -0.1608541517D+00  0.3164239610D+00
      0.5442492580D+00  0.1143456438D+01  0.7443082909D+00
 SP   1 1.00       0.000000000000
      0.1687144782D+00  0.1000000000D+01  0.1000000000D+01
 D   1 1.00       0.000000000000
      0.8000000000D+00  0.1000000000D+01
 ****
      7 0
 S   6 1.00       0.000000000000
      0.3047524880D+04  0.1834737132D-02
      0.4573695180D+03  0.1403732281D-01
      0.1039486850D+03  0.6884262226D-01
      0.2921015530D+02  0.2321844432D+00
      0.9286662960D+01  0.4679413484D+00
      0.3163926960D+01  0.3623119853D+00
 SP   3 1.00       0.000000000000
      0.7868272350D+01 -0.1193324198D+00  0.6899906659D-01
      0.1881288540D+01 -0.1608541517D+00  0.3164239610D+00
      0.5442492580D+00  0.1143456438D+01  0.7443082909D+00
 SP   1 1.00       0.000000000000
      0.1687144782D+00  0.1000000000D+01  0.1000000000D+01
 D   1 1.00       0.000000000000
      0.8000000000D+00  0.1000000000D+01
 ****
      8 0
 S   6 1.00       0.000000000000
      0.3047524880D+04  0.1834737132D-02
      0.4573695180D+03  0.1403732281D-01
      0.1039486850D+03  0.6884262226D-01
      0.2921015530D+02  0.2321844432D+00
      0.9286662960D+01  0.4679413484D+00
      0.3163926960D+01  0.3623119853D+00
 SP   3 1.00       0.000000000000
      0.7868272350D+01 -0.1193324198D+00  0.6899906659D-01
      0.1881288540D+01 -0.1608541517D+00  0.3164239610D+00
      0.5442492580D+00  0.1143456438D+01  0.7443082909D+00
 SP   1 1.00       0.000000000000
      0.1687144782D+00  0.1000000000D+01  0.1000000000D+01
 D   1 1.00       0.000000000000
      0.8000000000D+00  0.1000000000D+01
 ****
      9 0
 S   3 1.00       0.000000000000
      0.1873113696D+02  0.3349460434D-01
      0.2825394365D+01  0.2347269535D+00
      0.6401216923D+00  0.8137573261D+00
 S   1 1.00       0.000000000000
      0.1612777588D+00  0.1000000000D+01
 ****
     10 0
 S   3 1.00       0.000000000000
      0.1873113696D+02  0.3349460434D-01
      0.2825394365D+01  0.2347269535D+00
      0.6401216923D+00  0.8137573261D+00
 S   1 1.00       0.000000000000
      0.1612777588D+00  0.1000000000D+01
 ****
     11 0
 S   6 1.00       0.000000000000
      0.3047524880D+04  0.1834737132D-02
      0.4573695180D+03  0.1403732281D-01
      0.1039486850D+03  0.6884262226D-01
      0.2921015530D+02  0.2321844432D+00
      0.9286662960D+01  0.4679413484D+00
      0.3163926960D+01  0.3623119853D+00
 SP   3 1.00       0.000000000000
      0.7868272350D+01 -0.1193324198D+00  0.6899906659D-01
      0.1881288540D+01 -0.1608541517D+00  0.3164239610D+00
      0.5442492580D+00  0.1143456438D+01  0.7443082909D+00
 SP   1 1.00       0.000000000000
      0.1687144782D+00  0.1000000000D+01  0.1000000000D+01
 D   1 1.00       0.000000000000
      0.8000000000D+00  0.1000000000D+01
 ****
     12 0
 S   3 1.00       0.000000000000
      0.1873113696D+02  0.3349460434D-01
      0.2825394365D+01  0.2347269535D+00
      0.6401216923D+00  0.8137573261D+00
 S   1 1.00       0.000000000000
      0.1612777588D+00  0.1000000000D+01
 ****
     13 0
 S   3 1.00       0.000000000000
      0.1873113696D+02  0.3349460434D-01
      0.2825394365D+01  0.2347269535D+00
      0.6401216923D+00  0.8137573261D+00
 S   1 1.00       0.000000000000
      0.1612777588D+00  0.1000000000D+01
 ****
     14 0
 S   6 1.00       0.000000000000
      0.3047524880D+04  0.1834737132D-02
      0.4573695180D+03  0.1403732281D-01
      0.1039486850D+03  0.6884262226D-01
      0.2921015530D+02  0.2321844432D+00
      0.9286662960D+01  0.4679413484D+00
      0.3163926960D+01  0.3623119853D+00
 SP   3 1.00       0.000000000000
      0.7868272350D+01 -0.1193324198D+00  0.6899906659D-01
      0.1881288540D+01 -0.1608541517D+00  0.3164239610D+00
      0.5442492580D+00  0.1143456438D+01  0.7443082909D+00
 SP   1 1.00       0.000000000000
      0.1687144782D+00  0.1000000000D+01  0.1000000000D+01
 D   1 1.00       0.000000000000
      0.8000000000D+00  0.1000000000D+01
 ****
     15 0
 S   3 1.00       0.000000000000
      0.1873113696D+02  0.3349460434D-01
      0.2825394365D+01  0.2347269535D+00
      0.6401216923D+00  0.8137573261D+00
 S   1 1.00       0.000000000000
      0.1612777588D+00  0.1000000000D+01
 ****
     16 0
 S   6 1.00       0.000000000000
      0.3047524880D+04  0.1834737132D-02
      0.4573695180D+03  0.1403732281D-01
      0.1039486850D+03  0.6884262226D-01
      0.2921015530D+02  0.2321844432D+00
      0.9286662960D+01  0.4679413484D+00
      0.3163926960D+01  0.3623119853D+00
 SP   3 1.00       0.000000000000
      0.7868272350D+01 -0.1193324198D+00  0.6899906659D-01
      0.1881288540D+01 -0.1608541517D+00  0.3164239610D+00
      0.5442492580D+00  0.1143456438D+01  0.7443082909D+00
 SP   1 1.00       0.000000000000
      0.1687144782D+00  0.1000000000D+01  0.1000000000D+01
 D   1 1.00       0.000000000000
      0.8000000000D+00  0.1000000000D+01
 ****
     17 0
 S   3 1.00       0.000000000000
      0.1873113696D+02  0.3349460434D-01
      0.2825394365D+01  0.2347269535D+00
      0.6401216923D+00  0.8137573261D+00
 S   1 1.00       0.000000000000
      0.1612777588D+00  0.1000000000D+01
 ****
     18 0
 S   6 1.00       0.000000000000
      0.3047524880D+04  0.1834737132D-02
      0.4573695180D+03  0.1403732281D-01
      0.1039486850D+03  0.6884262226D-01
      0.2921015530D+02  0.2321844432D+00
      0.9286662960D+01  0.4679413484D+00
      0.3163926960D+01  0.3623119853D+00
 SP   3 1.00       0.000000000000
      0.7868272350D+01 -0.1193324198D+00  0.6899906659D-01
      0.1881288540D+01 -0.1608541517D+00  0.3164239610D+00
      0.5442492580D+00  0.1143456438D+01  0.7443082909D+00
 SP   1 1.00       0.000000000000
      0.1687144782D+00  0.1000000000D+01  0.1000000000D+01
 D   1 1.00       0.000000000000
      0.8000000000D+00  0.1000000000D+01
 ****
     19 0
 S   3 1.00       0.000000000000
      0.1873113696D+02  0.3349460434D-01
      0.2825394365D+01  0.2347269535D+00
      0.6401216923D+00  0.8137573261D+00
 S   1 1.00       0.000000000000
      0.1612777588D+00  0.1000000000D+01
 ****
     20 0
 S   6 1.00       0.000000000000
      0.3047524880D+04  0.1834737132D-02
      0.4573695180D+03  0.1403732281D-01
      0.1039486850D+03  0.6884262226D-01
      0.2921015530D+02  0.2321844432D+00
      0.9286662960D+01  0.4679413484D+00
      0.3163926960D+01  0.3623119853D+00
 SP   3 1.00       0.000000000000
      0.7868272350D+01 -0.1193324198D+00  0.6899906659D-01
      0.1881288540D+01 -0.1608541517D+00  0.3164239610D+00
      0.5442492580D+00  0.1143456438D+01  0.7443082909D+00
 SP   1 1.00       0.000000000000
      0.1687144782D+00  0.1000000000D+01  0.1000000000D+01
 D   1 1.00       0.000000000000
      0.8000000000D+00  0.1000000000D+01
 ****
     21 0
 S   3 1.00       0.000000000000
      0.1873113696D+02  0.3349460434D-01
      0.2825394365D+01  0.2347269535D+00
      0.6401216923D+00  0.8137573261D+00
 S   1 1.00       0.000000000000
      0.1612777588D+00  0.1000000000D+01
 ****
     22 0
 S   6 1.00       0.000000000000
      0.3047524880D+04  0.1834737132D-02
      0.4573695180D+03  0.1403732281D-01
      0.1039486850D+03  0.6884262226D-01
      0.2921015530D+02  0.2321844432D+00
      0.9286662960D+01  0.4679413484D+00
      0.3163926960D+01  0.3623119853D+00
 SP   3 1.00       0.000000000000
      0.7868272350D+01 -0.1193324198D+00  0.6899906659D-01
      0.1881288540D+01 -0.1608541517D+00  0.3164239610D+00
      0.5442492580D+00  0.1143456438D+01  0.7443082909D+00
 SP   1 1.00       0.000000000000
      0.1687144782D+00  0.1000000000D+01  0.1000000000D+01
 D   1 1.00       0.000000000000
      0.8000000000D+00  0.1000000000D+01
 ****
     23 0
 S   3 1.00       0.000000000000
      0.1873113696D+02  0.3349460434D-01
      0.2825394365D+01  0.2347269535D+00
      0.6401216923D+00  0.8137573261D+00
 S   1 1.00       0.000000000000
      0.1612777588D+00  0.1000000000D+01
 ****
     24 0
 S   3 1.00       0.000000000000
      0.1873113696D+02  0.3349460434D-01
      0.2825394365D+01  0.2347269535D+00
      0.6401216923D+00  0.8137573261D+00
 S   1 1.00       0.000000000000
      0.1612777588D+00  0.1000000000D+01
 ****
     25 0
 S   6 1.00       0.000000000000
      0.3047524880D+04  0.1834737132D-02
      0.4573695180D+03  0.1403732281D-01
      0.1039486850D+03  0.6884262226D-01
      0.2921015530D+02  0.2321844432D+00
      0.9286662960D+01  0.4679413484D+00
      0.3163926960D+01  0.3623119853D+00
 SP   3 1.00       0.000000000000
      0.7868272350D+01 -0.1193324198D+00  0.6899906659D-01
      0.1881288540D+01 -0.1608541517D+00  0.3164239610D+00
      0.5442492580D+00  0.1143456438D+01  0.7443082909D+00
 SP   1 1.00       0.000000000000
      0.1687144782D+00  0.1000000000D+01  0.1000000000D+01
 D   1 1.00       0.000000000000
      0.8000000000D+00  0.1000000000D+01
 ****
     26 0
 S   3 1.00       0.000000000000
      0.1873113696D+02  0.3349460434D-01
      0.2825394365D+01  0.2347269535D+00
      0.6401216923D+00  0.8137573261D+00
 S   1 1.00       0.000000000000
      0.1612777588D+00  0.1000000000D+01
 ****
     27 0
 S   3 1.00       0.000000000000
      0.1873113696D+02  0.3349460434D-01
      0.2825394365D+01  0.2347269535D+00
      0.6401216923D+00  0.8137573261D+00
 S   1 1.00       0.000000000000
      0.1612777588D+00  0.1000000000D+01
 ****
     28 0
 S   6 1.00       0.000000000000
      0.3047524880D+04  0.1834737132D-02
      0.4573695180D+03  0.1403732281D-01
      0.1039486850D+03  0.6884262226D-01
      0.2921015530D+02  0.2321844432D+00
      0.9286662960D+01  0.4679413484D+00
      0.3163926960D+01  0.3623119853D+00
 SP   3 1.00       0.000000000000
      0.7868272350D+01 -0.1193324198D+00  0.6899906659D-01
      0.1881288540D+01 -0.1608541517D+00  0.3164239610D+00
      0.5442492580D+00  0.1143456438D+01  0.7443082909D+00
 SP   1 1.00       0.000000000000
      0.1687144782D+00  0.1000000000D+01  0.1000000000D+01
 D   1 1.00       0.000000000000
      0.8000000000D+00  0.1000000000D+01
 ****
     29 0
 S   6 1.00       0.000000000000
      0.3047524880D+04  0.1834737132D-02
      0.4573695180D+03  0.1403732281D-01
      0.1039486850D+03  0.6884262226D-01
      0.2921015530D+02  0.2321844432D+00
      0.9286662960D+01  0.4679413484D+00
      0.3163926960D+01  0.3623119853D+00
 SP   3 1.00       0.000000000000
      0.7868272350D+01 -0.1193324198D+00  0.6899906659D-01
      0.1881288540D+01 -0.1608541517D+00  0.3164239610D+00
      0.5442492580D+00  0.1143456438D+01  0.7443082909D+00
 SP   1 1.00       0.000000000000
      0.1687144782D+00  0.1000000000D+01  0.1000000000D+01
 D   1 1.00       0.000000000000
      0.8000000000D+00  0.1000000000D+01
 ****
     30 0
 S   3 1.00       0.000000000000
      0.1873113696D+02  0.3349460434D-01
      0.2825394365D+01  0.2347269535D+00
      0.6401216923D+00  0.8137573261D+00
 S   1 1.00       0.000000000000
      0.1612777588D+00  0.1000000000D+01
 ****
     31 0
 S   6 1.00       0.000000000000
      0.3047524880D+04  0.1834737132D-02
      0.4573695180D+03  0.1403732281D-01
      0.1039486850D+03  0.6884262226D-01
      0.2921015530D+02  0.2321844432D+00
      0.9286662960D+01  0.4679413484D+00
      0.3163926960D+01  0.3623119853D+00
 SP   3 1.00       0.000000000000
      0.7868272350D+01 -0.1193324198D+00  0.6899906659D-01
      0.1881288540D+01 -0.1608541517D+00  0.3164239610D+00
      0.5442492580D+00  0.1143456438D+01  0.7443082909D+00
 SP   1 1.00       0.000000000000
      0.1687144782D+00  0.1000000000D+01  0.1000000000D+01
 D   1 1.00       0.000000000000
      0.8000000000D+00  0.1000000000D+01
 ****
     32 0
 S   3 1.00       0.000000000000
      0.1873113696D+02  0.3349460434D-01
      0.2825394365D+01  0.2347269535D+00
      0.6401216923D+00  0.8137573261D+00
 S   1 1.00       0.000000000000
      0.1612777588D+00  0.1000000000D+01
 ****
     33 0
 S   3 1.00       0.000000000000
      0.1873113696D+02  0.3349460434D-01
      0.2825394365D+01  0.2347269535D+00
      0.6401216923D+00  0.8137573261D+00
 S   1 1.00       0.000000000000
      0.1612777588D+00  0.1000000000D+01
 ****
     34 0
 S   6 1.00       0.000000000000
      0.3047524880D+04  0.1834737132D-02
      0.4573695180D+03  0.1403732281D-01
      0.1039486850D+03  0.6884262226D-01
      0.2921015530D+02  0.2321844432D+00
      0.9286662960D+01  0.4679413484D+00
      0.3163926960D+01  0.3623119853D+00
 SP   3 1.00       0.000000000000
      0.7868272350D+01 -0.1193324198D+00  0.6899906659D-01
      0.1881288540D+01 -0.1608541517D+00  0.3164239610D+00
      0.5442492580D+00  0.1143456438D+01  0.7443082909D+00
 SP   1 1.00       0.000000000000
      0.1687144782D+00  0.1000000000D+01  0.1000000000D+01
 D   1 1.00       0.000000000000
      0.8000000000D+00  0.1000000000D+01
 ****
     35 0
 S   3 1.00       0.000000000000
      0.1873113696D+02  0.3349460434D-01
      0.2825394365D+01  0.2347269535D+00
      0.6401216923D+00  0.8137573261D+00
 S   1 1.00       0.000000000000
      0.1612777588D+00  0.1000000000D+01
 ****
     36 0
 S   3 1.00       0.000000000000
      0.1873113696D+02  0.3349460434D-01
      0.2825394365D+01  0.2347269535D+00
      0.6401216923D+00  0.8137573261D+00
 S   1 1.00       0.000000000000
      0.1612777588D+00  0.1000000000D+01
 ****
     37 0
 S   6 1.00       0.000000000000
      0.3047524880D+04  0.1834737132D-02
      0.4573695180D+03  0.1403732281D-01
      0.1039486850D+03  0.6884262226D-01
      0.2921015530D+02  0.2321844432D+00
      0.9286662960D+01  0.4679413484D+00
      0.3163926960D+01  0.3623119853D+00
 SP   3 1.00       0.000000000000
      0.7868272350D+01 -0.1193324198D+00  0.6899906659D-01
      0.1881288540D+01 -0.1608541517D+00  0.3164239610D+00
      0.5442492580D+00  0.1143456438D+01  0.7443082909D+00
 SP   1 1.00       0.000000000000
      0.1687144782D+00  0.1000000000D+01  0.1000000000D+01
 D   1 1.00       0.000000000000
      0.8000000000D+00  0.1000000000D+01
 ****
     38 0
 S   3 1.00       0.000000000000
      0.1873113696D+02  0.3349460434D-01
      0.2825394365D+01  0.2347269535D+00
      0.6401216923D+00  0.8137573261D+00
 S   1 1.00       0.000000000000
      0.1612777588D+00  0.1000000000D+01
 ****
     39 0
 S   6 1.00       0.000000000000
      0.3047524880D+04  0.1834737132D-02
      0.4573695180D+03  0.1403732281D-01
      0.1039486850D+03  0.6884262226D-01
      0.2921015530D+02  0.2321844432D+00
      0.9286662960D+01  0.4679413484D+00
      0.3163926960D+01  0.3623119853D+00
 SP   3 1.00       0.000000000000
      0.7868272350D+01 -0.1193324198D+00  0.6899906659D-01
      0.1881288540D+01 -0.1608541517D+00  0.3164239610D+00
      0.5442492580D+00  0.1143456438D+01  0.7443082909D+00
 SP   1 1.00       0.000000000000
      0.1687144782D+00  0.1000000000D+01  0.1000000000D+01
 D   1 1.00       0.000000000000
      0.8000000000D+00  0.1000000000D+01
 ****
     40 0
 S   3 1.00       0.000000000000
      0.1873113696D+02  0.3349460434D-01
      0.2825394365D+01  0.2347269535D+00
      0.6401216923D+00  0.8137573261D+00
 S   1 1.00       0.000000000000
      0.1612777588D+00  0.1000000000D+01
 ****
     41 0
 S   3 1.00       0.000000000000
      0.1873113696D+02  0.3349460434D-01
      0.2825394365D+01  0.2347269535D+00
      0.6401216923D+00  0.8137573261D+00
 S   1 1.00       0.000000000000
      0.1612777588D+00  0.1000000000D+01
 ****
     42 0
 S   3 1.00       0.000000000000
      0.1873113696D+02  0.3349460434D-01
      0.2825394365D+01  0.2347269535D+00
      0.6401216923D+00  0.8137573261D+00
 S   1 1.00       0.000000000000
      0.1612777588D+00  0.1000000000D+01
 ****
     43 0
 S   6 1.00       0.000000000000
      0.3047524880D+04  0.1834737132D-02
      0.4573695180D+03  0.1403732281D-01
      0.1039486850D+03  0.6884262226D-01
      0.2921015530D+02  0.2321844432D+00
      0.9286662960D+01  0.4679413484D+00
      0.3163926960D+01  0.3623119853D+00
 SP   3 1.00       0.000000000000
      0.7868272350D+01 -0.1193324198D+00  0.6899906659D-01
      0.1881288540D+01 -0.1608541517D+00  0.3164239610D+00
      0.5442492580D+00  0.1143456438D+01  0.7443082909D+00
 SP   1 1.00       0.000000000000
      0.1687144782D+00  0.1000000000D+01  0.1000000000D+01
 D   1 1.00       0.000000000000
      0.8000000000D+00  0.1000000000D+01
 ****
     44 0
 S   3 1.00       0.000000000000
      0.1873113696D+02  0.3349460434D-01
      0.2825394365D+01  0.2347269535D+00
      0.6401216923D+00  0.8137573261D+00
 S   1 1.00       0.000000000000
      0.1612777588D+00  0.1000000000D+01
 ****
     45 0
 S   6 1.00       0.000000000000
      0.3047524880D+04  0.1834737132D-02
      0.4573695180D+03  0.1403732281D-01
      0.1039486850D+03  0.6884262226D-01
      0.2921015530D+02  0.2321844432D+00
      0.9286662960D+01  0.4679413484D+00
      0.3163926960D+01  0.3623119853D+00
 SP   3 1.00       0.000000000000
      0.7868272350D+01 -0.1193324198D+00  0.6899906659D-01
      0.1881288540D+01 -0.1608541517D+00  0.3164239610D+00
      0.5442492580D+00  0.1143456438D+01  0.7443082909D+00
 SP   1 1.00       0.000000000000
      0.1687144782D+00  0.1000000000D+01  0.1000000000D+01
 D   1 1.00       0.000000000000
      0.8000000000D+00  0.1000000000D+01
 ****
     46 0
 S   3 1.00       0.000000000000
      0.1873113696D+02  0.3349460434D-01
      0.2825394365D+01  0.2347269535D+00
      0.6401216923D+00  0.8137573261D+00
 S   1 1.00       0.000000000000
      0.1612777588D+00  0.1000000000D+01
 ****
     47 0
 S   3 1.00       0.000000000000
      0.1873113696D+02  0.3349460434D-01
      0.2825394365D+01  0.2347269535D+00
      0.6401216923D+00  0.8137573261D+00
 S   1 1.00       0.000000000000
      0.1612777588D+00  0.1000000000D+01
 ****
     48 0
 S   3 1.00       0.000000000000
      0.1873113696D+02  0.3349460434D-01
      0.2825394365D+01  0.2347269535D+00
      0.6401216923D+00  0.8137573261D+00
 S   1 1.00       0.000000000000
      0.1612777588D+00  0.1000000000D+01
 ****
     49 0
 S   6 1.00       0.000000000000
      0.3047524880D+04  0.1834737132D-02
      0.4573695180D+03  0.1403732281D-01
      0.1039486850D+03  0.6884262226D-01
      0.2921015530D+02  0.2321844432D+00
      0.9286662960D+01  0.4679413484D+00
      0.3163926960D+01  0.3623119853D+00
 SP   3 1.00       0.000000000000
      0.7868272350D+01 -0.1193324198D+00  0.6899906659D-01
      0.1881288540D+01 -0.1608541517D+00  0.3164239610D+00
      0.5442492580D+00  0.1143456438D+01  0.7443082909D+00
 SP   1 1.00       0.000000000000
      0.1687144782D+00  0.1000000000D+01  0.1000000000D+01
 D   1 1.00       0.000000000000
      0.8000000000D+00  0.1000000000D+01
 ****
     50 0
 S   3 1.00       0.000000000000
      0.1873113696D+02  0.3349460434D-01
      0.2825394365D+01  0.2347269535D+00
      0.6401216923D+00  0.8137573261D+00
 S   1 1.00       0.000000000000
      0.1612777588D+00  0.1000000000D+01
 ****
     51 0
 S   3 1.00       0.000000000000
      0.1873113696D+02  0.3349460434D-01
      0.2825394365D+01  0.2347269535D+00
      0.6401216923D+00  0.8137573261D+00
 S   1 1.00       0.000000000000
      0.1612777588D+00  0.1000000000D+01
 ****
     52 0
 S   3 1.00       0.000000000000
      0.1873113696D+02  0.3349460434D-01
      0.2825394365D+01  0.2347269535D+00
      0.6401216923D+00  0.8137573261D+00
 S   1 1.00       0.000000000000
      0.1612777588D+00  0.1000000000D+01
 ****
     53 0
 S   6 1.00       0.000000000000
      0.5484671660D+04  0.1831074430D-02
      0.8252349460D+03  0.1395017220D-01
      0.1880469580D+03  0.6844507810D-01
      0.5296450000D+02  0.2327143360D+00
      0.1689757040D+02  0.4701928980D+00
      0.5799635340D+01  0.3585208530D+00
 SP   3 1.00       0.000000000000
      0.1553961625D+02 -0.1107775495D+00  0.7087426823D-01
      0.3599933586D+01 -0.1480262627D+00  0.3397528391D+00
      0.1013761750D+01  0.1130767015D+01  0.7271585773D+00
 SP   1 1.00       0.000000000000
      0.2700058226D+00  0.1000000000D+01  0.1000000000D+01
 D   1 1.00       0.000000000000
      0.8000000000D+00  0.1000000000D+01
 ****
     54 0
 S   6 1.00       0.000000000000
      0.5484671660D+04  0.1831074430D-02
      0.8252349460D+03  0.1395017220D-01
      0.1880469580D+03  0.6844507810D-01
      0.5296450000D+02  0.2327143360D+00
      0.1689757040D+02  0.4701928980D+00
      0.5799635340D+01  0.3585208530D+00
 SP   3 1.00       0.000000000000
      0.1553961625D+02 -0.1107775495D+00  0.7087426823D-01
      0.3599933586D+01 -0.1480262627D+00  0.3397528391D+00
      0.1013761750D+01  0.1130767015D+01  0.7271585773D+00
 SP   1 1.00       0.000000000000
      0.2700058226D+00  0.1000000000D+01  0.1000000000D+01
 D   1 1.00       0.000000000000
      0.8000000000D+00  0.1000000000D+01
 ****
     55 0
 S   3 1.00       0.000000000000
      0.1873113696D+02  0.3349460434D-01
      0.2825394365D+01  0.2347269535D+00
      0.6401216923D+00  0.8137573261D+00
 S   1 1.00       0.000000000000
      0.1612777588D+00  0.1000000000D+01
 ****
     56 0
 S   6 1.00       0.000000000000
      0.5484671660D+04  0.1831074430D-02
      0.8252349460D+03  0.1395017220D-01
      0.1880469580D+03  0.6844507810D-01
      0.5296450000D+02  0.2327143360D+00
      0.1689757040D+02  0.4701928980D+00
      0.5799635340D+01  0.3585208530D+00
 SP   3 1.00       0.000000000000
      0.1553961625D+02 -0.1107775495D+00  0.7087426823D-01
      0.3599933586D+01 -0.1480262627D+00  0.3397528391D+00
      0.1013761750D+01  0.1130767015D+01  0.7271585773D+00
 SP   1 1.00       0.000000000000
      0.2700058226D+00  0.1000000000D+01  0.1000000000D+01
 D   1 1.00       0.000000000000
      0.8000000000D+00  0.1000000000D+01
 ****
     57 0
 S   3 1.00       0.000000000000
      0.1873113696D+02  0.3349460434D-01
      0.2825394365D+01  0.2347269535D+00
      0.6401216923D+00  0.8137573261D+00
 S   1 1.00       0.000000000000
      0.1612777588D+00  0.1000000000D+01
 ****
     58 0
 S   6 1.00       0.000000000000
      0.3047524880D+04  0.1834737132D-02
      0.4573695180D+03  0.1403732281D-01
      0.1039486850D+03  0.6884262226D-01
      0.2921015530D+02  0.2321844432D+00
      0.9286662960D+01  0.4679413484D+00
      0.3163926960D+01  0.3623119853D+00
 SP   3 1.00       0.000000000000
      0.7868272350D+01 -0.1193324198D+00  0.6899906659D-01
      0.1881288540D+01 -0.1608541517D+00  0.3164239610D+00
      0.5442492580D+00  0.1143456438D+01  0.7443082909D+00
 SP   1 1.00       0.000000000000
      0.1687144782D+00  0.1000000000D+01  0.1000000000D+01
 D   1 1.00       0.000000000000
      0.8000000000D+00  0.1000000000D+01
 ****
     59 0
 S   3 1.00       0.000000000000
      0.1873113696D+02  0.3349460434D-01
      0.2825394365D+01  0.2347269535D+00
      0.6401216923D+00  0.8137573261D+00
 S   1 1.00       0.000000000000
      0.1612777588D+00  0.1000000000D+01
 ****
     60 0
 S   3 1.00       0.000000000000
      0.1873113696D+02  0.3349460434D-01
      0.2825394365D+01  0.2347269535D+00
      0.6401216923D+00  0.8137573261D+00
 S   1 1.00       0.000000000000
      0.1612777588D+00  0.1000000000D+01
 ****
     61 0
 S   6 1.00       0.000000000000
      0.3047524880D+04  0.1834737132D-02
      0.4573695180D+03  0.1403732281D-01
      0.1039486850D+03  0.6884262226D-01
      0.2921015530D+02  0.2321844432D+00
      0.9286662960D+01  0.4679413484D+00
      0.3163926960D+01  0.3623119853D+00
 SP   3 1.00       0.000000000000
      0.7868272350D+01 -0.1193324198D+00  0.6899906659D-01
      0.1881288540D+01 -0.1608541517D+00  0.3164239610D+00
      0.5442492580D+00  0.1143456438D+01  0.7443082909D+00
 SP   1 1.00       0.000000000000
      0.1687144782D+00  0.1000000000D+01  0.1000000000D+01
 D   1 1.00       0.000000000000
      0.8000000000D+00  0.1000000000D+01
 ****
     62 0
 S   3 1.00       0.000000000000
      0.1873113696D+02  0.3349460434D-01
      0.2825394365D+01  0.2347269535D+00
      0.6401216923D+00  0.8137573261D+00
 S   1 1.00       0.000000000000
      0.1612777588D+00  0.1000000000D+01
 ****
     63 0
 S   3 1.00       0.000000000000
      0.1873113696D+02  0.3349460434D-01
      0.2825394365D+01  0.2347269535D+00
      0.6401216923D+00  0.8137573261D+00
 S   1 1.00       0.000000000000
      0.1612777588D+00  0.1000000000D+01
 ****
     64 0
 S   6 1.00       0.000000000000
      0.3047524880D+04  0.1834737132D-02
      0.4573695180D+03  0.1403732281D-01
      0.1039486850D+03  0.6884262226D-01
      0.2921015530D+02  0.2321844432D+00
      0.9286662960D+01  0.4679413484D+00
      0.3163926960D+01  0.3623119853D+00
 SP   3 1.00       0.000000000000
      0.7868272350D+01 -0.1193324198D+00  0.6899906659D-01
      0.1881288540D+01 -0.1608541517D+00  0.3164239610D+00
      0.5442492580D+00  0.1143456438D+01  0.7443082909D+00
 SP   1 1.00       0.000000000000
      0.1687144782D+00  0.1000000000D+01  0.1000000000D+01
 D   1 1.00       0.000000000000
      0.8000000000D+00  0.1000000000D+01
 ****
     65 0
 S   3 1.00       0.000000000000
      0.1873113696D+02  0.3349460434D-01
      0.2825394365D+01  0.2347269535D+00
      0.6401216923D+00  0.8137573261D+00
 S   1 1.00       0.000000000000
      0.1612777588D+00  0.1000000000D+01
 ****
     66 0
 S   3 1.00       0.000000000000
      0.1873113696D+02  0.3349460434D-01
      0.2825394365D+01  0.2347269535D+00
      0.6401216923D+00  0.8137573261D+00
 S   1 1.00       0.000000000000
      0.1612777588D+00  0.1000000000D+01
 ****
     67 0
 S   6 1.00       0.000000000000
      0.3047524880D+04  0.1834737132D-02
      0.4573695180D+03  0.1403732281D-01
      0.1039486850D+03  0.6884262226D-01
      0.2921015530D+02  0.2321844432D+00
      0.9286662960D+01  0.4679413484D+00
      0.3163926960D+01  0.3623119853D+00
 SP   3 1.00       0.000000000000
      0.7868272350D+01 -0.1193324198D+00  0.6899906659D-01
      0.1881288540D+01 -0.1608541517D+00  0.3164239610D+00
      0.5442492580D+00  0.1143456438D+01  0.7443082909D+00
 SP   1 1.00       0.000000000000
      0.1687144782D+00  0.1000000000D+01  0.1000000000D+01
 D   1 1.00       0.000000000000
      0.8000000000D+00  0.1000000000D+01
 ****
     68 0
 S   3 1.00       0.000000000000
      0.1873113696D+02  0.3349460434D-01
      0.2825394365D+01  0.2347269535D+00
      0.6401216923D+00  0.8137573261D+00
 S   1 1.00       0.000000000000
      0.1612777588D+00  0.1000000000D+01
 ****
     69 0
 S   6 1.00       0.000000000000
      0.3047524880D+04  0.1834737132D-02
      0.4573695180D+03  0.1403732281D-01
      0.1039486850D+03  0.6884262226D-01
      0.2921015530D+02  0.2321844432D+00
      0.9286662960D+01  0.4679413484D+00
      0.3163926960D+01  0.3623119853D+00
 SP   3 1.00       0.000000000000
      0.7868272350D+01 -0.1193324198D+00  0.6899906659D-01
      0.1881288540D+01 -0.1608541517D+00  0.3164239610D+00
      0.5442492580D+00  0.1143456438D+01  0.7443082909D+00
 SP   1 1.00       0.000000000000
      0.1687144782D+00  0.1000000000D+01  0.1000000000D+01
 D   1 1.00       0.000000000000
      0.8000000000D+00  0.1000000000D+01
 ****
     70 0
 S   3 1.00       0.000000000000
      0.1873113696D+02  0.3349460434D-01
      0.2825394365D+01  0.2347269535D+00
      0.6401216923D+00  0.8137573261D+00
 S   1 1.00       0.000000000000
      0.1612777588D+00  0.1000000000D+01
 ****
     71 0
 S   3 1.00       0.000000000000
      0.1873113696D+02  0.3349460434D-01
      0.2825394365D+01  0.2347269535D+00
      0.6401216923D+00  0.8137573261D+00
 S   1 1.00       0.000000000000
      0.1612777588D+00  0.1000000000D+01
 ****
     72 0
 S   3 1.00       0.000000000000
      0.1873113696D+02  0.3349460434D-01
      0.2825394365D+01  0.2347269535D+00
      0.6401216923D+00  0.8137573261D+00
 S   1 1.00       0.000000000000
      0.1612777588D+00  0.1000000000D+01
 ****
     73 0
 S   6 1.00       0.000000000000
      0.3047524880D+04  0.1834737132D-02
      0.4573695180D+03  0.1403732281D-01
      0.1039486850D+03  0.6884262226D-01
      0.2921015530D+02  0.2321844432D+00
      0.9286662960D+01  0.4679413484D+00
      0.3163926960D+01  0.3623119853D+00
 SP   3 1.00       0.000000000000
      0.7868272350D+01 -0.1193324198D+00  0.6899906659D-01
      0.1881288540D+01 -0.1608541517D+00  0.3164239610D+00
      0.5442492580D+00  0.1143456438D+01  0.7443082909D+00
 SP   1 1.00       0.000000000000
      0.1687144782D+00  0.1000000000D+01  0.1000000000D+01
 D   1 1.00       0.000000000000
      0.8000000000D+00  0.1000000000D+01
 ****
     74 0
 S   3 1.00       0.000000000000
      0.1873113696D+02  0.3349460434D-01
      0.2825394365D+01  0.2347269535D+00
      0.6401216923D+00  0.8137573261D+00
 S   1 1.00       0.000000000000
      0.1612777588D+00  0.1000000000D+01
 ****
     75 0
 S   3 1.00       0.000000000000
      0.1873113696D+02  0.3349460434D-01
      0.2825394365D+01  0.2347269535D+00
      0.6401216923D+00  0.8137573261D+00
 S   1 1.00       0.000000000000
      0.1612777588D+00  0.1000000000D+01
 ****
     76 0
 S   3 1.00       0.000000000000
      0.1873113696D+02  0.3349460434D-01
      0.2825394365D+01  0.2347269535D+00
      0.6401216923D+00  0.8137573261D+00
 S   1 1.00       0.000000000000
      0.1612777588D+00  0.1000000000D+01
 ****

 AO basis set (Overlap normalization):
 Atom C1       Shell     1 S   6     bf    1 -     1         -1.907282444551          3.740267150344          3.194534992360
      0.3047524880D+04  0.1834737132D-02
      0.4573695180D+03  0.1403732281D-01
      0.1039486850D+03  0.6884262226D-01
      0.2921015530D+02  0.2321844432D+00
      0.9286662960D+01  0.4679413484D+00
      0.3163926960D+01  0.3623119853D+00
 Atom C1       Shell     2 SP   3    bf    2 -     5         -1.907282444551          3.740267150344          3.194534992360
      0.7868272350D+01 -0.1193324198D+00  0.6899906659D-01
      0.1881288540D+01 -0.1608541517D+00  0.3164239610D+00
      0.5442492580D+00  0.1143456438D+01  0.7443082909D+00
 Atom C1       Shell     3 SP   1    bf    6 -     9         -1.907282444551          3.740267150344          3.194534992360
      0.1687144782D+00  0.1000000000D+01  0.1000000000D+01
 Atom C1       Shell     4 D   1     bf   10 -    15         -1.907282444551          3.740267150344          3.194534992360
      0.8000000000D+00  0.1000000000D+01
 Atom H2       Shell     5 S   3     bf   16 -    16         -1.880449335018          1.889408904560          4.127514327043
      0.1873113696D+02  0.3349460434D-01
      0.2825394365D+01  0.2347269535D+00
      0.6401216923D+00  0.8137573261D+00
 Atom H2       Shell     6 S   1     bf   17 -    17         -1.880449335018          1.889408904560          4.127514327043
      0.1612777588D+00  0.1000000000D+01
 Atom C3       Shell     7 S   6     bf   18 -    18          0.603475442283          5.096686244644          3.713656952907
      0.3047524880D+04  0.1834737132D-02
      0.4573695180D+03  0.1403732281D-01
      0.1039486850D+03  0.6884262226D-01
      0.2921015530D+02  0.2321844432D+00
      0.9286662960D+01  0.4679413484D+00
      0.3163926960D+01  0.3623119853D+00
 Atom C3       Shell     8 SP   3    bf   19 -    22          0.603475442283          5.096686244644          3.713656952907
      0.7868272350D+01 -0.1193324198D+00  0.6899906659D-01
      0.1881288540D+01 -0.1608541517D+00  0.3164239610D+00
      0.5442492580D+00  0.1143456438D+01  0.7443082909D+00
 Atom C3       Shell     9 SP   1    bf   23 -    26          0.603475442283          5.096686244644          3.713656952907
      0.1687144782D+00  0.1000000000D+01  0.1000000000D+01
 Atom C3       Shell    10 D   1     bf   27 -    32          0.603475442283          5.096686244644          3.713656952907
      0.8000000000D+00  0.1000000000D+01
 Atom H4       Shell    11 S   3     bf   33 -    33          0.899042631234          5.271686336290          5.752742919733
      0.1873113696D+02  0.3349460434D-01
      0.2825394365D+01  0.2347269535D+00
      0.6401216923D+00  0.8137573261D+00
 Atom H4       Shell    12 S   1     bf   34 -    34          0.899042631234          5.271686336290          5.752742919733
      0.1612777588D+00  0.1000000000D+01
 Atom H5       Shell    13 S   3     bf   35 -    35          0.439131875349          7.034175715765          2.966395990830
      0.1873113696D+02  0.3349460434D-01
      0.2825394365D+01  0.2347269535D+00
      0.6401216923D+00  0.8137573261D+00
 Atom H5       Shell    14 S   1     bf   36 -    36          0.439131875349          7.034175715765          2.966395990830
      0.1612777588D+00  0.1000000000D+01
 Atom C6       Shell    15 S   6     bf   37 -    37          2.845224086676          3.786808516072          2.497210629160
      0.3047524880D+04  0.1834737132D-02
      0.4573695180D+03  0.1403732281D-01
      0.1039486850D+03  0.6884262226D-01
      0.2921015530D+02  0.2321844432D+00
      0.9286662960D+01  0.4679413484D+00
      0.3163926960D+01  0.3623119853D+00
 Atom C6       Shell    16 SP   3    bf   38 -    41          2.845224086676          3.786808516072          2.497210629160
      0.7868272350D+01 -0.1193324198D+00  0.6899906659D-01
      0.1881288540D+01 -0.1608541517D+00  0.3164239610D+00
      0.5442492580D+00  0.1143456438D+01  0.7443082909D+00
 Atom C6       Shell    17 SP   1    bf   42 -    45          2.845224086676          3.786808516072          2.497210629160
      0.1687144782D+00  0.1000000000D+01  0.1000000000D+01
 Atom C6       Shell    18 D   1     bf   46 -    51          2.845224086676          3.786808516072          2.497210629160
      0.8000000000D+00  0.1000000000D+01
 Atom C7       Shell    19 S   6     bf   52 -    52          2.630666452377          3.134197189670         -0.315172889710
      0.3047524880D+04  0.1834737132D-02
      0.4573695180D+03  0.1403732281D-01
      0.1039486850D+03  0.6884262226D-01
      0.2921015530D+02  0.2321844432D+00
      0.9286662960D+01  0.4679413484D+00
      0.3163926960D+01  0.3623119853D+00
 Atom C7       Shell    20 SP   3    bf   53 -    56          2.630666452377          3.134197189670         -0.315172889710
      0.7868272350D+01 -0.1193324198D+00  0.6899906659D-01
      0.1881288540D+01 -0.1608541517D+00  0.3164239610D+00
      0.5442492580D+00  0.1143456438D+01  0.7443082909D+00
 Atom C7       Shell    21 SP   1    bf   57 -    60          2.630666452377          3.134197189670         -0.315172889710
      0.1687144782D+00  0.1000000000D+01  0.1000000000D+01
 Atom C7       Shell    22 D   1     bf   61 -    66          2.630666452377          3.134197189670         -0.315172889710
      0.8000000000D+00  0.1000000000D+01
 Atom C8       Shell    23 S   6     bf   67 -    67         -0.012690115695          1.918268386321         -0.795553971649
      0.3047524880D+04  0.1834737132D-02
      0.4573695180D+03  0.1403732281D-01
      0.1039486850D+03  0.6884262226D-01
      0.2921015530D+02  0.2321844432D+00
      0.9286662960D+01  0.4679413484D+00
      0.3163926960D+01  0.3623119853D+00
 Atom C8       Shell    24 SP   3    bf   68 -    71         -0.012690115695          1.918268386321         -0.795553971649
      0.7868272350D+01 -0.1193324198D+00  0.6899906659D-01
      0.1881288540D+01 -0.1608541517D+00  0.3164239610D+00
      0.5442492580D+00  0.1143456438D+01  0.7443082909D+00
 Atom C8       Shell    25 SP   1    bf   72 -    75         -0.012690115695          1.918268386321         -0.795553971649
      0.1687144782D+00  0.1000000000D+01  0.1000000000D+01
 Atom C8       Shell    26 D   1     bf   76 -    81         -0.012690115695          1.918268386321         -0.795553971649
      0.8000000000D+00  0.1000000000D+01
 Atom H9       Shell    27 S   3     bf   82 -    82          0.000000000000          0.000000000000          0.000000000000
      0.1873113696D+02  0.3349460434D-01
      0.2825394365D+01  0.2347269535D+00
      0.6401216923D+00  0.8137573261D+00
 Atom H9       Shell    28 S   1     bf   83 -    83          0.000000000000          0.000000000000          0.000000000000
      0.1612777588D+00  0.1000000000D+01
 Atom H10      Shell    29 S   3     bf   84 -    84         -0.317065847275          1.707087050115         -2.831596269976
      0.1873113696D+02  0.3349460434D-01
      0.2825394365D+01  0.2347269535D+00
      0.6401216923D+00  0.8137573261D+00
 Atom H10      Shell    30 S   1     bf   85 -    85         -0.317065847275          1.707087050115         -2.831596269976
      0.1612777588D+00  0.1000000000D+01
 Atom C11      Shell    31 S   6     bf   86 -    86         -2.254407787476          3.363402053430          0.352143208315
      0.3047524880D+04  0.1834737132D-02
      0.4573695180D+03  0.1403732281D-01
      0.1039486850D+03  0.6884262226D-01
      0.2921015530D+02  0.2321844432D+00
      0.9286662960D+01  0.4679413484D+00
      0.3163926960D+01  0.3623119853D+00
 Atom C11      Shell    32 SP   3    bf   87 -    90         -2.254407787476          3.363402053430          0.352143208315
      0.7868272350D+01 -0.1193324198D+00  0.6899906659D-01
      0.1881288540D+01 -0.1608541517D+00  0.3164239610D+00
      0.5442492580D+00  0.1143456438D+01  0.7443082909D+00
 Atom C11      Shell    33 SP   1    bf   91 -    94         -2.254407787476          3.363402053430          0.352143208315
      0.1687144782D+00  0.1000000000D+01  0.1000000000D+01
 Atom C11      Shell    34 D   1     bf   95 -   100         -2.254407787476          3.363402053430          0.352143208315
      0.8000000000D+00  0.1000000000D+01
 Atom H12      Shell    35 S   3     bf  101 -   101         -2.463393299710          5.221650659072         -0.556126842243
      0.1873113696D+02  0.3349460434D-01
      0.2825394365D+01  0.2347269535D+00
      0.6401216923D+00  0.8137573261D+00
 Atom H12      Shell    36 S   1     bf  102 -   102         -2.463393299710          5.221650659072         -0.556126842243
      0.1612777588D+00  0.1000000000D+01
 Atom H13      Shell    37 S   3     bf  103 -   103         -4.014952922219          2.331078058495          0.000000000000
      0.1873113696D+02  0.3349460434D-01
      0.2825394365D+01  0.2347269535D+00
      0.6401216923D+00  0.8137573261D+00
 Atom H13      Shell    38 S   1     bf  104 -   104         -4.014952922219          2.331078058495          0.000000000000
      0.1612777588D+00  0.1000000000D+01
 Atom C14      Shell    39 S   6     bf  105 -   105          4.912137045596          3.274820555136          3.865858027882
      0.3047524880D+04  0.1834737132D-02
      0.4573695180D+03  0.1403732281D-01
      0.1039486850D+03  0.6884262226D-01
      0.2921015530D+02  0.2321844432D+00
      0.9286662960D+01  0.4679413484D+00
      0.3163926960D+01  0.3623119853D+00
 Atom C14      Shell    40 SP   3    bf  106 -   109          4.912137045596          3.274820555136          3.865858027882
      0.7868272350D+01 -0.1193324198D+00  0.6899906659D-01
      0.1881288540D+01 -0.1608541517D+00  0.3164239610D+00
      0.5442492580D+00  0.1143456438D+01  0.7443082909D+00
 Atom C14      Shell    41 SP   1    bf  110 -   113          4.912137045596          3.274820555136          3.865858027882
      0.1687144782D+00  0.1000000000D+01  0.1000000000D+01
 Atom C14      Shell    42 D   1     bf  114 -   119          4.912137045596          3.274820555136          3.865858027882
      0.8000000000D+00  0.1000000000D+01
 Atom H15      Shell    43 S   3     bf  120 -   120          4.959966996677          3.762270271059          5.862119588003
      0.1873113696D+02  0.3349460434D-01
      0.2825394365D+01  0.2347269535D+00
      0.6401216923D+00  0.8137573261D+00
 Atom H15      Shell    44 S   1     bf  121 -   121          4.959966996677          3.762270271059          5.862119588003
      0.1612777588D+00  0.1000000000D+01
 Atom C16      Shell    45 S   6     bf  122 -   122          7.299930585244          2.118729419559          2.865798990173
      0.3047524880D+04  0.1834737132D-02
      0.4573695180D+03  0.1403732281D-01
      0.1039486850D+03  0.6884262226D-01
      0.2921015530D+02  0.2321844432D+00
      0.9286662960D+01  0.4679413484D+00
      0.3163926960D+01  0.3623119853D+00
 Atom C16      Shell    46 SP   3    bf  123 -   126          7.299930585244          2.118729419559          2.865798990173
      0.7868272350D+01 -0.1193324198D+00  0.6899906659D-01
      0.1881288540D+01 -0.1608541517D+00  0.3164239610D+00
      0.5442492580D+00  0.1143456438D+01  0.7443082909D+00
 Atom C16      Shell    47 SP   1    bf  127 -   130          7.299930585244          2.118729419559          2.865798990173
      0.1687144782D+00  0.1000000000D+01  0.1000000000D+01
 Atom C16      Shell    48 D   1     bf  131 -   136          7.299930585244          2.118729419559          2.865798990173
      0.8000000000D+00  0.1000000000D+01
 Atom H17      Shell    49 S   3     bf  137 -   137          7.629638190121          0.269693436685          3.761409481908
      0.1873113696D+02  0.3349460434D-01
      0.2825394365D+01  0.2347269535D+00
      0.6401216923D+00  0.8137573261D+00
 Atom H17      Shell    50 S   1     bf  138 -   138          7.629638190121          0.269693436685          3.761409481908
      0.1612777588D+00  0.1000000000D+01
 Atom C18      Shell    51 S   6     bf  139 -   139          7.389299740287          1.857356730497         -0.026690227339
      0.3047524880D+04  0.1834737132D-02
      0.4573695180D+03  0.1403732281D-01
      0.1039486850D+03  0.6884262226D-01
      0.2921015530D+02  0.2321844432D+00
      0.9286662960D+01  0.4679413484D+00
      0.3163926960D+01  0.3623119853D+00
 Atom C18      Shell    52 SP   3    bf  140 -   143          7.389299740287          1.857356730497         -0.026690227339
      0.7868272350D+01 -0.1193324198D+00  0.6899906659D-01
      0.1881288540D+01 -0.1608541517D+00  0.3164239610D+00
      0.5442492580D+00  0.1143456438D+01  0.7443082909D+00
 Atom C18      Shell    53 SP   1    bf  144 -   147          7.389299740287          1.857356730497         -0.026690227339
      0.1687144782D+00  0.1000000000D+01  0.1000000000D+01
 Atom C18      Shell    54 D   1     bf  148 -   153          7.389299740287          1.857356730497         -0.026690227339
      0.8000000000D+00  0.1000000000D+01
 Atom H19      Shell    55 S   3     bf  154 -   154          7.960066933388          3.705959229093         -0.774704112999
      0.1873113696D+02  0.3349460434D-01
      0.2825394365D+01  0.2347269535D+00
      0.6401216923D+00  0.8137573261D+00
 Atom H19      Shell    56 S   1     bf  155 -   155          7.960066933388          3.705959229093         -0.774704112999
      0.1612777588D+00  0.1000000000D+01
 Atom C20      Shell    57 S   6     bf  156 -   156          4.720431415888          1.168056295635         -1.049081916206
      0.3047524880D+04  0.1834737132D-02
      0.4573695180D+03  0.1403732281D-01
      0.1039486850D+03  0.6884262226D-01
      0.2921015530D+02  0.2321844432D+00
      0.9286662960D+01  0.4679413484D+00
      0.3163926960D+01  0.3623119853D+00
 Atom C20      Shell    58 SP   3    bf  157 -   160          4.720431415888          1.168056295635         -1.049081916206
      0.7868272350D+01 -0.1193324198D+00  0.6899906659D-01
      0.1881288540D+01 -0.1608541517D+00  0.3164239610D+00
      0.5442492580D+00  0.1143456438D+01  0.7443082909D+00
 Atom C20      Shell    59 SP   1    bf  161 -   164          4.720431415888          1.168056295635         -1.049081916206
      0.1687144782D+00  0.1000000000D+01  0.1000000000D+01
 Atom C20      Shell    60 D   1     bf  165 -   170          4.720431415888          1.168056295635         -1.049081916206
      0.8000000000D+00  0.1000000000D+01
 Atom H21      Shell    61 S   3     bf  171 -   171          4.186362931054         -0.599295198002         -0.084561049255
      0.1873113696D+02  0.3349460434D-01
      0.2825394365D+01  0.2347269535D+00
      0.6401216923D+00  0.8137573261D+00
 Atom H21      Shell    62 S   1     bf  172 -   172          4.186362931054         -0.599295198002         -0.084561049255
      0.1612777588D+00  0.1000000000D+01
 Atom C22      Shell    63 S   6     bf  173 -   173          4.795276853970          0.574354403527         -3.910378766148
      0.3047524880D+04  0.1834737132D-02
      0.4573695180D+03  0.1403732281D-01
      0.1039486850D+03  0.6884262226D-01
      0.2921015530D+02  0.2321844432D+00
      0.9286662960D+01  0.4679413484D+00
      0.3163926960D+01  0.3623119853D+00
 Atom C22      Shell    64 SP   3    bf  174 -   177          4.795276853970          0.574354403527         -3.910378766148
      0.7868272350D+01 -0.1193324198D+00  0.6899906659D-01
      0.1881288540D+01 -0.1608541517D+00  0.3164239610D+00
      0.5442492580D+00  0.1143456438D+01  0.7443082909D+00
 Atom C22      Shell    65 SP   1    bf  178 -   181          4.795276853970          0.574354403527         -3.910378766148
      0.1687144782D+00  0.1000000000D+01  0.1000000000D+01
 Atom C22      Shell    66 D   1     bf  182 -   187          4.795276853970          0.574354403527         -3.910378766148
      0.8000000000D+00  0.1000000000D+01
 Atom H23      Shell    67 S   3     bf  188 -   188          5.131621158129          2.314678599374         -4.978784908405
      0.1873113696D+02  0.3349460434D-01
      0.2825394365D+01  0.2347269535D+00
      0.6401216923D+00  0.8137573261D+00
 Atom H23      Shell    68 S   1     bf  189 -   189          5.131621158129          2.314678599374         -4.978784908405
      0.1612777588D+00  0.1000000000D+01
 Atom H24      Shell    69 S   3     bf  190 -   190          2.942544944725         -0.120130457185         -4.517922996665
      0.1873113696D+02  0.3349460434D-01
      0.2825394365D+01  0.2347269535D+00
      0.6401216923D+00  0.8137573261D+00
 Atom H24      Shell    70 S   1     bf  191 -   191          2.942544944725         -0.120130457185         -4.517922996665
      0.1612777588D+00  0.1000000000D+01
 Atom C25      Shell    71 S   6     bf  192 -   192          6.806249176144         -1.393293830557         -4.659744618575
      0.3047524880D+04  0.1834737132D-02
      0.4573695180D+03  0.1403732281D-01
      0.1039486850D+03  0.6884262226D-01
      0.2921015530D+02  0.2321844432D+00
      0.9286662960D+01  0.4679413484D+00
      0.3163926960D+01  0.3623119853D+00
 Atom C25      Shell    72 SP   3    bf  193 -   196          6.806249176144         -1.393293830557         -4.659744618575
      0.7868272350D+01 -0.1193324198D+00  0.6899906659D-01
      0.1881288540D+01 -0.1608541517D+00  0.3164239610D+00
      0.5442492580D+00  0.1143456438D+01  0.7443082909D+00
 Atom C25      Shell    73 SP   1    bf  197 -   200          6.806249176144         -1.393293830557         -4.659744618575
      0.1687144782D+00  0.1000000000D+01  0.1000000000D+01
 Atom C25      Shell    74 D   1     bf  201 -   206          6.806249176144         -1.393293830557         -4.659744618575
      0.8000000000D+00  0.1000000000D+01
 Atom H26      Shell    75 S   3     bf  207 -   207          6.314783225271         -3.226810229696         -3.817257786635
      0.1873113696D+02  0.3349460434D-01
      0.2825394365D+01  0.2347269535D+00
      0.6401216923D+00  0.8137573261D+00
 Atom H26      Shell    76 S   1     bf  208 -   208          6.314783225271         -3.226810229696         -3.817257786635
      0.1612777588D+00  0.1000000000D+01
 Atom H27      Shell    77 S   3     bf  209 -   209          6.753390437057         -1.651887545061         -6.714644626264
      0.1873113696D+02  0.3349460434D-01
      0.2825394365D+01  0.2347269535D+00
      0.6401216923D+00  0.8137573261D+00
 Atom H27      Shell    78 S   1     bf  210 -   210          6.753390437057         -1.651887545061         -6.714644626264
      0.1612777588D+00  0.1000000000D+01
 Atom C28      Shell    79 S   6     bf  211 -   211          9.463284848082         -0.619367037506         -3.759984080383
      0.3047524880D+04  0.1834737132D-02
      0.4573695180D+03  0.1403732281D-01
      0.1039486850D+03  0.6884262226D-01
      0.2921015530D+02  0.2321844432D+00
      0.9286662960D+01  0.4679413484D+00
      0.3163926960D+01  0.3623119853D+00
 Atom C28      Shell    80 SP   3    bf  212 -   215          9.463284848082         -0.619367037506         -3.759984080383
      0.7868272350D+01 -0.1193324198D+00  0.6899906659D-01
      0.1881288540D+01 -0.1608541517D+00  0.3164239610D+00
      0.5442492580D+00  0.1143456438D+01  0.7443082909D+00
 Atom C28      Shell    81 SP   1    bf  216 -   219          9.463284848082         -0.619367037506         -3.759984080383
      0.1687144782D+00  0.1000000000D+01  0.1000000000D+01
 Atom C28      Shell    82 D   1     bf  220 -   225          9.463284848082         -0.619367037506         -3.759984080383
      0.8000000000D+00  0.1000000000D+01
 Atom C29      Shell    83 S   6     bf  226 -   226          9.293589652328         -0.181980532111         -0.852741752054
      0.3047524880D+04  0.1834737132D-02
      0.4573695180D+03  0.1403732281D-01
      0.1039486850D+03  0.6884262226D-01
      0.2921015530D+02  0.2321844432D+00
      0.9286662960D+01  0.4679413484D+00
      0.3163926960D+01  0.3623119853D+00
 Atom C29      Shell    84 SP   3    bf  227 -   230          9.293589652328         -0.181980532111         -0.852741752054
      0.7868272350D+01 -0.1193324198D+00  0.6899906659D-01
      0.1881288540D+01 -0.1608541517D+00  0.3164239610D+00
      0.5442492580D+00  0.1143456438D+01  0.7443082909D+00
 Atom C29      Shell    85 SP   1    bf  231 -   234          9.293589652328         -0.181980532111         -0.852741752054
      0.1687144782D+00  0.1000000000D+01  0.1000000000D+01
 Atom C29      Shell    86 D   1     bf  235 -   240          9.293589652328         -0.181980532111         -0.852741752054
      0.8000000000D+00  0.1000000000D+01
 Atom H30      Shell    87 S   3     bf  241 -   241          8.553506588200         -1.969682051835         -0.076946114343
      0.1873113696D+02  0.3349460434D-01
      0.2825394365D+01  0.2347269535D+00
      0.6401216923D+00  0.8137573261D+00
 Atom H30      Shell    88 S   1     bf  242 -   242          8.553506588200         -1.969682051835         -0.076946114343
      0.1612777588D+00  0.1000000000D+01
 Atom C31      Shell    89 S   6     bf  243 -   243         12.071593024614          0.000000000000          0.000000000000
      0.3047524880D+04  0.1834737132D-02
      0.4573695180D+03  0.1403732281D-01
      0.1039486850D+03  0.6884262226D-01
      0.2921015530D+02  0.2321844432D+00
      0.9286662960D+01  0.4679413484D+00
      0.3163926960D+01  0.3623119853D+00
 Atom C31      Shell    90 SP   3    bf  244 -   247         12.071593024614          0.000000000000          0.000000000000
      0.7868272350D+01 -0.1193324198D+00  0.6899906659D-01
      0.1881288540D+01 -0.1608541517D+00  0.3164239610D+00
      0.5442492580D+00  0.1143456438D+01  0.7443082909D+00
 Atom C31      Shell    91 SP   1    bf  248 -   251         12.071593024614          0.000000000000          0.000000000000
      0.1687144782D+00  0.1000000000D+01  0.1000000000D+01
 Atom C31      Shell    92 D   1     bf  252 -   257         12.071593024614          0.000000000000          0.000000000000
      0.8000000000D+00  0.1000000000D+01
 Atom H32      Shell    93 S   3     bf  258 -   258         12.309108620448         -0.505808858838          1.991296059042
      0.1873113696D+02  0.3349460434D-01
      0.2825394365D+01  0.2347269535D+00
      0.6401216923D+00  0.8137573261D+00
 Atom H32      Shell    94 S   1     bf  259 -   259         12.309108620448         -0.505808858838          1.991296059042
      0.1612777588D+00  0.1000000000D+01
 Atom H33      Shell    95 S   3     bf  260 -   260         12.773876237057          1.935023435209         -0.202766385737
      0.1873113696D+02  0.3349460434D-01
      0.2825394365D+01  0.2347269535D+00
      0.6401216923D+00  0.8137573261D+00
 Atom H33      Shell    96 S   1     bf  261 -   261         12.773876237057          1.935023435209         -0.202766385737
      0.1612777588D+00  0.1000000000D+01
 Atom C34      Shell    97 S   6     bf  262 -   262         13.485541618496         -1.847950580876         -1.794307567648
      0.3047524880D+04  0.1834737132D-02
      0.4573695180D+03  0.1403732281D-01
      0.1039486850D+03  0.6884262226D-01
      0.2921015530D+02  0.2321844432D+00
      0.9286662960D+01  0.4679413484D+00
      0.3163926960D+01  0.3623119853D+00
 Atom C34      Shell    98 SP   3    bf  263 -   266         13.485541618496         -1.847950580876         -1.794307567648
      0.7868272350D+01 -0.1193324198D+00  0.6899906659D-01
      0.1881288540D+01 -0.1608541517D+00  0.3164239610D+00
      0.5442492580D+00  0.1143456438D+01  0.7443082909D+00
 Atom C34      Shell    99 SP   1    bf  267 -   270         13.485541618496         -1.847950580876         -1.794307567648
      0.1687144782D+00  0.1000000000D+01  0.1000000000D+01
 Atom C34      Shell   100 D   1     bf  271 -   276         13.485541618496         -1.847950580876         -1.794307567648
      0.8000000000D+00  0.1000000000D+01
 Atom H35      Shell   101 S   3     bf  277 -   277         15.088957348098         -0.902639687134         -2.697010522813
      0.1873113696D+02  0.3349460434D-01
      0.2825394365D+01  0.2347269535D+00
      0.6401216923D+00  0.8137573261D+00
 Atom H35      Shell   102 S   1     bf  278 -   278         15.088957348098         -0.902639687134         -2.697010522813
      0.1612777588D+00  0.1000000000D+01
 Atom H36      Shell   103 S   3     bf  279 -   279         14.271051166626         -3.469684559719         -0.774464476828
      0.1873113696D+02  0.3349460434D-01
      0.2825394365D+01  0.2347269535D+00
      0.6401216923D+00  0.8137573261D+00
 Atom H36      Shell   104 S   1     bf  280 -   280         14.271051166626         -3.469684559719         -0.774464476828
      0.1612777588D+00  0.1000000000D+01
 Atom C37      Shell   105 S   6     bf  281 -   281         11.516038996157         -2.757208618050         -3.793075093593
      0.3047524880D+04  0.1834737132D-02
      0.4573695180D+03  0.1403732281D-01
      0.1039486850D+03  0.6884262226D-01
      0.2921015530D+02  0.2321844432D+00
      0.9286662960D+01  0.4679413484D+00
      0.3163926960D+01  0.3623119853D+00
 Atom C37      Shell   106 SP   3    bf  282 -   285         11.516038996157         -2.757208618050         -3.793075093593
      0.7868272350D+01 -0.1193324198D+00  0.6899906659D-01
      0.1881288540D+01 -0.1608541517D+00  0.3164239610D+00
      0.5442492580D+00  0.1143456438D+01  0.7443082909D+00
 Atom C37      Shell   107 SP   1    bf  286 -   289         11.516038996157         -2.757208618050         -3.793075093593
      0.1687144782D+00  0.1000000000D+01  0.1000000000D+01
 Atom C37      Shell   108 D   1     bf  290 -   295         11.516038996157         -2.757208618050         -3.793075093593
      0.8000000000D+00  0.1000000000D+01
 Atom H38      Shell   109 S   3     bf  296 -   296         10.559497365521         -4.393930090443         -2.944739445888
      0.1873113696D+02  0.3349460434D-01
      0.2825394365D+01  0.2347269535D+00
      0.6401216923D+00  0.8137573261D+00
 Atom H38      Shell   110 S   1     bf  297 -   297         10.559497365521         -4.393930090443         -2.944739445888
      0.1612777588D+00  0.1000000000D+01
 Atom C39      Shell   111 S   6     bf  298 -   298         10.340394429647          1.786758281823         -5.167843749897
      0.3047524880D+04  0.1834737132D-02
      0.4573695180D+03  0.1403732281D-01
      0.1039486850D+03  0.6884262226D-01
[...]
 **** Fit       0.005062
 **** Fit       0.005187
 **** Fit       0.005114
 **** Fit       0.004865
 **** Fit       0.004422
 **** Fit       0.003795
 **** Fit       0.003070
 **** Fit       0.002382
 **** Fit       0.001854
 **** Fit       0.001548
 **** Fit       0.001466
 **** Fit      -0.000541
 **** Fit      -0.000575
 **** Fit      -0.000438
 **** Fit      -0.000047
 **** Fit       0.000648
 **** Fit       0.001613
 **** Fit       0.002693
 **** Fit       0.003667
 **** Fit       0.004370
 **** Fit       0.004764
 **** Fit       0.004899
 **** Fit       0.004835
 **** Fit       0.004598
 **** Fit       0.004193
 **** Fit       0.003642
 **** Fit       0.003015
 **** Fit       0.002414
 **** Fit       0.001933
 **** Fit       0.001628
 **** Fit       0.001514
 **** Fit      -0.000282
 **** Fit      -0.000105
 **** Fit       0.000270
 **** Fit       0.000867
 **** Fit       0.001650
 **** Fit       0.002510
 **** Fit       0.003299
 **** Fit       0.003899
 **** Fit       0.004266
 **** Fit       0.004413
 **** Fit       0.004373
 **** Fit       0.004169
 **** Fit       0.003820
 **** Fit       0.003355
 **** Fit       0.002831
 **** Fit       0.002324
 **** Fit       0.001904
 **** Fit       0.001619
 **** Fit       0.000147
 **** Fit       0.000480
 **** Fit       0.000971
 **** Fit       0.001588
 **** Fit       0.002257
 **** Fit       0.002882
 **** Fit       0.003378
 **** Fit       0.003703
 **** Fit       0.003850
 **** Fit       0.003833
 **** Fit       0.003669
 **** Fit       0.003380
 **** Fit       0.002996
 **** Fit       0.002566
 **** Fit       0.002144
 **** Fit       0.001784
 **** Fit       0.000606
 **** Fit       0.000998
 **** Fit       0.001477
 **** Fit       0.001991
 **** Fit       0.002477
 **** Fit       0.002876
 **** Fit       0.003150
 **** Fit       0.003285
 **** Fit       0.003152
 **** Fit       0.002916
 **** Fit       0.002603
 **** Fit       0.002250
 **** Fit       0.001342
 **** Fit       0.001733
 **** Fit       0.002106
 **** Fit       0.002418
 **** Fit       0.002417
 **** Fit       0.002365
 **** Fit       0.002253
 **** Fit       0.002102
 **** Fit       0.001951
 **** Fit       0.001834
 **** Fit       0.001837
 **** Fit       0.001920
 **** Fit       0.002383
 **** Fit       0.002471
 **** Fit       0.002491
 **** Fit       0.002422
 **** Fit       0.002266
 **** Fit       0.002055
 **** Fit       0.001840
 **** Fit       0.001676
 **** Fit       0.001593
 **** Fit       0.001594
 **** Fit       0.001657
 **** Fit       0.001751
 **** Fit       0.001849
 **** Fit       0.002242
 **** Fit       0.002396
 **** Fit       0.002504
 **** Fit       0.002528
 **** Fit       0.002436
 **** Fit       0.002224
 **** Fit       0.001932
 **** Fit       0.001638
 **** Fit       0.001418
 **** Fit       0.001314
 **** Fit       0.001323
 **** Fit       0.001410
 **** Fit       0.001529
 **** Fit       0.001643
 **** Fit       0.002178
 **** Fit       0.002346
 **** Fit       0.002467
 **** Fit       0.002489
 **** Fit       0.002365
 **** Fit       0.002085
 **** Fit       0.001702
 **** Fit       0.001322
 **** Fit       0.001053
 **** Fit       0.000946
 **** Fit       0.000989
 **** Fit       0.001125
 **** Fit       0.001291
 **** Fit       0.001437
 **** Fit       0.001738
 **** Fit       0.001858
 **** Fit       0.002027
 **** Fit       0.002230
 **** Fit       0.002447
 **** Fit       0.001868
 **** Fit       0.002038
 **** Fit       0.002201
 **** Fit       0.002316
 **** Fit       0.002320
 **** Fit       0.002154
 **** Fit       0.001802
 **** Fit       0.001332
 **** Fit       0.000884
 **** Fit       0.000593
 **** Fit       0.000520
 **** Fit       0.000634
 **** Fit       0.000854
 **** Fit       0.001092
 **** Fit       0.001455
 **** Fit       0.001449
 **** Fit       0.001479
 **** Fit       0.001571
 **** Fit       0.001730
 **** Fit       0.001944
 **** Fit       0.002190
 **** Fit       0.001675
 **** Fit       0.001813
 **** Fit       0.001943
 **** Fit       0.002019
 **** Fit       0.001978
 **** Fit       0.001758
 **** Fit       0.001343
 **** Fit       0.000817
 **** Fit       0.000348
 **** Fit       0.000091
 **** Fit       0.000104
 **** Fit       0.000333
 **** Fit       0.000669
 **** Fit       0.001002
 **** Fit       0.001257
 **** Fit       0.001400
 **** Fit       0.001434
 **** Fit       0.001392
 **** Fit       0.001327
 **** Fit       0.001293
 **** Fit       0.001332
 **** Fit       0.001461
 **** Fit       0.001669
 **** Fit       0.001931
 **** Fit       0.001428
 **** Fit       0.001512
 **** Fit       0.001577
 **** Fit       0.001583
 **** Fit       0.001472
 **** Fit       0.001190
 **** Fit       0.000737
 **** Fit       0.000215
 **** Fit      -0.000201
 **** Fit      -0.000351
 **** Fit      -0.000196
 **** Fit       0.000185
 **** Fit       0.000656
 **** Fit       0.001089
 **** Fit       0.001404
 **** Fit       0.001567
 **** Fit       0.001585
 **** Fit       0.001493
 **** Fit       0.001354
 **** Fit       0.001237
 **** Fit       0.001200
 **** Fit       0.001272
 **** Fit       0.001449
 **** Fit       0.001707
 **** Fit       0.001153
 **** Fit       0.001167
 **** Fit       0.001151
 **** Fit       0.001070
 **** Fit       0.000879
 **** Fit       0.000549
 **** Fit       0.000103
 **** Fit      -0.000345
 **** Fit      -0.000625
 **** Fit      -0.000601
 **** Fit      -0.000261
 **** Fit       0.000287
 **** Fit       0.000884
 **** Fit       0.001399
 **** Fit       0.001756
 **** Fit       0.001927
 **** Fit       0.001921
 **** Fit       0.001777
 **** Fit       0.001558
 **** Fit       0.001343
 **** Fit       0.001209
 **** Fit       0.001201
 **** Fit       0.001323
 **** Fit       0.001552
 **** Fit       0.000826
 **** Fit       0.000732
 **** Fit       0.000573
 **** Fit       0.000325
 **** Fit      -0.000016
 **** Fit      -0.000401
 **** Fit      -0.000711
 **** Fit      -0.000797
 **** Fit      -0.000559
 **** Fit      -0.000022
 **** Fit       0.000676
 **** Fit       0.001364
 **** Fit       0.001918
 **** Fit       0.002280
 **** Fit       0.002438
 **** Fit       0.002403
 **** Fit       0.002207
 **** Fit       0.001911
 **** Fit       0.001598
 **** Fit       0.001359
 **** Fit       0.001255
 **** Fit       0.001302
 **** Fit       0.001481
 **** Fit       0.000533
 **** Fit       0.000383
 **** Fit       0.000179
 **** Fit      -0.000085
 **** Fit      -0.000388
 **** Fit      -0.000665
 **** Fit      -0.000802
 **** Fit      -0.000677
 **** Fit      -0.000231
 **** Fit       0.000475
 **** Fit       0.001278
 **** Fit       0.002004
 **** Fit       0.002548
 **** Fit       0.002879
 **** Fit       0.003002
 **** Fit       0.002931
 **** Fit       0.002690
 **** Fit       0.002331
 **** Fit       0.001935
 **** Fit       0.001602
 **** Fit       0.001404
 **** Fit       0.001369
 **** Fit       0.001484
 **** Fit       0.000143
 **** Fit      -0.000069
 **** Fit      -0.000306
 **** Fit      -0.000534
 **** Fit      -0.000682
 **** Fit      -0.000649
 **** Fit      -0.000342
 **** Fit       0.000262
 **** Fit       0.001074
 **** Fit       0.001919
 **** Fit       0.002634
 **** Fit       0.003134
 **** Fit       0.003412
 **** Fit       0.003489
 **** Fit       0.003382
 **** Fit       0.003109
 **** Fit       0.002710
 **** Fit       0.002262
 **** Fit       0.001864
 **** Fit       0.001592
 **** Fit       0.001483
 **** Fit       0.001533
 **** Fit      -0.000175
 **** Fit      -0.000360
 **** Fit      -0.000499
 **** Fit      -0.000525
 **** Fit      -0.000356
 **** Fit       0.000071
 **** Fit       0.000754
 **** Fit       0.001591
 **** Fit       0.002417
 **** Fit       0.003085
 **** Fit       0.003531
 **** Fit       0.003758
 **** Fit       0.003795
 **** Fit       0.003661
 **** Fit       0.003372
 **** Fit       0.002962
 **** Fit       0.002500
 **** Fit       0.002074
 **** Fit       0.001760
 **** Fit       0.001598
 **** Fit       0.001593
 **** Fit      -0.000354
 **** Fit      -0.000286
 **** Fit      -0.000033
 **** Fit       0.000445
 **** Fit       0.001127
 **** Fit       0.001918
 **** Fit       0.002676
 **** Fit       0.003279
 **** Fit       0.003673
 **** Fit       0.003864
 **** Fit       0.003876
 **** Fit       0.003731
 **** Fit       0.003445
 **** Fit       0.003051
 **** Fit       0.002608
 **** Fit       0.002191
 **** Fit       0.001867
 **** Fit       0.001677
 **** Fit      -0.000167
 **** Fit      -0.000040
 **** Fit       0.000249
 **** Fit       0.000719
 **** Fit       0.001345
 **** Fit       0.002044
 **** Fit       0.002706
 **** Fit       0.003235
 **** Fit       0.003584
 **** Fit       0.003751
 **** Fit       0.003754
 **** Fit       0.003614
 **** Fit       0.003349
 **** Fit       0.002991
 **** Fit       0.002589
 **** Fit       0.002205
 **** Fit       0.001895
 **** Fit       0.001698
 **** Fit       0.000172
 **** Fit       0.000460
 **** Fit       0.000887
 **** Fit       0.001428
 **** Fit       0.002019
 **** Fit       0.002576
 **** Fit       0.003027
 **** Fit       0.003332
 **** Fit       0.003482
 **** Fit       0.003486
 **** Fit       0.003362
 **** Fit       0.003129
 **** Fit       0.002816
 **** Fit       0.002465
 **** Fit       0.002125
 **** Fit       0.000600
 **** Fit       0.000968
 **** Fit       0.001417
 **** Fit       0.001900
 **** Fit       0.002356
 **** Fit       0.002732
 **** Fit       0.002992
 **** Fit       0.003125
 **** Fit       0.002830
 **** Fit       0.002563
 **** Fit       0.001348
 **** Fit       0.001733
 **** Fit       0.002099
 **** Fit       0.002404
 **** Fit       0.002127
 **** Fit       0.002071
 **** Fit       0.001966
 **** Fit       0.001830
 **** Fit       0.001696
 **** Fit       0.002102
 **** Fit       0.002096
 **** Fit       0.002020
 **** Fit       0.001879
 **** Fit       0.001702
 **** Fit       0.001529
 **** Fit       0.001402
 **** Fit       0.001974
 **** Fit       0.002021
 **** Fit       0.002002
 **** Fit       0.001899
 **** Fit       0.001720
 **** Fit       0.001498
 **** Fit       0.001289
 **** Fit       0.001145
 **** Fit       0.001094
 **** Fit       0.001833
 **** Fit       0.001865
 **** Fit       0.001824
 **** Fit       0.001690
 **** Fit       0.001472
 **** Fit       0.001213
 **** Fit       0.000981
 **** Fit       0.000840
 **** Fit       0.000819
 **** Fit       0.000903
 **** Fit       0.001573
 **** Fit       0.001623
 **** Fit       0.001625
 **** Fit       0.001552
 **** Fit       0.001385
 **** Fit       0.001137
 **** Fit       0.000860
 **** Fit       0.000633
 **** Fit       0.000525
 **** Fit       0.000562
 **** Fit       0.000718
 **** Fit       0.000939
 **** Fit       0.001343
 **** Fit       0.001354
 **** Fit       0.001316
 **** Fit       0.001204
 **** Fit       0.001009
 **** Fit       0.000749
 **** Fit       0.000484
 **** Fit       0.000299
 **** Fit       0.000259
 **** Fit       0.000382
 **** Fit       0.000630
 **** Fit       0.000933
 **** Fit       0.001221
 **** Fit       0.001444
 **** Fit       0.001622
 **** Fit       0.001599
 **** Fit       0.001543
 **** Fit       0.001494
 **** Fit       0.001054
 **** Fit       0.000973
 **** Fit       0.000827
 **** Fit       0.000617
 **** Fit       0.000372
 **** Fit       0.000156
 **** Fit       0.000049
 **** Fit       0.000109
 **** Fit       0.000338
 **** Fit       0.000684
 **** Fit       0.001066
 **** Fit       0.001408
 **** Fit       0.001660
 **** Fit       0.001799
 **** Fit       0.001828
 **** Fit       0.001770
 **** Fit       0.001664
 **** Fit       0.001558
 **** Fit       0.001494
 **** Fit       0.000764
 **** Fit       0.000647
 **** Fit       0.000482
 **** Fit       0.000280
 **** Fit       0.000079
 **** Fit      -0.000058
 **** Fit      -0.000059
 **** Fit       0.000117
 **** Fit       0.000456
 **** Fit       0.000892
 **** Fit       0.001336
 **** Fit       0.001713
 **** Fit       0.001977
 **** Fit       0.002109
 **** Fit       0.002117
 **** Fit       0.002024
 **** Fit       0.001869
 **** Fit       0.001704
 **** Fit       0.001578
 **** Fit       0.001528
 **** Fit       0.000519
 **** Fit       0.000384
 **** Fit       0.000222
 **** Fit       0.000052
 **** Fit      -0.000082
 **** Fit      -0.000122
 **** Fit      -0.000009
 **** Fit       0.000280
 **** Fit       0.000715
 **** Fit       0.001217
 **** Fit       0.001696
 **** Fit       0.002083
 **** Fit       0.002338
 **** Fit       0.002453
 **** Fit       0.002436
 **** Fit       0.002310
 **** Fit       0.002113
 **** Fit       0.001896
 **** Fit       0.001713
 **** Fit       0.001606
 **** Fit       0.000207
 **** Fit       0.000068
 **** Fit      -0.000052
 **** Fit      -0.000109
 **** Fit      -0.000051
 **** Fit       0.000164
 **** Fit       0.000543
 **** Fit       0.001041
 **** Fit       0.001577
 **** Fit       0.002062
 **** Fit       0.002435
 **** Fit       0.002669
 **** Fit       0.002759
 **** Fit       0.002718
 **** Fit       0.002566
 **** Fit       0.002338
 **** Fit       0.002085
 **** Fit       0.001859
 **** Fit       0.001706
 **** Fit      -0.000032
 **** Fit       0.000106
 **** Fit       0.000393
 **** Fit       0.000824
 **** Fit       0.001347
 **** Fit       0.001882
 **** Fit       0.002349
 **** Fit       0.002695
 **** Fit       0.002900
 **** Fit       0.002966
 **** Fit       0.002905
 **** Fit       0.002738
 **** Fit       0.002496
 **** Fit       0.002225
 **** Fit       0.001976
 **** Fit       0.001792
 **** Fit       0.000098
 **** Fit       0.000290
 **** Fit       0.000615
 **** Fit       0.001058
 **** Fit       0.001568
 **** Fit       0.002073
 **** Fit       0.002504
 **** Fit       0.002816
 **** Fit       0.002993
 **** Fit       0.003040
 **** Fit       0.002969
 **** Fit       0.002799
 **** Fit       0.002559
 **** Fit       0.002289
 **** Fit       0.002035
 **** Fit       0.000459
 **** Fit       0.000788
 **** Fit       0.001210
 **** Fit       0.001680
 **** Fit       0.002135
 **** Fit       0.002519
 **** Fit       0.002795
 **** Fit       0.002949
 **** Fit       0.002911
 **** Fit       0.002748
 **** Fit       0.002522
 **** Fit       0.002268
 **** Fit       0.000899
 **** Fit       0.001279
 **** Fit       0.001691
 **** Fit       0.002087
 **** Fit       0.002420
 **** Fit       0.002659
 **** Fit       0.001628
 **** Fit       0.001962
 **** Fit       0.001632
 **** Fit       0.001521
 **** Fit       0.001394
 **** Fit       0.001280
 **** Fit       0.001549
 **** Fit       0.001458
 **** Fit       0.001329
 **** Fit       0.001187
 **** Fit       0.001068
 **** Fit       0.001003
 **** Fit       0.001403
 **** Fit       0.001342
 **** Fit       0.001234
 **** Fit       0.001092
 **** Fit       0.000948
 **** Fit       0.000840
 **** Fit       0.000801
 **** Fit       0.001180
 **** Fit       0.001099
 **** Fit       0.000979
 **** Fit       0.000837
 **** Fit       0.000706
 **** Fit       0.000629
 **** Fit       0.000635
 **** Fit       0.000847
 **** Fit       0.000725
 **** Fit       0.000597
 **** Fit       0.000500
 **** Fit       0.000471
 **** Fit       0.000538
 **** Fit       0.000698
 **** Fit       0.000925
 **** Fit       0.001175
 **** Fit       0.000619
 **** Fit       0.000508
 **** Fit       0.000410
 **** Fit       0.000361
 **** Fit       0.000395
 **** Fit       0.000530
 **** Fit       0.000756
 **** Fit       0.001038
 **** Fit       0.001330
 **** Fit       0.001586
 **** Fit       0.000354
 **** Fit       0.000299
 **** Fit       0.000308
 **** Fit       0.000408
 **** Fit       0.000608
 **** Fit       0.000892
 **** Fit       0.001217
 **** Fit       0.001536
 **** Fit       0.001804
 **** Fit       0.000491
 **** Fit       0.000745
 **** Fit       0.001070
 **** Fit       0.001421
 **** Fit       0.001749
 **** Fit       0.002016
 **** Fit       0.000612
 **** Fit       0.000900
 **** Fit       0.001245
 **** Fit       0.001601
 **** Fit       0.001924
 **** Fit       0.002178
 **** Fit       0.000736
 **** Fit       0.001036
 **** Fit       0.001379
 **** Fit       0.001723
 **** Fit       0.002027
 **** Fit       0.002261
 **** Fit       0.001453
 **** Fit       0.001771
 -----------------------------------------------------------------
 Leave Link  602 at Fri Apr 28 13:07:34 2017, MaxMem=   33554432 cpu:      95.7
 (Enter /scratch/michal/g09/l9999.exe)

 Test job not archived.
 1\1\GINC-RZEPICHA\SP\RHF\6-31G(d)\C27H46O3\MICHAL\28-Apr-2017\0\\#P HF
 /6-31G* SCF(Conver=6) NoSymm Test Pop=chelpg IOp(6/33=2) GFInput GFPri
 nt\\MEP - Input generated by R.E.D.-III.x MOLECULE\\0,1\C,0,-1.0092904
 ,1.97926413,1.69047511\H,0,-0.99509093,0.99983213,2.18418651\C,0,0.319
 34545,2.6970502,1.96518262\H,0,0.47575287,2.78965626,3.04422044\H,0,0.
 23237858,3.72232547,1.56974915\C,0,1.50562774,2.00389276,1.32146695\C,
 0,1.39208873,1.65854572,-0.16678231\C,0,-0.00671532,1.01510391,-0.4209
 8903\H,0,0.,0.,0.\H,0,-0.16778402,0.90335156,-1.49841621\C,0,-1.192981
 22,1.77983571,0.18634616\H,0,-1.30357159,2.76317852,-0.29428965\H,0,-2
 .12462158,1.23355338,0.\C,0,2.59939097,1.7329604,2.04572396\H,0,2.6247
 0149,1.99090768,3.10210008\C,0,3.86295689,1.12118332,1.51651551\H,0,4.
 03743064,0.14271562,1.99045217\C,0,3.91024901,0.98287085,-0.01412386\H
 ,0,4.212286,1.96110916,-0.40995576\C,0,2.49794472,0.61810877,-0.555150
 24\H,0,2.21532785,-0.31713336,-0.04474778\C,0,2.53755122,0.30393526,-2
 .06928332\H,0,2.71553696,1.22487516,-2.6346595\H,0,1.55712772,-0.06357
 03,-2.39078188\C,0,3.60171194,-0.73729934,-2.46583065\H,0,3.34163936,-
 1.70755443,-2.02000582\H,0,3.5737403,-0.87414124,-3.5532369\C,0,5.0077
 5466,-0.32775492,-1.98969788\C,0,4.91795583,-0.09629995,-0.4512515\H,0
 ,4.52632074,-1.04231085,-0.04071813\C,0,6.3880119,0.,0.\H,0,6.51369974
 ,-0.26766252,1.05374849\H,0,6.75964417,1.0239703,-0.10729935\C,0,7.136
 24127,-0.97789333,-0.94950667\H,0,7.98473233,-0.47765635,-1.4271965\H,
 0,7.55191502,-1.83607799,-0.40982895\C,0,6.09402537,-1.45905196,-2.007
 20889\H,0,5.58784534,-2.32516766,-1.558289\C,0,5.47190106,0.94551176,-
 2.73470513\H,0,4.87224443,1.81919912,-2.46739328\H,0,6.51412393,1.1946
 2146,-2.52014994\H,0,5.38023153,0.81411136,-3.81653646\C,0,6.75743935,
 -2.01551592,-3.29999714\H,0,7.49704335,-2.73572635,-2.91830314\C,0,7.5
 6133624,-1.01613633,-4.15650705\H,0,6.91261344,-0.3772212,-4.76287853\
 H,0,8.21019583,-1.56554343,-4.84801489\H,0,8.20424216,-0.36584641,-3.5
 5626958\C,0,1.52076044,2.96821189,-0.98983912\H,0,1.2951304,2.79907237
 ,-2.04739254\H,0,0.82895488,3.73495234,-0.63162113\H,0,2.52899848,3.38
 613657,-0.91434508\O,0,4.99419589,1.96466739,1.85052338\O,0,5.17149589
 ,1.91969134,3.29859213\H,0,6.03301057,1.47431124,3.35292221\O,0,-2.115
 63869,2.65759149,2.29201673\H,0,-2.18442451,3.54152453,1.90456417\C,0,
 5.80341252,-2.80858298,-4.22685595\H,0,5.04932651,-2.12305186,-4.63414
 34\H,0,6.39210255,-3.14492155,-5.09263324\C,0,5.08795331,-4.03951667,-
 3.63760092\H,0,4.44402111,-3.7434889,-2.79944582\H,0,4.411116,-4.42433
 817,-4.41043265\C,0,6.02758345,-5.16448406,-3.17673801\H,0,6.69999718,
 -4.77887339,-2.3992022\H,0,6.67464566,-5.46439566,-4.01583475\C,0,5.32
 358524,-6.41940406,-2.61865161\H,0,4.63522047,-6.08870593,-1.82529362\
 C,0,4.49565243,-7.15776413,-3.68315481\H,0,5.13629013,-7.49079567,-4.5
 1017045\H,0,4.01571323,-8.04639424,-3.25763352\H,0,3.70572362,-6.52842
 538,-4.10487113\C,0,6.34740352,-7.37266027,-1.9816306\H,0,7.06637187,-
 7.73005686,-2.73003099\H,0,5.85724786,-8.25140869,-1.54726869\H,0,6.91
 476671,-6.87684344,-1.18563587\\Version=EM64L-G09RevC.01\HF=-1273.6766
 631\RMSD=5.709e-07\Dipole=0.3956741,-0.4769259,-0.8464165\Quadrupole=1
 .7197103,0.8140999,-2.5338102,-6.9397533,3.6870929,-5.9081553\PG=C01 [
 X(C27H46O3)]\\@


 I WISH TO HAVE NO CONNECTION WITH ANY SHIP THAT DOES NOT SAIL FAST,
 FOR I INTEND TO GO IN HARM'S WAY.
     -- JOHN PAUL JONES, USN 1747-1792
 Job cpu time:  0 days  0 hours 40 minutes 10.8 seconds.
 File lengths (MBytes):  RWF=    159 Int=      0 D2E=      0 Chk=     11 Scr=      1
 Normal termination of Gaussian 09 at Fri Apr 28 13:07:35 2017.
