 Entering Gaussian System, Link 0=/scratch/michal/g09//g09
 Input=JOB2-gau_m1-22-1.com
 Output=JOB2-gau_m1-22-1.log
 Initial command:
 /scratch/michal/g09/l1.exe /scratch/michal/gauss_scratch/Gau-23956.inp -scrdir=/scratch/michal/gauss_scratch/
 Entering Link 1 = /scratch/michal/g09/l1.exe PID=     23958.
  
 Copyright (c) 1988,1990,1992,1993,1995,1998,2003,2009,2011,
            Gaussian, Inc.  All Rights Reserved.
  
 This is part of the Gaussian(R) 09 program.  It is based on
 the Gaussian(R) 03 system (copyright 2003, Gaussian, Inc.),
 the Gaussian(R) 98 system (copyright 1998, Gaussian, Inc.),
 the Gaussian(R) 94 system (copyright 1995, Gaussian, Inc.),
 the Gaussian 92(TM) system (copyright 1992, Gaussian, Inc.),
 the Gaussian 90(TM) system (copyright 1990, Gaussian, Inc.),
 the Gaussian 88(TM) system (copyright 1988, Gaussian, Inc.),
 the Gaussian 86(TM) system (copyright 1986, Carnegie Mellon
 University), and the Gaussian 82(TM) system (copyright 1983,
 Carnegie Mellon University). Gaussian is a federally registered
 trademark of Gaussian, Inc.
  
 This software contains proprietary and confidential information,
 including trade secrets, belonging to Gaussian, Inc.
  
 This software is provided under written license and may be
 used, copied, transmitted, or stored only in accord with that
 written license.
  
 The following legend is applicable only to US Government
 contracts under FAR:
  
                    RESTRICTED RIGHTS LEGEND
  
 Use, reproduction and disclosure by the US Government is
 subject to restrictions as set forth in subparagraphs (a)
 and (c) of the Commercial Computer Software - Restricted
 Rights clause in FAR 52.227-19.
  
 Gaussian, Inc.
 340 Quinnipiac St., Bldg. 40, Wallingford CT 06492
  
  
 ---------------------------------------------------------------
 Warning -- This program may not be used in any manner that
 competes with the business of Gaussian, Inc. or will provide
 assistance to any competitor of Gaussian, Inc.  The licensee
 of this program is prohibited from giving any competitor of
 Gaussian, Inc. access to this program.  By using this program,
 the user acknowledges that Gaussian, Inc. is engaged in the
 business of creating and licensing software in the field of
 computational chemistry and represents and warrants to the
 licensee that it is not a competitor of Gaussian, Inc. and that
 it will not use this program in any manner prohibited above.
 ---------------------------------------------------------------
  

 Cite this work as:
 Gaussian 09, Revision C.01,
 M. J. Frisch, G. W. Trucks, H. B. Schlegel, G. E. Scuseria, 
 M. A. Robb, J. R. Cheeseman, G. Scalmani, V. Barone, B. Mennucci, 
 G. A. Petersson, H. Nakatsuji, M. Caricato, X. Li, H. P. Hratchian, 
 A. F. Izmaylov, J. Bloino, G. Zheng, J. L. Sonnenberg, M. Hada, 
 M. Ehara, K. Toyota, R. Fukuda, J. Hasegawa, M. Ishida, T. Nakajima, 
 Y. Honda, O. Kitao, H. Nakai, T. Vreven, J. A. Montgomery, Jr., 
 J. E. Peralta, F. Ogliaro, M. Bearpark, J. J. Heyd, E. Brothers, 
 K. N. Kudin, V. N. Staroverov, T. Keith, R. Kobayashi, J. Normand, 
 K. Raghavachari, A. Rendell, J. C. Burant, S. S. Iyengar, J. Tomasi, 
 M. Cossi, N. Rega, J. M. Millam, M. Klene, J. E. Knox, J. B. Cross, 
 V. Bakken, C. Adamo, J. Jaramillo, R. Gomperts, R. E. Stratmann, 
 O. Yazyev, A. J. Austin, R. Cammi, C. Pomelli, J. W. Ochterski, 
 R. L. Martin, K. Morokuma, V. G. Zakrzewski, G. A. Voth, 
 P. Salvador, J. J. Dannenberg, S. Dapprich, A. D. Daniels, 
 O. Farkas, J. B. Foresman, J. V. Ortiz, J. Cioslowski, 
 and D. J. Fox, Gaussian, Inc., Wallingford CT, 2010.
 
 ******************************************
 Gaussian 09:  EM64L-G09RevC.01 23-Sep-2011
                28-Apr-2017 
 ******************************************
 %Mem=256MB
 %NProc=48
 Will use up to   48 processors via shared memory.
 ----------------------------------------------------------------------
 #P HF/6-31G* SCF(Conver=6) NoSymm Test Pop=chelpg IOp(6/33=2) GFInput 
 GFPrint
 ----------------------------------------------------------------------
 1/38=1/1;
 2/12=2,15=1,17=6,18=5,40=1/2;
 3/5=1,6=6,7=1,11=9,16=1,24=110,25=1,30=1/1,2,3;
 4//1;
 5/5=2,6=6,38=5/2;
 6/7=2,8=2,9=2,10=2,15=8,20=3,28=1,33=2/1,2;
 99/5=1,9=1/99;
 Leave Link    1 at Fri Apr 28 13:53:05 2017, MaxMem=   33554432 cpu:       3.5
 (Enter /scratch/michal/g09/l101.exe)
 ----------------------------------------------
 MEP - Input generated by R.E.D.-III.x MOLECULE
 ----------------------------------------------
 Charge =  0 Multiplicity = 1
 Symbolic Z-Matrix:
 C                     1.75843  -1.24868  -0.0685 
 H                     1.87119  -1.12865  -1.15295 
 C                     3.15088  -1.30885   0.57555 
 H                     3.72766  -2.12864   0.13579 
 H                     3.01323  -1.55474   1.6411 
 C                     3.91416  -0.00377   0.45385 
 C                     3.19056   1.27859   0.87912 
 C                     1.74862   1.25401   0.28256 
 H                     1.81963   1.44375  -0.7975 
 H                     1.16682   2.08006   0.7045 
 C                     0.97861  -0.05926   0.48975 
 H                     0.78562  -0.2278    1.55968 
 H                     0.        0.        0. 
 C                     5.17477   0.        0. 
 H                     5.63505  -0.93672  -0.3162 
 C                     6.05928   1.20705  -0.10878 
 H                     6.29003   1.39672  -1.16976 
 C                     5.48265   2.47849   0.53234 
 H                     5.69308   2.4132    1.6054 
 C                     3.94585   2.52878   0.30642 
 H                     3.79882   2.48577  -0.78565 
 C                     3.35026   3.8739    0.78063 
 H                     3.36668   3.92055   1.87497 
 H                     2.29512   3.93105   0.49152 
 C                     4.07379   5.11468   0.22216 
 H                     3.9347    5.15836  -0.86785 
 H                     3.59306   6.00832   0.632 
 C                     5.58513   5.08598   0.52568 
 C                     6.13018   3.74684  -0.05135 
 H                     5.84943   3.76089  -1.11947 
 C                     7.65754   3.9104    0. 
 H                     8.17295   3.25806  -0.7095 
 H                     8.04131   3.64621   0.99068 
 C                     7.87457   5.41554  -0.31127 
 H                     8.5486    5.872     0.42365 
 H                     8.34758   5.55278  -1.28842 
 C                     6.47053   6.10912  -0.26857 
 H                     6.06834   6.12644  -1.29433 
 C                     5.84237   5.21904   2.04446 
 H                     5.40876   4.39364   2.6146 
 H                     6.91089   5.24277   2.2771 
 H                     5.40336   6.14464   2.4311 
 C                     6.54927   7.58493   0.20281 
 H                     7.01271   7.59302   1.20124 
 C                     5.1732    8.26552   0.31218 
 H                     4.62935   8.20445  -0.63904 
 H                     5.27437   9.32449   0.56777 
 H                     4.54735   7.81155   1.08365 
 C                     3.11498   1.30952   2.42891 
 H                     2.48125   2.12987   2.77964 
 H                     2.69208   0.38332   2.82759 
 H                     4.1089    1.42693   2.87018 
 O                     7.39387   0.8966    0.36645 
 O                     7.34188   0.63497   1.80005 
 H                     7.38838  -0.33506   1.81302 
 O                     1.05417  -2.48494   0.07493 
 H                     0.89112  -2.6416    1.01571 
 C                     7.47601   8.39688  -0.73629 
 H                     8.401     7.8348   -0.90713 
 H                     6.98986   8.48751  -1.71999 
 C                     7.86803   9.79528  -0.23185 
 H                     6.97977   10.43292  -0.13448 
 H                     8.29175   9.69972   0.77686 
 C                     8.87368   10.49437  -1.15941 
 H                     8.46078   10.50192  -2.17849 
 H                     9.79777   9.89837  -1.21145 
 C                     9.23752   11.9422  -0.77201 
 H                     8.29798   12.51114  -0.69389 
 C                     9.95383   12.02714   0.5856 
 H                     10.88727   11.44941   0.5687 
 H                     10.21084   13.06457   0.82836 
 H                     9.33679   11.64095   1.403 
 C                     10.08991   12.59641  -1.871 
 H                     11.04256   12.06536  -1.99439 
 H                     10.32129   13.63968  -1.62755 
 H                     9.57432   12.58349  -2.83814 
 
 NAtoms=     76 NQM=        0 NQMF=       0 NMMI=     76 NMMIF=      0
                NMic=       0 NMicF=      0.
                    Isotopes and Nuclear Properties:
 (Nuclear quadrupole moments (NQMom) in fm**2, nuclear magnetic moments (NMagM)
  in nuclear magnetons)

  Atom         1           2           3           4           5           6           7           8           9          10
 IAtWgt=          12           1          12           1           1          12          12          12           1           1
 AtmWgt=  12.0000000   1.0078250  12.0000000   1.0078250   1.0078250  12.0000000  12.0000000  12.0000000   1.0078250   1.0078250
 NucSpn=           0           1           0           1           1           0           0           0           1           1
 AtZEff=   0.0000000   0.0000000   0.0000000   0.0000000   0.0000000   0.0000000   0.0000000   0.0000000   0.0000000   0.0000000
 NQMom=    0.0000000   0.0000000   0.0000000   0.0000000   0.0000000   0.0000000   0.0000000   0.0000000   0.0000000   0.0000000
 NMagM=    0.0000000   2.7928460   0.0000000   2.7928460   2.7928460   0.0000000   0.0000000   0.0000000   2.7928460   2.7928460

  Atom        11          12          13          14          15          16          17          18          19          20
 IAtWgt=          12           1           1          12           1          12           1          12           1          12
 AtmWgt=  12.0000000   1.0078250   1.0078250  12.0000000   1.0078250  12.0000000   1.0078250  12.0000000   1.0078250  12.0000000
 NucSpn=           0           1           1           0           1           0           1           0           1           0
 AtZEff=   0.0000000   0.0000000   0.0000000   0.0000000   0.0000000   0.0000000   0.0000000   0.0000000   0.0000000   0.0000000
 NQMom=    0.0000000   0.0000000   0.0000000   0.0000000   0.0000000   0.0000000   0.0000000   0.0000000   0.0000000   0.0000000
 NMagM=    0.0000000   2.7928460   2.7928460   0.0000000   2.7928460   0.0000000   2.7928460   0.0000000   2.7928460   0.0000000

  Atom        21          22          23          24          25          26          27          28          29          30
 IAtWgt=           1          12           1           1          12           1           1          12          12           1
 AtmWgt=   1.0078250  12.0000000   1.0078250   1.0078250  12.0000000   1.0078250   1.0078250  12.0000000  12.0000000   1.0078250
 NucSpn=           1           0           1           1           0           1           1           0           0           1
 AtZEff=   0.0000000   0.0000000   0.0000000   0.0000000   0.0000000   0.0000000   0.0000000   0.0000000   0.0000000   0.0000000
 NQMom=    0.0000000   0.0000000   0.0000000   0.0000000   0.0000000   0.0000000   0.0000000   0.0000000   0.0000000   0.0000000
 NMagM=    2.7928460   0.0000000   2.7928460   2.7928460   0.0000000   2.7928460   2.7928460   0.0000000   0.0000000   2.7928460

  Atom        31          32          33          34          35          36          37          38          39          40
 IAtWgt=          12           1           1          12           1           1          12           1          12           1
 AtmWgt=  12.0000000   1.0078250   1.0078250  12.0000000   1.0078250   1.0078250  12.0000000   1.0078250  12.0000000   1.0078250
 NucSpn=           0           1           1           0           1           1           0           1           0           1
 AtZEff=   0.0000000   0.0000000   0.0000000   0.0000000   0.0000000   0.0000000   0.0000000   0.0000000   0.0000000   0.0000000
 NQMom=    0.0000000   0.0000000   0.0000000   0.0000000   0.0000000   0.0000000   0.0000000   0.0000000   0.0000000   0.0000000
 NMagM=    0.0000000   2.7928460   2.7928460   0.0000000   2.7928460   2.7928460   0.0000000   2.7928460   0.0000000   2.7928460

  Atom        41          42          43          44          45          46          47          48          49          50
 IAtWgt=           1           1          12           1          12           1           1           1          12           1
 AtmWgt=   1.0078250   1.0078250  12.0000000   1.0078250  12.0000000   1.0078250   1.0078250   1.0078250  12.0000000   1.0078250
 NucSpn=           1           1           0           1           0           1           1           1           0           1
 AtZEff=   0.0000000   0.0000000   0.0000000   0.0000000   0.0000000   0.0000000   0.0000000   0.0000000   0.0000000   0.0000000
 NQMom=    0.0000000   0.0000000   0.0000000   0.0000000   0.0000000   0.0000000   0.0000000   0.0000000   0.0000000   0.0000000
 NMagM=    2.7928460   2.7928460   0.0000000   2.7928460   0.0000000   2.7928460   2.7928460   2.7928460   0.0000000   2.7928460

  Atom        51          52          53          54          55          56          57          58          59          60
 IAtWgt=           1           1          16          16           1          16           1          12           1           1
 AtmWgt=   1.0078250   1.0078250  15.9949146  15.9949146   1.0078250  15.9949146   1.0078250  12.0000000   1.0078250   1.0078250
 NucSpn=           1           1           0           0           1           0           1           0           1           1
 AtZEff=   0.0000000   0.0000000   0.0000000   0.0000000   0.0000000   0.0000000   0.0000000   0.0000000   0.0000000   0.0000000
 NQMom=    0.0000000   0.0000000   0.0000000   0.0000000   0.0000000   0.0000000   0.0000000   0.0000000   0.0000000   0.0000000
 NMagM=    2.7928460   2.7928460   0.0000000   0.0000000   2.7928460   0.0000000   2.7928460   0.0000000   2.7928460   2.7928460

  Atom        61          62          63          64          65          66          67          68          69          70
 IAtWgt=          12           1           1          12           1           1          12           1          12           1
 AtmWgt=  12.0000000   1.0078250   1.0078250  12.0000000   1.0078250   1.0078250  12.0000000   1.0078250  12.0000000   1.0078250
 NucSpn=           0           1           1           0           1           1           0           1           0           1
 AtZEff=   0.0000000   0.0000000   0.0000000   0.0000000   0.0000000   0.0000000   0.0000000   0.0000000   0.0000000   0.0000000
 NQMom=    0.0000000   0.0000000   0.0000000   0.0000000   0.0000000   0.0000000   0.0000000   0.0000000   0.0000000   0.0000000
 NMagM=    0.0000000   2.7928460   2.7928460   0.0000000   2.7928460   2.7928460   0.0000000   2.7928460   0.0000000   2.7928460

  Atom        71          72          73          74          75          76
 IAtWgt=           1           1          12           1           1           1
 AtmWgt=   1.0078250   1.0078250  12.0000000   1.0078250   1.0078250   1.0078250
 NucSpn=           1           1           0           1           1           1
 AtZEff=   0.0000000   0.0000000   0.0000000   0.0000000   0.0000000   0.0000000
 NQMom=    0.0000000   0.0000000   0.0000000   0.0000000   0.0000000   0.0000000
 NMagM=    2.7928460   2.7928460   0.0000000   2.7928460   2.7928460   2.7928460
 Leave Link  101 at Fri Apr 28 13:53:05 2017, MaxMem=   33554432 cpu:      12.8
 (Enter /scratch/michal/g09/l202.exe)
 Symmetry turned off by external request.
 Stoichiometry    C27H46O3
 Framework group  C1[X(C27H46O3)]
 Deg. of freedom   222
 Full point group                 C1      NOp   1
                          Input orientation:                          
 ---------------------------------------------------------------------
 Center     Atomic      Atomic             Coordinates (Angstroms)
 Number     Number       Type             X           Y           Z
 ---------------------------------------------------------------------
      1          6           0        1.758433   -1.248683   -0.068498
      2          1           0        1.871192   -1.128653   -1.152948
      3          6           0        3.150875   -1.308852    0.575551
      4          1           0        3.727664   -2.128642    0.135791
      5          1           0        3.013225   -1.554744    1.641104
      6          6           0        3.914161   -0.003774    0.453846
      7          6           0        3.190559    1.278592    0.879120
      8          6           0        1.748617    1.254010    0.282562
      9          1           0        1.819627    1.443751   -0.797496
     10          1           0        1.166819    2.080058    0.704497
     11          6           0        0.978613   -0.059261    0.489747
     12          1           0        0.785619   -0.227796    1.559682
     13          1           0        0.000000    0.000000    0.000000
     14          6           0        5.174767    0.000000    0.000000
     15          1           0        5.635053   -0.936721   -0.316200
     16          6           0        6.059284    1.207049   -0.108780
     17          1           0        6.290029    1.396720   -1.169757
     18          6           0        5.482647    2.478489    0.532341
     19          1           0        5.693084    2.413199    1.605400
     20          6           0        3.945851    2.528779    0.306415
     21          1           0        3.798824    2.485770   -0.785646
     22          6           0        3.350264    3.873901    0.780628
     23          1           0        3.366683    3.920548    1.874968
     24          1           0        2.295124    3.931045    0.491517
     25          6           0        4.073788    5.114684    0.222157
     26          1           0        3.934704    5.158362   -0.867852
     27          1           0        3.593063    6.008317    0.631999
     28          6           0        5.585125    5.085984    0.525677
     29          6           0        6.130184    3.746841   -0.051352
     30          1           0        5.849432    3.760894   -1.119468
     31          6           0        7.657541    3.910403    0.000000
     32          1           0        8.172954    3.258056   -0.709499
     33          1           0        8.041311    3.646210    0.990677
     34          6           0        7.874568    5.415539   -0.311267
     35          1           0        8.548600    5.872003    0.423649
     36          1           0        8.347577    5.552776   -1.288422
     37          6           0        6.470526    6.109119   -0.268566
     38          1           0        6.068335    6.126436   -1.294325
     39          6           0        5.842373    5.219044    2.044461
     40          1           0        5.408759    4.393636    2.614599
     41          1           0        6.910888    5.242772    2.277100
     42          1           0        5.403362    6.144644    2.431100
     43          6           0        6.549271    7.584926    0.202810
     44          1           0        7.012710    7.593020    1.201239
     45          6           0        5.173203    8.265521    0.312178
     46          1           0        4.629350    8.204450   -0.639036
     47          1           0        5.274368    9.324485    0.567768
     48          1           0        4.547348    7.811555    1.083651
     49          6           0        3.114980    1.309524    2.428913
     50          1           0        2.481245    2.129871    2.779644
     51          1           0        2.692075    0.383317    2.827591
     52          1           0        4.108895    1.426935    2.870179
     53          8           0        7.393866    0.896599    0.366454
     54          8           0        7.341879    0.634974    1.800050
     55          1           0        7.388379   -0.335063    1.813021
     56          8           0        1.054166   -2.484944    0.074932
     57          1           0        0.891117   -2.641601    1.015714
     58          6           0        7.476007    8.396883   -0.736285
     59          1           0        8.401005    7.834795   -0.907127
     60          1           0        6.989864    8.487509   -1.719993
     61          6           0        7.868034    9.795284   -0.231850
     62          1           0        6.979771   10.432924   -0.134480
     63          1           0        8.291748    9.699721    0.776856
     64          6           0        8.873683   10.494370   -1.159410
     65          1           0        8.460783   10.501921   -2.178491
     66          1           0        9.797775    9.898369   -1.211447
     67          6           0        9.237518   11.942199   -0.772005
     68          1           0        8.297985   12.511144   -0.693886
     69          6           0        9.953833   12.027144    0.585599
     70          1           0       10.887270   11.449411    0.568698
     71          1           0       10.210840   13.064574    0.828355
     72          1           0        9.336792   11.640948    1.402996
     73          6           0       10.089912   12.596405   -1.870997
     74          1           0       11.042559   12.065360   -1.994391
     75          1           0       10.321286   13.639682   -1.627549
     76          1           0        9.574320   12.583490   -2.838144
 ---------------------------------------------------------------------
 Rotational constants (GHZ):      0.4193070      0.0503556      0.0473943
 Leave Link  202 at Fri Apr 28 13:53:05 2017, MaxMem=   33554432 cpu:       0.1
 (Enter /scratch/michal/g09/l301.exe)
 Standard basis: 6-31G(d) (6D, 7F)
 Ernie: Thresh=  0.10000D-02 Tol=  0.10000D-05 Strict=F.
 AO basis set in the form of general basis input (Overlap normalization):
      1 0
 S   6 1.00       0.000000000000
      0.3047524880D+04  0.1834737132D-02
      0.4573695180D+03  0.1403732281D-01
      0.1039486850D+03  0.6884262226D-01
      0.2921015530D+02  0.2321844432D+00
      0.9286662960D+01  0.4679413484D+00
      0.3163926960D+01  0.3623119853D+00
 SP   3 1.00       0.000000000000
      0.7868272350D+01 -0.1193324198D+00  0.6899906659D-01
      0.1881288540D+01 -0.1608541517D+00  0.3164239610D+00
      0.5442492580D+00  0.1143456438D+01  0.7443082909D+00
 SP   1 1.00       0.000000000000
      0.1687144782D+00  0.1000000000D+01  0.1000000000D+01
 D   1 1.00       0.000000000000
      0.8000000000D+00  0.1000000000D+01
 ****
      2 0
 S   3 1.00       0.000000000000
      0.1873113696D+02  0.3349460434D-01
      0.2825394365D+01  0.2347269535D+00
      0.6401216923D+00  0.8137573261D+00
 S   1 1.00       0.000000000000
      0.1612777588D+00  0.1000000000D+01
 ****
      3 0
 S   6 1.00       0.000000000000
      0.3047524880D+04  0.1834737132D-02
      0.4573695180D+03  0.1403732281D-01
      0.1039486850D+03  0.6884262226D-01
      0.2921015530D+02  0.2321844432D+00
      0.9286662960D+01  0.4679413484D+00
      0.3163926960D+01  0.3623119853D+00
 SP   3 1.00       0.000000000000
      0.7868272350D+01 -0.1193324198D+00  0.6899906659D-01
      0.1881288540D+01 -0.1608541517D+00  0.3164239610D+00
      0.5442492580D+00  0.1143456438D+01  0.7443082909D+00
 SP   1 1.00       0.000000000000
      0.1687144782D+00  0.1000000000D+01  0.1000000000D+01
 D   1 1.00       0.000000000000
      0.8000000000D+00  0.1000000000D+01
 ****
      4 0
 S   3 1.00       0.000000000000
      0.1873113696D+02  0.3349460434D-01
      0.2825394365D+01  0.2347269535D+00
      0.6401216923D+00  0.8137573261D+00
 S   1 1.00       0.000000000000
      0.1612777588D+00  0.1000000000D+01
 ****
      5 0
 S   3 1.00       0.000000000000
      0.1873113696D+02  0.3349460434D-01
      0.2825394365D+01  0.2347269535D+00
      0.6401216923D+00  0.8137573261D+00
 S   1 1.00       0.000000000000
      0.1612777588D+00  0.1000000000D+01
 ****
      6 0
 S   6 1.00       0.000000000000
      0.3047524880D+04  0.1834737132D-02
      0.4573695180D+03  0.1403732281D-01
      0.1039486850D+03  0.6884262226D-01
      0.2921015530D+02  0.2321844432D+00
      0.9286662960D+01  0.4679413484D+00
      0.3163926960D+01  0.3623119853D+00
 SP   3 1.00       0.000000000000
      0.7868272350D+01 -0.1193324198D+00  0.6899906659D-01
      0.1881288540D+01 -0.1608541517D+00  0.3164239610D+00
      0.5442492580D+00  0.1143456438D+01  0.7443082909D+00
 SP   1 1.00       0.000000000000
      0.1687144782D+00  0.1000000000D+01  0.1000000000D+01
 D   1 1.00       0.000000000000
      0.8000000000D+00  0.1000000000D+01
 ****
      7 0
 S   6 1.00       0.000000000000
      0.3047524880D+04  0.1834737132D-02
      0.4573695180D+03  0.1403732281D-01
      0.1039486850D+03  0.6884262226D-01
      0.2921015530D+02  0.2321844432D+00
      0.9286662960D+01  0.4679413484D+00
      0.3163926960D+01  0.3623119853D+00
 SP   3 1.00       0.000000000000
      0.7868272350D+01 -0.1193324198D+00  0.6899906659D-01
      0.1881288540D+01 -0.1608541517D+00  0.3164239610D+00
      0.5442492580D+00  0.1143456438D+01  0.7443082909D+00
 SP   1 1.00       0.000000000000
      0.1687144782D+00  0.1000000000D+01  0.1000000000D+01
 D   1 1.00       0.000000000000
      0.8000000000D+00  0.1000000000D+01
 ****
      8 0
 S   6 1.00       0.000000000000
      0.3047524880D+04  0.1834737132D-02
      0.4573695180D+03  0.1403732281D-01
      0.1039486850D+03  0.6884262226D-01
      0.2921015530D+02  0.2321844432D+00
      0.9286662960D+01  0.4679413484D+00
      0.3163926960D+01  0.3623119853D+00
 SP   3 1.00       0.000000000000
      0.7868272350D+01 -0.1193324198D+00  0.6899906659D-01
      0.1881288540D+01 -0.1608541517D+00  0.3164239610D+00
      0.5442492580D+00  0.1143456438D+01  0.7443082909D+00
 SP   1 1.00       0.000000000000
      0.1687144782D+00  0.1000000000D+01  0.1000000000D+01
 D   1 1.00       0.000000000000
      0.8000000000D+00  0.1000000000D+01
 ****
      9 0
 S   3 1.00       0.000000000000
      0.1873113696D+02  0.3349460434D-01
      0.2825394365D+01  0.2347269535D+00
      0.6401216923D+00  0.8137573261D+00
 S   1 1.00       0.000000000000
      0.1612777588D+00  0.1000000000D+01
 ****
     10 0
 S   3 1.00       0.000000000000
      0.1873113696D+02  0.3349460434D-01
      0.2825394365D+01  0.2347269535D+00
      0.6401216923D+00  0.8137573261D+00
 S   1 1.00       0.000000000000
      0.1612777588D+00  0.1000000000D+01
 ****
     11 0
 S   6 1.00       0.000000000000
      0.3047524880D+04  0.1834737132D-02
      0.4573695180D+03  0.1403732281D-01
      0.1039486850D+03  0.6884262226D-01
      0.2921015530D+02  0.2321844432D+00
      0.9286662960D+01  0.4679413484D+00
      0.3163926960D+01  0.3623119853D+00
 SP   3 1.00       0.000000000000
      0.7868272350D+01 -0.1193324198D+00  0.6899906659D-01
      0.1881288540D+01 -0.1608541517D+00  0.3164239610D+00
      0.5442492580D+00  0.1143456438D+01  0.7443082909D+00
 SP   1 1.00       0.000000000000
      0.1687144782D+00  0.1000000000D+01  0.1000000000D+01
 D   1 1.00       0.000000000000
      0.8000000000D+00  0.1000000000D+01
 ****
     12 0
 S   3 1.00       0.000000000000
      0.1873113696D+02  0.3349460434D-01
      0.2825394365D+01  0.2347269535D+00
      0.6401216923D+00  0.8137573261D+00
 S   1 1.00       0.000000000000
      0.1612777588D+00  0.1000000000D+01
 ****
     13 0
 S   3 1.00       0.000000000000
      0.1873113696D+02  0.3349460434D-01
      0.2825394365D+01  0.2347269535D+00
      0.6401216923D+00  0.8137573261D+00
 S   1 1.00       0.000000000000
      0.1612777588D+00  0.1000000000D+01
 ****
     14 0
 S   6 1.00       0.000000000000
      0.3047524880D+04  0.1834737132D-02
      0.4573695180D+03  0.1403732281D-01
      0.1039486850D+03  0.6884262226D-01
      0.2921015530D+02  0.2321844432D+00
      0.9286662960D+01  0.4679413484D+00
      0.3163926960D+01  0.3623119853D+00
 SP   3 1.00       0.000000000000
      0.7868272350D+01 -0.1193324198D+00  0.6899906659D-01
      0.1881288540D+01 -0.1608541517D+00  0.3164239610D+00
      0.5442492580D+00  0.1143456438D+01  0.7443082909D+00
 SP   1 1.00       0.000000000000
      0.1687144782D+00  0.1000000000D+01  0.1000000000D+01
 D   1 1.00       0.000000000000
      0.8000000000D+00  0.1000000000D+01
 ****
     15 0
 S   3 1.00       0.000000000000
      0.1873113696D+02  0.3349460434D-01
      0.2825394365D+01  0.2347269535D+00
      0.6401216923D+00  0.8137573261D+00
 S   1 1.00       0.000000000000
      0.1612777588D+00  0.1000000000D+01
 ****
     16 0
 S   6 1.00       0.000000000000
      0.3047524880D+04  0.1834737132D-02
      0.4573695180D+03  0.1403732281D-01
      0.1039486850D+03  0.6884262226D-01
      0.2921015530D+02  0.2321844432D+00
      0.9286662960D+01  0.4679413484D+00
      0.3163926960D+01  0.3623119853D+00
 SP   3 1.00       0.000000000000
      0.7868272350D+01 -0.1193324198D+00  0.6899906659D-01
      0.1881288540D+01 -0.1608541517D+00  0.3164239610D+00
      0.5442492580D+00  0.1143456438D+01  0.7443082909D+00
 SP   1 1.00       0.000000000000
      0.1687144782D+00  0.1000000000D+01  0.1000000000D+01
 D   1 1.00       0.000000000000
      0.8000000000D+00  0.1000000000D+01
 ****
     17 0
 S   3 1.00       0.000000000000
      0.1873113696D+02  0.3349460434D-01
      0.2825394365D+01  0.2347269535D+00
      0.6401216923D+00  0.8137573261D+00
 S   1 1.00       0.000000000000
      0.1612777588D+00  0.1000000000D+01
 ****
     18 0
 S   6 1.00       0.000000000000
      0.3047524880D+04  0.1834737132D-02
      0.4573695180D+03  0.1403732281D-01
      0.1039486850D+03  0.6884262226D-01
      0.2921015530D+02  0.2321844432D+00
      0.9286662960D+01  0.4679413484D+00
      0.3163926960D+01  0.3623119853D+00
 SP   3 1.00       0.000000000000
      0.7868272350D+01 -0.1193324198D+00  0.6899906659D-01
      0.1881288540D+01 -0.1608541517D+00  0.3164239610D+00
      0.5442492580D+00  0.1143456438D+01  0.7443082909D+00
 SP   1 1.00       0.000000000000
      0.1687144782D+00  0.1000000000D+01  0.1000000000D+01
 D   1 1.00       0.000000000000
      0.8000000000D+00  0.1000000000D+01
 ****
     19 0
 S   3 1.00       0.000000000000
      0.1873113696D+02  0.3349460434D-01
      0.2825394365D+01  0.2347269535D+00
      0.6401216923D+00  0.8137573261D+00
 S   1 1.00       0.000000000000
      0.1612777588D+00  0.1000000000D+01
 ****
     20 0
 S   6 1.00       0.000000000000
      0.3047524880D+04  0.1834737132D-02
      0.4573695180D+03  0.1403732281D-01
      0.1039486850D+03  0.6884262226D-01
      0.2921015530D+02  0.2321844432D+00
      0.9286662960D+01  0.4679413484D+00
      0.3163926960D+01  0.3623119853D+00
 SP   3 1.00       0.000000000000
      0.7868272350D+01 -0.1193324198D+00  0.6899906659D-01
      0.1881288540D+01 -0.1608541517D+00  0.3164239610D+00
      0.5442492580D+00  0.1143456438D+01  0.7443082909D+00
 SP   1 1.00       0.000000000000
      0.1687144782D+00  0.1000000000D+01  0.1000000000D+01
 D   1 1.00       0.000000000000
      0.8000000000D+00  0.1000000000D+01
 ****
     21 0
 S   3 1.00       0.000000000000
      0.1873113696D+02  0.3349460434D-01
      0.2825394365D+01  0.2347269535D+00
      0.6401216923D+00  0.8137573261D+00
 S   1 1.00       0.000000000000
      0.1612777588D+00  0.1000000000D+01
 ****
     22 0
 S   6 1.00       0.000000000000
      0.3047524880D+04  0.1834737132D-02
      0.4573695180D+03  0.1403732281D-01
      0.1039486850D+03  0.6884262226D-01
      0.2921015530D+02  0.2321844432D+00
      0.9286662960D+01  0.4679413484D+00
      0.3163926960D+01  0.3623119853D+00
 SP   3 1.00       0.000000000000
      0.7868272350D+01 -0.1193324198D+00  0.6899906659D-01
      0.1881288540D+01 -0.1608541517D+00  0.3164239610D+00
      0.5442492580D+00  0.1143456438D+01  0.7443082909D+00
 SP   1 1.00       0.000000000000
      0.1687144782D+00  0.1000000000D+01  0.1000000000D+01
 D   1 1.00       0.000000000000
      0.8000000000D+00  0.1000000000D+01
 ****
     23 0
 S   3 1.00       0.000000000000
      0.1873113696D+02  0.3349460434D-01
      0.2825394365D+01  0.2347269535D+00
      0.6401216923D+00  0.8137573261D+00
 S   1 1.00       0.000000000000
      0.1612777588D+00  0.1000000000D+01
 ****
     24 0
 S   3 1.00       0.000000000000
      0.1873113696D+02  0.3349460434D-01
      0.2825394365D+01  0.2347269535D+00
      0.6401216923D+00  0.8137573261D+00
 S   1 1.00       0.000000000000
      0.1612777588D+00  0.1000000000D+01
 ****
     25 0
 S   6 1.00       0.000000000000
      0.3047524880D+04  0.1834737132D-02
      0.4573695180D+03  0.1403732281D-01
      0.1039486850D+03  0.6884262226D-01
      0.2921015530D+02  0.2321844432D+00
      0.9286662960D+01  0.4679413484D+00
      0.3163926960D+01  0.3623119853D+00
 SP   3 1.00       0.000000000000
      0.7868272350D+01 -0.1193324198D+00  0.6899906659D-01
      0.1881288540D+01 -0.1608541517D+00  0.3164239610D+00
      0.5442492580D+00  0.1143456438D+01  0.7443082909D+00
 SP   1 1.00       0.000000000000
      0.1687144782D+00  0.1000000000D+01  0.1000000000D+01
 D   1 1.00       0.000000000000
      0.8000000000D+00  0.1000000000D+01
 ****
     26 0
 S   3 1.00       0.000000000000
      0.1873113696D+02  0.3349460434D-01
      0.2825394365D+01  0.2347269535D+00
      0.6401216923D+00  0.8137573261D+00
 S   1 1.00       0.000000000000
      0.1612777588D+00  0.1000000000D+01
 ****
     27 0
 S   3 1.00       0.000000000000
      0.1873113696D+02  0.3349460434D-01
      0.2825394365D+01  0.2347269535D+00
      0.6401216923D+00  0.8137573261D+00
 S   1 1.00       0.000000000000
      0.1612777588D+00  0.1000000000D+01
 ****
     28 0
 S   6 1.00       0.000000000000
      0.3047524880D+04  0.1834737132D-02
      0.4573695180D+03  0.1403732281D-01
      0.1039486850D+03  0.6884262226D-01
      0.2921015530D+02  0.2321844432D+00
      0.9286662960D+01  0.4679413484D+00
      0.3163926960D+01  0.3623119853D+00
 SP   3 1.00       0.000000000000
      0.7868272350D+01 -0.1193324198D+00  0.6899906659D-01
      0.1881288540D+01 -0.1608541517D+00  0.3164239610D+00
      0.5442492580D+00  0.1143456438D+01  0.7443082909D+00
 SP   1 1.00       0.000000000000
      0.1687144782D+00  0.1000000000D+01  0.1000000000D+01
 D   1 1.00       0.000000000000
      0.8000000000D+00  0.1000000000D+01
 ****
     29 0
 S   6 1.00       0.000000000000
      0.3047524880D+04  0.1834737132D-02
      0.4573695180D+03  0.1403732281D-01
      0.1039486850D+03  0.6884262226D-01
      0.2921015530D+02  0.2321844432D+00
      0.9286662960D+01  0.4679413484D+00
      0.3163926960D+01  0.3623119853D+00
 SP   3 1.00       0.000000000000
      0.7868272350D+01 -0.1193324198D+00  0.6899906659D-01
      0.1881288540D+01 -0.1608541517D+00  0.3164239610D+00
      0.5442492580D+00  0.1143456438D+01  0.7443082909D+00
 SP   1 1.00       0.000000000000
      0.1687144782D+00  0.1000000000D+01  0.1000000000D+01
 D   1 1.00       0.000000000000
      0.8000000000D+00  0.1000000000D+01
 ****
     30 0
 S   3 1.00       0.000000000000
      0.1873113696D+02  0.3349460434D-01
      0.2825394365D+01  0.2347269535D+00
      0.6401216923D+00  0.8137573261D+00
 S   1 1.00       0.000000000000
      0.1612777588D+00  0.1000000000D+01
 ****
     31 0
 S   6 1.00       0.000000000000
      0.3047524880D+04  0.1834737132D-02
      0.4573695180D+03  0.1403732281D-01
      0.1039486850D+03  0.6884262226D-01
      0.2921015530D+02  0.2321844432D+00
      0.9286662960D+01  0.4679413484D+00
      0.3163926960D+01  0.3623119853D+00
 SP   3 1.00       0.000000000000
      0.7868272350D+01 -0.1193324198D+00  0.6899906659D-01
      0.1881288540D+01 -0.1608541517D+00  0.3164239610D+00
      0.5442492580D+00  0.1143456438D+01  0.7443082909D+00
 SP   1 1.00       0.000000000000
      0.1687144782D+00  0.1000000000D+01  0.1000000000D+01
 D   1 1.00       0.000000000000
      0.8000000000D+00  0.1000000000D+01
 ****
     32 0
 S   3 1.00       0.000000000000
      0.1873113696D+02  0.3349460434D-01
      0.2825394365D+01  0.2347269535D+00
      0.6401216923D+00  0.8137573261D+00
 S   1 1.00       0.000000000000
      0.1612777588D+00  0.1000000000D+01
 ****
     33 0
 S   3 1.00       0.000000000000
      0.1873113696D+02  0.3349460434D-01
      0.2825394365D+01  0.2347269535D+00
      0.6401216923D+00  0.8137573261D+00
 S   1 1.00       0.000000000000
      0.1612777588D+00  0.1000000000D+01
 ****
     34 0
 S   6 1.00       0.000000000000
      0.3047524880D+04  0.1834737132D-02
      0.4573695180D+03  0.1403732281D-01
      0.1039486850D+03  0.6884262226D-01
      0.2921015530D+02  0.2321844432D+00
      0.9286662960D+01  0.4679413484D+00
      0.3163926960D+01  0.3623119853D+00
 SP   3 1.00       0.000000000000
      0.7868272350D+01 -0.1193324198D+00  0.6899906659D-01
      0.1881288540D+01 -0.1608541517D+00  0.3164239610D+00
      0.5442492580D+00  0.1143456438D+01  0.7443082909D+00
 SP   1 1.00       0.000000000000
      0.1687144782D+00  0.1000000000D+01  0.1000000000D+01
 D   1 1.00       0.000000000000
      0.8000000000D+00  0.1000000000D+01
 ****
     35 0
 S   3 1.00       0.000000000000
      0.1873113696D+02  0.3349460434D-01
      0.2825394365D+01  0.2347269535D+00
      0.6401216923D+00  0.8137573261D+00
 S   1 1.00       0.000000000000
      0.1612777588D+00  0.1000000000D+01
 ****
     36 0
 S   3 1.00       0.000000000000
      0.1873113696D+02  0.3349460434D-01
      0.2825394365D+01  0.2347269535D+00
      0.6401216923D+00  0.8137573261D+00
 S   1 1.00       0.000000000000
      0.1612777588D+00  0.1000000000D+01
 ****
     37 0
 S   6 1.00       0.000000000000
      0.3047524880D+04  0.1834737132D-02
      0.4573695180D+03  0.1403732281D-01
      0.1039486850D+03  0.6884262226D-01
      0.2921015530D+02  0.2321844432D+00
      0.9286662960D+01  0.4679413484D+00
      0.3163926960D+01  0.3623119853D+00
 SP   3 1.00       0.000000000000
      0.7868272350D+01 -0.1193324198D+00  0.6899906659D-01
      0.1881288540D+01 -0.1608541517D+00  0.3164239610D+00
      0.5442492580D+00  0.1143456438D+01  0.7443082909D+00
 SP   1 1.00       0.000000000000
      0.1687144782D+00  0.1000000000D+01  0.1000000000D+01
 D   1 1.00       0.000000000000
      0.8000000000D+00  0.1000000000D+01
 ****
     38 0
 S   3 1.00       0.000000000000
      0.1873113696D+02  0.3349460434D-01
      0.2825394365D+01  0.2347269535D+00
      0.6401216923D+00  0.8137573261D+00
 S   1 1.00       0.000000000000
      0.1612777588D+00  0.1000000000D+01
 ****
     39 0
 S   6 1.00       0.000000000000
      0.3047524880D+04  0.1834737132D-02
      0.4573695180D+03  0.1403732281D-01
      0.1039486850D+03  0.6884262226D-01
      0.2921015530D+02  0.2321844432D+00
      0.9286662960D+01  0.4679413484D+00
      0.3163926960D+01  0.3623119853D+00
 SP   3 1.00       0.000000000000
      0.7868272350D+01 -0.1193324198D+00  0.6899906659D-01
      0.1881288540D+01 -0.1608541517D+00  0.3164239610D+00
      0.5442492580D+00  0.1143456438D+01  0.7443082909D+00
 SP   1 1.00       0.000000000000
      0.1687144782D+00  0.1000000000D+01  0.1000000000D+01
 D   1 1.00       0.000000000000
      0.8000000000D+00  0.1000000000D+01
 ****
     40 0
 S   3 1.00       0.000000000000
      0.1873113696D+02  0.3349460434D-01
      0.2825394365D+01  0.2347269535D+00
      0.6401216923D+00  0.8137573261D+00
 S   1 1.00       0.000000000000
      0.1612777588D+00  0.1000000000D+01
 ****
     41 0
 S   3 1.00       0.000000000000
      0.1873113696D+02  0.3349460434D-01
      0.2825394365D+01  0.2347269535D+00
      0.6401216923D+00  0.8137573261D+00
 S   1 1.00       0.000000000000
      0.1612777588D+00  0.1000000000D+01
 ****
     42 0
 S   3 1.00       0.000000000000
      0.1873113696D+02  0.3349460434D-01
      0.2825394365D+01  0.2347269535D+00
      0.6401216923D+00  0.8137573261D+00
 S   1 1.00       0.000000000000
      0.1612777588D+00  0.1000000000D+01
 ****
     43 0
 S   6 1.00       0.000000000000
      0.3047524880D+04  0.1834737132D-02
      0.4573695180D+03  0.1403732281D-01
      0.1039486850D+03  0.6884262226D-01
      0.2921015530D+02  0.2321844432D+00
      0.9286662960D+01  0.4679413484D+00
      0.3163926960D+01  0.3623119853D+00
 SP   3 1.00       0.000000000000
      0.7868272350D+01 -0.1193324198D+00  0.6899906659D-01
      0.1881288540D+01 -0.1608541517D+00  0.3164239610D+00
      0.5442492580D+00  0.1143456438D+01  0.7443082909D+00
 SP   1 1.00       0.000000000000
      0.1687144782D+00  0.1000000000D+01  0.1000000000D+01
 D   1 1.00       0.000000000000
      0.8000000000D+00  0.1000000000D+01
 ****
     44 0
 S   3 1.00       0.000000000000
      0.1873113696D+02  0.3349460434D-01
      0.2825394365D+01  0.2347269535D+00
      0.6401216923D+00  0.8137573261D+00
 S   1 1.00       0.000000000000
      0.1612777588D+00  0.1000000000D+01
 ****
     45 0
 S   6 1.00       0.000000000000
      0.3047524880D+04  0.1834737132D-02
      0.4573695180D+03  0.1403732281D-01
      0.1039486850D+03  0.6884262226D-01
      0.2921015530D+02  0.2321844432D+00
      0.9286662960D+01  0.4679413484D+00
      0.3163926960D+01  0.3623119853D+00
 SP   3 1.00       0.000000000000
      0.7868272350D+01 -0.1193324198D+00  0.6899906659D-01
      0.1881288540D+01 -0.1608541517D+00  0.3164239610D+00
      0.5442492580D+00  0.1143456438D+01  0.7443082909D+00
 SP   1 1.00       0.000000000000
      0.1687144782D+00  0.1000000000D+01  0.1000000000D+01
 D   1 1.00       0.000000000000
      0.8000000000D+00  0.1000000000D+01
 ****
     46 0
 S   3 1.00       0.000000000000
      0.1873113696D+02  0.3349460434D-01
      0.2825394365D+01  0.2347269535D+00
      0.6401216923D+00  0.8137573261D+00
 S   1 1.00       0.000000000000
      0.1612777588D+00  0.1000000000D+01
 ****
     47 0
 S   3 1.00       0.000000000000
      0.1873113696D+02  0.3349460434D-01
      0.2825394365D+01  0.2347269535D+00
      0.6401216923D+00  0.8137573261D+00
 S   1 1.00       0.000000000000
      0.1612777588D+00  0.1000000000D+01
 ****
     48 0
 S   3 1.00       0.000000000000
      0.1873113696D+02  0.3349460434D-01
      0.2825394365D+01  0.2347269535D+00
      0.6401216923D+00  0.8137573261D+00
 S   1 1.00       0.000000000000
      0.1612777588D+00  0.1000000000D+01
 ****
     49 0
 S   6 1.00       0.000000000000
      0.3047524880D+04  0.1834737132D-02
      0.4573695180D+03  0.1403732281D-01
      0.1039486850D+03  0.6884262226D-01
      0.2921015530D+02  0.2321844432D+00
      0.9286662960D+01  0.4679413484D+00
      0.3163926960D+01  0.3623119853D+00
 SP   3 1.00       0.000000000000
      0.7868272350D+01 -0.1193324198D+00  0.6899906659D-01
      0.1881288540D+01 -0.1608541517D+00  0.3164239610D+00
      0.5442492580D+00  0.1143456438D+01  0.7443082909D+00
 SP   1 1.00       0.000000000000
      0.1687144782D+00  0.1000000000D+01  0.1000000000D+01
 D   1 1.00       0.000000000000
      0.8000000000D+00  0.1000000000D+01
 ****
     50 0
 S   3 1.00       0.000000000000
      0.1873113696D+02  0.3349460434D-01
      0.2825394365D+01  0.2347269535D+00
      0.6401216923D+00  0.8137573261D+00
 S   1 1.00       0.000000000000
      0.1612777588D+00  0.1000000000D+01
 ****
     51 0
 S   3 1.00       0.000000000000
      0.1873113696D+02  0.3349460434D-01
      0.2825394365D+01  0.2347269535D+00
      0.6401216923D+00  0.8137573261D+00
 S   1 1.00       0.000000000000
      0.1612777588D+00  0.1000000000D+01
 ****
     52 0
 S   3 1.00       0.000000000000
      0.1873113696D+02  0.3349460434D-01
      0.2825394365D+01  0.2347269535D+00
      0.6401216923D+00  0.8137573261D+00
 S   1 1.00       0.000000000000
      0.1612777588D+00  0.1000000000D+01
 ****
     53 0
 S   6 1.00       0.000000000000
      0.5484671660D+04  0.1831074430D-02
      0.8252349460D+03  0.1395017220D-01
      0.1880469580D+03  0.6844507810D-01
      0.5296450000D+02  0.2327143360D+00
      0.1689757040D+02  0.4701928980D+00
      0.5799635340D+01  0.3585208530D+00
 SP   3 1.00       0.000000000000
      0.1553961625D+02 -0.1107775495D+00  0.7087426823D-01
      0.3599933586D+01 -0.1480262627D+00  0.3397528391D+00
      0.1013761750D+01  0.1130767015D+01  0.7271585773D+00
 SP   1 1.00       0.000000000000
      0.2700058226D+00  0.1000000000D+01  0.1000000000D+01
 D   1 1.00       0.000000000000
      0.8000000000D+00  0.1000000000D+01
 ****
     54 0
 S   6 1.00       0.000000000000
      0.5484671660D+04  0.1831074430D-02
      0.8252349460D+03  0.1395017220D-01
      0.1880469580D+03  0.6844507810D-01
      0.5296450000D+02  0.2327143360D+00
      0.1689757040D+02  0.4701928980D+00
      0.5799635340D+01  0.3585208530D+00
 SP   3 1.00       0.000000000000
      0.1553961625D+02 -0.1107775495D+00  0.7087426823D-01
      0.3599933586D+01 -0.1480262627D+00  0.3397528391D+00
      0.1013761750D+01  0.1130767015D+01  0.7271585773D+00
 SP   1 1.00       0.000000000000
      0.2700058226D+00  0.1000000000D+01  0.1000000000D+01
 D   1 1.00       0.000000000000
      0.8000000000D+00  0.1000000000D+01
 ****
     55 0
 S   3 1.00       0.000000000000
      0.1873113696D+02  0.3349460434D-01
      0.2825394365D+01  0.2347269535D+00
      0.6401216923D+00  0.8137573261D+00
 S   1 1.00       0.000000000000
      0.1612777588D+00  0.1000000000D+01
 ****
     56 0
 S   6 1.00       0.000000000000
      0.5484671660D+04  0.1831074430D-02
      0.8252349460D+03  0.1395017220D-01
      0.1880469580D+03  0.6844507810D-01
      0.5296450000D+02  0.2327143360D+00
      0.1689757040D+02  0.4701928980D+00
      0.5799635340D+01  0.3585208530D+00
 SP   3 1.00       0.000000000000
      0.1553961625D+02 -0.1107775495D+00  0.7087426823D-01
      0.3599933586D+01 -0.1480262627D+00  0.3397528391D+00
      0.1013761750D+01  0.1130767015D+01  0.7271585773D+00
 SP   1 1.00       0.000000000000
      0.2700058226D+00  0.1000000000D+01  0.1000000000D+01
 D   1 1.00       0.000000000000
      0.8000000000D+00  0.1000000000D+01
 ****
     57 0
 S   3 1.00       0.000000000000
      0.1873113696D+02  0.3349460434D-01
      0.2825394365D+01  0.2347269535D+00
      0.6401216923D+00  0.8137573261D+00
 S   1 1.00       0.000000000000
      0.1612777588D+00  0.1000000000D+01
 ****
     58 0
 S   6 1.00       0.000000000000
      0.3047524880D+04  0.1834737132D-02
      0.4573695180D+03  0.1403732281D-01
      0.1039486850D+03  0.6884262226D-01
      0.2921015530D+02  0.2321844432D+00
      0.9286662960D+01  0.4679413484D+00
      0.3163926960D+01  0.3623119853D+00
 SP   3 1.00       0.000000000000
      0.7868272350D+01 -0.1193324198D+00  0.6899906659D-01
      0.1881288540D+01 -0.1608541517D+00  0.3164239610D+00
      0.5442492580D+00  0.1143456438D+01  0.7443082909D+00
 SP   1 1.00       0.000000000000
      0.1687144782D+00  0.1000000000D+01  0.1000000000D+01
 D   1 1.00       0.000000000000
      0.8000000000D+00  0.1000000000D+01
 ****
     59 0
 S   3 1.00       0.000000000000
      0.1873113696D+02  0.3349460434D-01
      0.2825394365D+01  0.2347269535D+00
      0.6401216923D+00  0.8137573261D+00
 S   1 1.00       0.000000000000
      0.1612777588D+00  0.1000000000D+01
 ****
     60 0
 S   3 1.00       0.000000000000
      0.1873113696D+02  0.3349460434D-01
      0.2825394365D+01  0.2347269535D+00
      0.6401216923D+00  0.8137573261D+00
 S   1 1.00       0.000000000000
      0.1612777588D+00  0.1000000000D+01
 ****
     61 0
 S   6 1.00       0.000000000000
      0.3047524880D+04  0.1834737132D-02
      0.4573695180D+03  0.1403732281D-01
      0.1039486850D+03  0.6884262226D-01
      0.2921015530D+02  0.2321844432D+00
      0.9286662960D+01  0.4679413484D+00
      0.3163926960D+01  0.3623119853D+00
 SP   3 1.00       0.000000000000
      0.7868272350D+01 -0.1193324198D+00  0.6899906659D-01
      0.1881288540D+01 -0.1608541517D+00  0.3164239610D+00
      0.5442492580D+00  0.1143456438D+01  0.7443082909D+00
 SP   1 1.00       0.000000000000
      0.1687144782D+00  0.1000000000D+01  0.1000000000D+01
 D   1 1.00       0.000000000000
      0.8000000000D+00  0.1000000000D+01
 ****
     62 0
 S   3 1.00       0.000000000000
      0.1873113696D+02  0.3349460434D-01
      0.2825394365D+01  0.2347269535D+00
      0.6401216923D+00  0.8137573261D+00
 S   1 1.00       0.000000000000
      0.1612777588D+00  0.1000000000D+01
 ****
     63 0
 S   3 1.00       0.000000000000
      0.1873113696D+02  0.3349460434D-01
      0.2825394365D+01  0.2347269535D+00
      0.6401216923D+00  0.8137573261D+00
 S   1 1.00       0.000000000000
      0.1612777588D+00  0.1000000000D+01
 ****
     64 0
 S   6 1.00       0.000000000000
      0.3047524880D+04  0.1834737132D-02
      0.4573695180D+03  0.1403732281D-01
      0.1039486850D+03  0.6884262226D-01
      0.2921015530D+02  0.2321844432D+00
      0.9286662960D+01  0.4679413484D+00
      0.3163926960D+01  0.3623119853D+00
 SP   3 1.00       0.000000000000
      0.7868272350D+01 -0.1193324198D+00  0.6899906659D-01
      0.1881288540D+01 -0.1608541517D+00  0.3164239610D+00
      0.5442492580D+00  0.1143456438D+01  0.7443082909D+00
 SP   1 1.00       0.000000000000
      0.1687144782D+00  0.1000000000D+01  0.1000000000D+01
 D   1 1.00       0.000000000000
      0.8000000000D+00  0.1000000000D+01
 ****
     65 0
 S   3 1.00       0.000000000000
      0.1873113696D+02  0.3349460434D-01
      0.2825394365D+01  0.2347269535D+00
      0.6401216923D+00  0.8137573261D+00
 S   1 1.00       0.000000000000
      0.1612777588D+00  0.1000000000D+01
 ****
     66 0
 S   3 1.00       0.000000000000
      0.1873113696D+02  0.3349460434D-01
      0.2825394365D+01  0.2347269535D+00
      0.6401216923D+00  0.8137573261D+00
 S   1 1.00       0.000000000000
      0.1612777588D+00  0.1000000000D+01
 ****
     67 0
 S   6 1.00       0.000000000000
      0.3047524880D+04  0.1834737132D-02
      0.4573695180D+03  0.1403732281D-01
      0.1039486850D+03  0.6884262226D-01
      0.2921015530D+02  0.2321844432D+00
      0.9286662960D+01  0.4679413484D+00
      0.3163926960D+01  0.3623119853D+00
 SP   3 1.00       0.000000000000
      0.7868272350D+01 -0.1193324198D+00  0.6899906659D-01
      0.1881288540D+01 -0.1608541517D+00  0.3164239610D+00
      0.5442492580D+00  0.1143456438D+01  0.7443082909D+00
 SP   1 1.00       0.000000000000
      0.1687144782D+00  0.1000000000D+01  0.1000000000D+01
 D   1 1.00       0.000000000000
      0.8000000000D+00  0.1000000000D+01
 ****
     68 0
 S   3 1.00       0.000000000000
      0.1873113696D+02  0.3349460434D-01
      0.2825394365D+01  0.2347269535D+00
      0.6401216923D+00  0.8137573261D+00
 S   1 1.00       0.000000000000
      0.1612777588D+00  0.1000000000D+01
 ****
     69 0
 S   6 1.00       0.000000000000
      0.3047524880D+04  0.1834737132D-02
      0.4573695180D+03  0.1403732281D-01
      0.1039486850D+03  0.6884262226D-01
      0.2921015530D+02  0.2321844432D+00
      0.9286662960D+01  0.4679413484D+00
      0.3163926960D+01  0.3623119853D+00
 SP   3 1.00       0.000000000000
      0.7868272350D+01 -0.1193324198D+00  0.6899906659D-01
      0.1881288540D+01 -0.1608541517D+00  0.3164239610D+00
      0.5442492580D+00  0.1143456438D+01  0.7443082909D+00
 SP   1 1.00       0.000000000000
      0.1687144782D+00  0.1000000000D+01  0.1000000000D+01
 D   1 1.00       0.000000000000
      0.8000000000D+00  0.1000000000D+01
 ****
     70 0
 S   3 1.00       0.000000000000
      0.1873113696D+02  0.3349460434D-01
      0.2825394365D+01  0.2347269535D+00
      0.6401216923D+00  0.8137573261D+00
 S   1 1.00       0.000000000000
      0.1612777588D+00  0.1000000000D+01
 ****
     71 0
 S   3 1.00       0.000000000000
      0.1873113696D+02  0.3349460434D-01
      0.2825394365D+01  0.2347269535D+00
      0.6401216923D+00  0.8137573261D+00
 S   1 1.00       0.000000000000
      0.1612777588D+00  0.1000000000D+01
 ****
     72 0
 S   3 1.00       0.000000000000
      0.1873113696D+02  0.3349460434D-01
      0.2825394365D+01  0.2347269535D+00
      0.6401216923D+00  0.8137573261D+00
 S   1 1.00       0.000000000000
      0.1612777588D+00  0.1000000000D+01
 ****
     73 0
 S   6 1.00       0.000000000000
      0.3047524880D+04  0.1834737132D-02
      0.4573695180D+03  0.1403732281D-01
      0.1039486850D+03  0.6884262226D-01
      0.2921015530D+02  0.2321844432D+00
      0.9286662960D+01  0.4679413484D+00
      0.3163926960D+01  0.3623119853D+00
 SP   3 1.00       0.000000000000
      0.7868272350D+01 -0.1193324198D+00  0.6899906659D-01
      0.1881288540D+01 -0.1608541517D+00  0.3164239610D+00
      0.5442492580D+00  0.1143456438D+01  0.7443082909D+00
 SP   1 1.00       0.000000000000
      0.1687144782D+00  0.1000000000D+01  0.1000000000D+01
 D   1 1.00       0.000000000000
      0.8000000000D+00  0.1000000000D+01
 ****
     74 0
 S   3 1.00       0.000000000000
      0.1873113696D+02  0.3349460434D-01
      0.2825394365D+01  0.2347269535D+00
      0.6401216923D+00  0.8137573261D+00
 S   1 1.00       0.000000000000
      0.1612777588D+00  0.1000000000D+01
 ****
     75 0
 S   3 1.00       0.000000000000
      0.1873113696D+02  0.3349460434D-01
      0.2825394365D+01  0.2347269535D+00
      0.6401216923D+00  0.8137573261D+00
 S   1 1.00       0.000000000000
      0.1612777588D+00  0.1000000000D+01
 ****
     76 0
 S   3 1.00       0.000000000000
      0.1873113696D+02  0.3349460434D-01
      0.2825394365D+01  0.2347269535D+00
      0.6401216923D+00  0.8137573261D+00
 S   1 1.00       0.000000000000
      0.1612777588D+00  0.1000000000D+01
 ****

 AO basis set (Overlap normalization):
 Atom C1       Shell     1 S   6     bf    1 -     1          3.322956263905         -2.359669010174         -0.129441874835
      0.3047524880D+04  0.1834737132D-02
      0.4573695180D+03  0.1403732281D-01
      0.1039486850D+03  0.6884262226D-01
      0.2921015530D+02  0.2321844432D+00
      0.9286662960D+01  0.4679413484D+00
      0.3163926960D+01  0.3623119853D+00
 Atom C1       Shell     2 SP   3    bf    2 -     5          3.322956263905         -2.359669010174         -0.129441874835
      0.7868272350D+01 -0.1193324198D+00  0.6899906659D-01
      0.1881288540D+01 -0.1608541517D+00  0.3164239610D+00
      0.5442492580D+00  0.1143456438D+01  0.7443082909D+00
 Atom C1       Shell     3 SP   1    bf    6 -     9          3.322956263905         -2.359669010174         -0.129441874835
      0.1687144782D+00  0.1000000000D+01  0.1000000000D+01
 Atom C1       Shell     4 D   1     bf   10 -    15          3.322956263905         -2.359669010174         -0.129441874835
      0.8000000000D+00  0.1000000000D+01
 Atom H2       Shell     5 S   3     bf   16 -    16          3.536039911820         -2.132844917882         -2.178755360746
      0.1873113696D+02  0.3349460434D-01
      0.2825394365D+01  0.2347269535D+00
      0.6401216923D+00  0.8137573261D+00
 Atom H2       Shell     6 S   1     bf   17 -    17          3.536039911820         -2.132844917882         -2.178755360746
      0.1612777588D+00  0.1000000000D+01
 Atom C3       Shell     7 S   6     bf   18 -    18          5.954291736025         -2.473372433192          1.087632820645
      0.3047524880D+04  0.1834737132D-02
      0.4573695180D+03  0.1403732281D-01
      0.1039486850D+03  0.6884262226D-01
      0.2921015530D+02  0.2321844432D+00
      0.9286662960D+01  0.4679413484D+00
      0.3163926960D+01  0.3623119853D+00
 Atom C3       Shell     8 SP   3    bf   19 -    22          5.954291736025         -2.473372433192          1.087632820645
      0.7868272350D+01 -0.1193324198D+00  0.6899906659D-01
      0.1881288540D+01 -0.1608541517D+00  0.3164239610D+00
      0.5442492580D+00  0.1143456438D+01  0.7443082909D+00
 Atom C3       Shell     9 SP   1    bf   23 -    26          5.954291736025         -2.473372433192          1.087632820645
      0.1687144782D+00  0.1000000000D+01  0.1000000000D+01
 Atom C3       Shell    10 D   1     bf   27 -    32          5.954291736025         -2.473372433192          1.087632820645
      0.8000000000D+00  0.1000000000D+01
 Atom H4       Shell    11 S   3     bf   33 -    33          7.044263943136         -4.022550981876          0.256607971386
      0.1873113696D+02  0.3349460434D-01
      0.2825394365D+01  0.2347269535D+00
      0.6401216923D+00  0.8137573261D+00
 Atom H4       Shell    12 S   1     bf   34 -    34          7.044263943136         -4.022550981876          0.256607971386
      0.1612777588D+00  0.1000000000D+01
 Atom H5       Shell    13 S   3     bf   35 -    35          5.694170669271         -2.938040442336          3.101237474631
      0.1873113696D+02  0.3349460434D-01
      0.2825394365D+01  0.2347269535D+00
      0.6401216923D+00  0.8137573261D+00
 Atom H5       Shell    14 S   1     bf   36 -    36          5.694170669271         -2.938040442336          3.101237474631
      0.1612777588D+00  0.1000000000D+01
 Atom C6       Shell    15 S   6     bf   37 -    37          7.396692216638         -0.007132336652          0.857644948862
      0.3047524880D+04  0.1834737132D-02
      0.4573695180D+03  0.1403732281D-01
      0.1039486850D+03  0.6884262226D-01
      0.2921015530D+02  0.2321844432D+00
      0.9286662960D+01  0.4679413484D+00
      0.3163926960D+01  0.3623119853D+00
 Atom C6       Shell    16 SP   3    bf   38 -    41          7.396692216638         -0.007132336652          0.857644948862
      0.7868272350D+01 -0.1193324198D+00  0.6899906659D-01
      0.1881288540D+01 -0.1608541517D+00  0.3164239610D+00
      0.5442492580D+00  0.1143456438D+01  0.7443082909D+00
 Atom C6       Shell    17 SP   1    bf   42 -    45          7.396692216638         -0.007132336652          0.857644948862
      0.1687144782D+00  0.1000000000D+01  0.1000000000D+01
 Atom C6       Shell    18 D   1     bf   46 -    51          7.396692216638         -0.007132336652          0.857644948862
      0.8000000000D+00  0.1000000000D+01
 Atom C7       Shell    19 S   6     bf   52 -    52          6.029281775950          2.416189282616          1.661295622203
      0.3047524880D+04  0.1834737132D-02
      0.4573695180D+03  0.1403732281D-01
      0.1039486850D+03  0.6884262226D-01
      0.2921015530D+02  0.2321844432D+00
      0.9286662960D+01  0.4679413484D+00
      0.3163926960D+01  0.3623119853D+00
 Atom C7       Shell    20 SP   3    bf   53 -    56          6.029281775950          2.416189282616          1.661295622203
      0.7868272350D+01 -0.1193324198D+00  0.6899906659D-01
      0.1881288540D+01 -0.1608541517D+00  0.3164239610D+00
      0.5442492580D+00  0.1143456438D+01  0.7443082909D+00
 Atom C7       Shell    21 SP   1    bf   57 -    60          6.029281775950          2.416189282616          1.661295622203
      0.1687144782D+00  0.1000000000D+01  0.1000000000D+01
 Atom C7       Shell    22 D   1     bf   61 -    66          6.029281775950          2.416189282616          1.661295622203
      0.8000000000D+00  0.1000000000D+01
 Atom C8       Shell    23 S   6     bf   67 -    67          3.304406296445          2.369736393866          0.533965324684
      0.3047524880D+04  0.1834737132D-02
      0.4573695180D+03  0.1403732281D-01
      0.1039486850D+03  0.6884262226D-01
      0.2921015530D+02  0.2321844432D+00
      0.9286662960D+01  0.4679413484D+00
      0.3163926960D+01  0.3623119853D+00
 Atom C8       Shell    24 SP   3    bf   68 -    71          3.304406296445          2.369736393866          0.533965324684
      0.7868272350D+01 -0.1193324198D+00  0.6899906659D-01
      0.1881288540D+01 -0.1608541517D+00  0.3164239610D+00
      0.5442492580D+00  0.1143456438D+01  0.7443082909D+00
 Atom C8       Shell    25 SP   1    bf   72 -    75          3.304406296445          2.369736393866          0.533965324684
      0.1687144782D+00  0.1000000000D+01  0.1000000000D+01
 Atom C8       Shell    26 D   1     bf   76 -    81          3.304406296445          2.369736393866          0.533965324684
      0.8000000000D+00  0.1000000000D+01
 Atom H9       Shell    27 S   3     bf   82 -    82          3.438596032600          2.728293162600         -1.507049391120
      0.1873113696D+02  0.3349460434D-01
      0.2825394365D+01  0.2347269535D+00
      0.6401216923D+00  0.8137573261D+00
 Atom H9       Shell    28 S   1     bf   83 -    83          3.438596032600          2.728293162600         -1.507049391120
      0.1612777588D+00  0.1000000000D+01
 Atom H10      Shell    29 S   3     bf   84 -    84          2.204968942463          3.930739979415          1.331306391440
      0.1873113696D+02  0.3349460434D-01
      0.2825394365D+01  0.2347269535D+00
      0.6401216923D+00  0.8137573261D+00
 Atom H10      Shell    30 S   1     bf   85 -    85          2.204968942463          3.930739979415          1.331306391440
      0.1612777588D+00  0.1000000000D+01
 Atom C11      Shell    31 S   6     bf   86 -    86          1.849309709705         -0.111987173745          0.925487345354
      0.3047524880D+04  0.1834737132D-02
      0.4573695180D+03  0.1403732281D-01
      0.1039486850D+03  0.6884262226D-01
      0.2921015530D+02  0.2321844432D+00
      0.9286662960D+01  0.4679413484D+00
      0.3163926960D+01  0.3623119853D+00
 Atom C11      Shell    32 SP   3    bf   87 -    90          1.849309709705         -0.111987173745          0.925487345354
      0.7868272350D+01 -0.1193324198D+00  0.6899906659D-01
      0.1881288540D+01 -0.1608541517D+00  0.3164239610D+00
      0.5442492580D+00  0.1143456438D+01  0.7443082909D+00
 Atom C11      Shell    33 SP   1    bf   91 -    94          1.849309709705         -0.111987173745          0.925487345354
      0.1687144782D+00  0.1000000000D+01  0.1000000000D+01
 Atom C11      Shell    34 D   1     bf   95 -   100          1.849309709705         -0.111987173745          0.925487345354
      0.8000000000D+00  0.1000000000D+01
 Atom H12      Shell    35 S   3     bf  101 -   101          1.484605132737         -0.430471997475          2.947371645419
      0.1873113696D+02  0.3349460434D-01
      0.2825394365D+01  0.2347269535D+00
      0.6401216923D+00  0.8137573261D+00
 Atom H12      Shell    36 S   1     bf  102 -   102          1.484605132737         -0.430471997475          2.947371645419
      0.1612777588D+00  0.1000000000D+01
 Atom H13      Shell    37 S   3     bf  103 -   103          0.000000000000          0.000000000000          0.000000000000
      0.1873113696D+02  0.3349460434D-01
      0.2825394365D+01  0.2347269535D+00
      0.6401216923D+00  0.8137573261D+00
 Atom H13      Shell    38 S   1     bf  104 -   104          0.000000000000          0.000000000000          0.000000000000
      0.1612777588D+00  0.1000000000D+01
 Atom C14      Shell    39 S   6     bf  105 -   105          9.778891656707          0.000000000000          0.000000000000
      0.3047524880D+04  0.1834737132D-02
      0.4573695180D+03  0.1403732281D-01
      0.1039486850D+03  0.6884262226D-01
      0.2921015530D+02  0.2321844432D+00
      0.9286662960D+01  0.4679413484D+00
      0.3163926960D+01  0.3623119853D+00
 Atom C14      Shell    40 SP   3    bf  106 -   109          9.778891656707          0.000000000000          0.000000000000
      0.7868272350D+01 -0.1193324198D+00  0.6899906659D-01
      0.1881288540D+01 -0.1608541517D+00  0.3164239610D+00
      0.5442492580D+00  0.1143456438D+01  0.7443082909D+00
 Atom C14      Shell    41 SP   1    bf  110 -   113          9.778891656707          0.000000000000          0.000000000000
      0.1687144782D+00  0.1000000000D+01  0.1000000000D+01
 Atom C14      Shell    42 D   1     bf  114 -   119          9.778891656707          0.000000000000          0.000000000000
      0.8000000000D+00  0.1000000000D+01
 Atom H15      Shell    43 S   3     bf  120 -   120         10.648706158405         -1.770145321443         -0.597530628431
      0.1873113696D+02  0.3349460434D-01
      0.2825394365D+01  0.2347269535D+00
      0.6401216923D+00  0.8137573261D+00
 Atom H15      Shell    44 S   1     bf  121 -   121         10.648706158405         -1.770145321443         -0.597530628431
      0.1612777588D+00  0.1000000000D+01
 Atom C16      Shell    45 S   6     bf  122 -   122         11.450387019020          2.280992209049         -0.205564597708
      0.3047524880D+04  0.1834737132D-02
      0.4573695180D+03  0.1403732281D-01
      0.1039486850D+03  0.6884262226D-01
      0.2921015530D+02  0.2321844432D+00
      0.9286662960D+01  0.4679413484D+00
      0.3163926960D+01  0.3623119853D+00
 Atom C16      Shell    46 SP   3    bf  123 -   126         11.450387019020          2.280992209049         -0.205564597708
      0.7868272350D+01 -0.1193324198D+00  0.6899906659D-01
      0.1881288540D+01 -0.1608541517D+00  0.3164239610D+00
      0.5442492580D+00  0.1143456438D+01  0.7443082909D+00
 Atom C16      Shell    47 SP   1    bf  127 -   130         11.450387019020          2.280992209049         -0.205564597708
      0.1687144782D+00  0.1000000000D+01  0.1000000000D+01
 Atom C16      Shell    48 D   1     bf  131 -   136         11.450387019020          2.280992209049         -0.205564597708
      0.8000000000D+00  0.1000000000D+01
 Atom H17      Shell    49 S   3     bf  137 -   137         11.886431913347          2.639418794550         -2.210521127916
      0.1873113696D+02  0.3349460434D-01
      0.2825394365D+01  0.2347269535D+00
      0.6401216923D+00  0.8137573261D+00
 Atom H17      Shell    50 S   1     bf  138 -   138         11.886431913347          2.639418794550         -2.210521127916
      0.1612777588D+00  0.1000000000D+01
 Atom C18      Shell    51 S   6     bf  139 -   139         10.360701256595          4.683666038082          1.005978888279
      0.3047524880D+04  0.1834737132D-02
      0.4573695180D+03  0.1403732281D-01
      0.1039486850D+03  0.6884262226D-01
      0.2921015530D+02  0.2321844432D+00
      0.9286662960D+01  0.4679413484D+00
      0.3163926960D+01  0.3623119853D+00
 Atom C18      Shell    52 SP   3    bf  140 -   143         10.360701256595          4.683666038082          1.005978888279
      0.7868272350D+01 -0.1193324198D+00  0.6899906659D-01
      0.1881288540D+01 -0.1608541517D+00  0.3164239610D+00
      0.5442492580D+00  0.1143456438D+01  0.7443082909D+00
 Atom C18      Shell    53 SP   1    bf  144 -   147         10.360701256595          4.683666038082          1.005978888279
      0.1687144782D+00  0.1000000000D+01  0.1000000000D+01
 Atom C18      Shell    54 D   1     bf  148 -   153         10.360701256595          4.683666038082          1.005978888279
      0.8000000000D+00  0.1000000000D+01
 Atom H19      Shell    55 S   3     bf  154 -   154         10.758370216225          4.560284307085          3.033767240803
      0.1873113696D+02  0.3349460434D-01
      0.2825394365D+01  0.2347269535D+00
      0.6401216923D+00  0.8137573261D+00
 Atom H19      Shell    56 S   1     bf  155 -   155         10.758370216225          4.560284307085          3.033767240803
      0.1612777588D+00  0.1000000000D+01
 Atom C20      Shell    57 S   6     bf  156 -   156          7.456578015735          4.778699533825          0.579041226693
      0.3047524880D+04  0.1834737132D-02
      0.4573695180D+03  0.1403732281D-01
      0.1039486850D+03  0.6884262226D-01
      0.2921015530D+02  0.2321844432D+00
      0.9286662960D+01  0.4679413484D+00
      0.3163926960D+01  0.3623119853D+00
 Atom C20      Shell    58 SP   3    bf  157 -   160          7.456578015735          4.778699533825          0.579041226693
      0.7868272350D+01 -0.1193324198D+00  0.6899906659D-01
      0.1881288540D+01 -0.1608541517D+00  0.3164239610D+00
      0.5442492580D+00  0.1143456438D+01  0.7443082909D+00
 Atom C20      Shell    59 SP   1    bf  161 -   164          7.456578015735          4.778699533825          0.579041226693
      0.1687144782D+00  0.1000000000D+01  0.1000000000D+01
 Atom C20      Shell    60 D   1     bf  165 -   170          7.456578015735          4.778699533825          0.579041226693
      0.8000000000D+00  0.1000000000D+01
 Atom H21      Shell    61 S   3     bf  171 -   171          7.178736174451          4.697425077364         -1.484655512835
      0.1873113696D+02  0.3349460434D-01
      0.2825394365D+01  0.2347269535D+00
      0.6401216923D+00  0.8137573261D+00
 Atom H21      Shell    62 S   1     bf  172 -   172          7.178736174451          4.697425077364         -1.484655512835
      0.1612777588D+00  0.1000000000D+01
 Atom C22      Shell    63 S   6     bf  173 -   173          6.331081376174          7.320612881878          1.475172791512
      0.3047524880D+04  0.1834737132D-02
      0.4573695180D+03  0.1403732281D-01
      0.1039486850D+03  0.6884262226D-01
      0.2921015530D+02  0.2321844432D+00
      0.9286662960D+01  0.4679413484D+00
      0.3163926960D+01  0.3623119853D+00
 Atom C22      Shell    64 SP   3    bf  174 -   177          6.331081376174          7.320612881878          1.475172791512
      0.7868272350D+01 -0.1193324198D+00  0.6899906659D-01
      0.1881288540D+01 -0.1608541517D+00  0.3164239610D+00
      0.5442492580D+00  0.1143456438D+01  0.7443082909D+00
 Atom C22      Shell    65 SP   1    bf  178 -   181          6.331081376174          7.320612881878          1.475172791512
      0.1687144782D+00  0.1000000000D+01  0.1000000000D+01
 Atom C22      Shell    66 D   1     bf  182 -   187          6.331081376174          7.320612881878          1.475172791512
      0.8000000000D+00  0.1000000000D+01
 Atom H23      Shell    67 S   3     bf  188 -   188          6.362109035214          7.408762653339          3.543175083061
      0.1873113696D+02  0.3349460434D-01
      0.2825394365D+01  0.2347269535D+00
      0.6401216923D+00  0.8137573261D+00
 Atom H23      Shell    68 S   1     bf  189 -   189          6.362109035214          7.408762653339          3.543175083061
      0.1612777588D+00  0.1000000000D+01
 Atom H24      Shell    69 S   3     bf  190 -   190          4.337156311239          7.428598825097          0.928833275548
      0.1873113696D+02  0.3349460434D-01
      0.2825394365D+01  0.2347269535D+00
      0.6401216923D+00  0.8137573261D+00
 Atom H24      Shell    70 S   1     bf  191 -   191          4.337156311239          7.428598825097          0.928833275548
      0.1612777588D+00  0.1000000000D+01
 Atom C25      Shell    71 S   6     bf  192 -   192          7.698343473361          9.665351373745          0.419816134168
      0.3047524880D+04  0.1834737132D-02
      0.4573695180D+03  0.1403732281D-01
      0.1039486850D+03  0.6884262226D-01
      0.2921015530D+02  0.2321844432D+00
      0.9286662960D+01  0.4679413484D+00
      0.3163926960D+01  0.3623119853D+00
 Atom C25      Shell    72 SP   3    bf  193 -   196          7.698343473361          9.665351373745          0.419816134168
      0.7868272350D+01 -0.1193324198D+00  0.6899906659D-01
      0.1881288540D+01 -0.1608541517D+00  0.3164239610D+00
      0.5442492580D+00  0.1143456438D+01  0.7443082909D+00
 Atom C25      Shell    73 SP   1    bf  197 -   200          7.698343473361          9.665351373745          0.419816134168
      0.1687144782D+00  0.1000000000D+01  0.1000000000D+01
 Atom C25      Shell    74 D   1     bf  201 -   206          7.698343473361          9.665351373745          0.419816134168
      0.8000000000D+00  0.1000000000D+01
 Atom H26      Shell    75 S   3     bf  207 -   207          7.435513843244          9.747891644360         -1.640002112548
      0.1873113696D+02  0.3349460434D-01
      0.2825394365D+01  0.2347269535D+00
      0.6401216923D+00  0.8137573261D+00
 Atom H26      Shell    76 S   1     bf  208 -   208          7.435513843244          9.747891644360         -1.640002112548
      0.1612777588D+00  0.1000000000D+01
 Atom H27      Shell    77 S   3     bf  209 -   209          6.789905558431         11.354074159787          1.194304969566
      0.1873113696D+02  0.3349460434D-01
      0.2825394365D+01  0.2347269535D+00
      0.6401216923D+00  0.8137573261D+00
 Atom H27      Shell    78 S   1     bf  210 -   210          6.789905558431         11.354074159787          1.194304969566
      0.1612777588D+00  0.1000000000D+01
 Atom C28      Shell    79 S   6     bf  211 -   211         10.554357329337          9.611116082553          0.993385998994
      0.3047524880D+04  0.1834737132D-02
      0.4573695180D+03  0.1403732281D-01
      0.1039486850D+03  0.6884262226D-01
      0.2921015530D+02  0.2321844432D+00
      0.9286662960D+01  0.4679413484D+00
      0.3163926960D+01  0.3623119853D+00
 Atom C28      Shell    80 SP   3    bf  212 -   215         10.554357329337          9.611116082553          0.993385998994
      0.7868272350D+01 -0.1193324198D+00  0.6899906659D-01
      0.1881288540D+01 -0.1608541517D+00  0.3164239610D+00
      0.5442492580D+00  0.1143456438D+01  0.7443082909D+00
 Atom C28      Shell    81 SP   1    bf  216 -   219         10.554357329337          9.611116082553          0.993385998994
      0.1687144782D+00  0.1000000000D+01  0.1000000000D+01
 Atom C28      Shell    82 D   1     bf  220 -   225         10.554357329337          9.611116082553          0.993385998994
      0.8000000000D+00  0.1000000000D+01
 Atom C29      Shell    83 S   6     bf  226 -   226         11.584368601841          7.080503013317         -0.097040762842
      0.3047524880D+04  0.1834737132D-02
      0.4573695180D+03  0.1403732281D-01
      0.1039486850D+03  0.6884262226D-01
      0.2921015530D+02  0.2321844432D+00
      0.9286662960D+01  0.4679413484D+00
      0.3163926960D+01  0.3623119853D+00
 Atom C29      Shell    84 SP   3    bf  227 -   230         11.584368601841          7.080503013317         -0.097040762842
      0.7868272350D+01 -0.1193324198D+00  0.6899906659D-01
      0.1881288540D+01 -0.1608541517D+00  0.3164239610D+00
      0.5442492580D+00  0.1143456438D+01  0.7443082909D+00
 Atom C29      Shell    85 SP   1    bf  231 -   234         11.584368601841          7.080503013317         -0.097040762842
      0.1687144782D+00  0.1000000000D+01  0.1000000000D+01
 Atom C29      Shell    86 D   1     bf  235 -   240         11.584368601841          7.080503013317         -0.097040762842
      0.8000000000D+00  0.1000000000D+01
 Atom H30      Shell    87 S   3     bf  241 -   241         11.053824267273          7.107059466943         -2.115487764454
      0.1873113696D+02  0.3349460434D-01
      0.2825394365D+01  0.2347269535D+00
      0.6401216923D+00  0.8137573261D+00
 Atom H30      Shell    88 S   1     bf  242 -   242         11.053824267273          7.107059466943         -2.115487764454
      0.1612777588D+00  0.1000000000D+01
 Atom C31      Shell    89 S   6     bf  243 -   243         14.470655983850          7.389591136057          0.000000000000
      0.3047524880D+04  0.1834737132D-02
      0.4573695180D+03  0.1403732281D-01
      0.1039486850D+03  0.6884262226D-01
      0.2921015530D+02  0.2321844432D+00
      0.9286662960D+01  0.4679413484D+00
      0.3163926960D+01  0.3623119853D+00
 Atom C31      Shell    90 SP   3    bf  244 -   247         14.470655983850          7.389591136057          0.000000000000
      0.7868272350D+01 -0.1193324198D+00  0.6899906659D-01
      0.1881288540D+01 -0.1608541517D+00  0.3164239610D+00
      0.5442492580D+00  0.1143456438D+01  0.7443082909D+00
 Atom C31      Shell    91 SP   1    bf  248 -   251         14.470655983850          7.389591136057          0.000000000000
      0.1687144782D+00  0.1000000000D+01  0.1000000000D+01
 Atom C31      Shell    92 D   1     bf  252 -   257         14.470655983850          7.389591136057          0.000000000000
      0.8000000000D+00  0.1000000000D+01
 Atom H32      Shell    93 S   3     bf  258 -   258         15.444644038576          6.156833225454         -1.340759066118
      0.1873113696D+02  0.3349460434D-01
      0.2825394365D+01  0.2347269535D+00
      0.6401216923D+00  0.8137573261D+00
 Atom H32      Shell    94 S   1     bf  259 -   259         15.444644038576          6.156833225454         -1.340759066118
      0.1612777588D+00  0.1000000000D+01
 Atom H33      Shell    95 S   3     bf  260 -   260         15.195874934648          6.890338814318          1.872108915347
      0.1873113696D+02  0.3349460434D-01
      0.2825394365D+01  0.2347269535D+00
      0.6401216923D+00  0.8137573261D+00
 Atom H33      Shell    96 S   1     bf  261 -   261         15.195874934648          6.890338814318          1.872108915347
      0.1612777588D+00  0.1000000000D+01
 Atom C34      Shell    97 S   6     bf  262 -   262         14.880776330073         10.233886346749         -0.588210196787
      0.3047524880D+04  0.1834737132D-02
      0.4573695180D+03  0.1403732281D-01
      0.1039486850D+03  0.6884262226D-01
      0.2921015530D+02  0.2321844432D+00
      0.9286662960D+01  0.4679413484D+00
      0.3163926960D+01  0.3623119853D+00
 Atom C34      Shell    98 SP   3    bf  263 -   266         14.880776330073         10.233886346749         -0.588210196787
      0.7868272350D+01 -0.1193324198D+00  0.6899906659D-01
      0.1881288540D+01 -0.1608541517D+00  0.3164239610D+00
      0.5442492580D+00  0.1143456438D+01  0.7443082909D+00
 Atom C34      Shell    99 SP   1    bf  267 -   270         14.880776330073         10.233886346749         -0.588210196787
      0.1687144782D+00  0.1000000000D+01  0.1000000000D+01
 Atom C34      Shell   100 D   1     bf  271 -   276         14.880776330073         10.233886346749         -0.588210196787
      0.8000000000D+00  0.1000000000D+01
 Atom H35      Shell   101 S   3     bf  277 -   277         16.154512687305         11.096478296271          0.800580643163
      0.1873113696D+02  0.3349460434D-01
      0.2825394365D+01  0.2347269535D+00
      0.6401216923D+00  0.8137573261D+00
 Atom H35      Shell   102 S   1     bf  278 -   278         16.154512687305         11.096478296271          0.800580643163
      0.1612777588D+00  0.1000000000D+01
 Atom H36      Shell   103 S   3     bf  279 -   279         15.774634384278         10.493225331445         -2.434764818071
      0.1873113696D+02  0.3349460434D-01
      0.2825394365D+01  0.2347269535D+00
      0.6401216923D+00  0.8137573261D+00
 Atom H36      Shell   104 S   1     bf  280 -   280         15.774634384278         10.493225331445         -2.434764818071
      0.1612777588D+00  0.1000000000D+01
 Atom C37      Shell   105 S   6     bf  281 -   281         12.227522453661         11.544561464160         -0.507516698831
      0.3047524880D+04  0.1834737132D-02
      0.4573695180D+03  0.1403732281D-01
      0.1039486850D+03  0.6884262226D-01
      0.2921015530D+02  0.2321844432D+00
      0.9286662960D+01  0.4679413484D+00
      0.3163926960D+01  0.3623119853D+00
 Atom C37      Shell   106 SP   3    bf  282 -   285         12.227522453661         11.544561464160         -0.507516698831
      0.7868272350D+01 -0.1193324198D+00  0.6899906659D-01
      0.1881288540D+01 -0.1608541517D+00  0.3164239610D+00
      0.5442492580D+00  0.1143456438D+01  0.7443082909D+00
 Atom C37      Shell   107 SP   1    bf  286 -   289         12.227522453661         11.544561464160         -0.507516698831
      0.1687144782D+00  0.1000000000D+01  0.1000000000D+01
 Atom C37      Shell   108 D   1     bf  290 -   295         12.227522453661         11.544561464160         -0.507516698831
      0.8000000000D+00  0.1000000000D+01
 Atom H38      Shell   109 S   3     bf  296 -   296         11.467491308194         11.577285322480         -2.445919890331
      0.1873113696D+02  0.3349460434D-01
      0.2825394365D+01  0.2347269535D+00
      0.6401216923D+00  0.8137573261D+00
 Atom H38      Shell   110 S   1     bf  297 -   297         11.467491308194         11.577285322480         -2.445919890331
      0.1612777588D+00  0.1000000000D+01
 Atom C39      Shell   111 S   6     bf  298 -   298         11.040484860576          9.862563570918          3.863471946283
      0.3047524880D+04  0.1834737132D-02
      0.4573695180D+03  0.1403732281D-01
      0.1039486850D+03  0.6884262226D-01
[...]
 **** Fit      -0.001768
 **** Fit      -0.001484
 **** Fit      -0.001375
 **** Fit      -0.001114
 **** Fit      -0.000643
 **** Fit       0.000069
 **** Fit       0.000958
 **** Fit       0.001804
 **** Fit       0.002284
 **** Fit       0.002188
 **** Fit       0.001620
 **** Fit       0.000906
 **** Fit       0.000338
 **** Fit       0.000036
 **** Fit      -0.000019
 **** Fit       0.000067
 **** Fit       0.000124
 **** Fit      -0.000014
 **** Fit      -0.000396
 **** Fit      -0.000915
 **** Fit      -0.001403
 **** Fit      -0.001748
 **** Fit      -0.001929
 **** Fit      -0.001976
 **** Fit      -0.001633
 **** Fit      -0.001573
 **** Fit      -0.001368
 **** Fit      -0.000953
 **** Fit      -0.000284
 **** Fit       0.000585
 **** Fit       0.001426
 **** Fit       0.001880
 **** Fit       0.001713
 **** Fit       0.001046
 **** Fit       0.000246
 **** Fit      -0.000389
 **** Fit      -0.000761
 **** Fit      -0.000912
 **** Fit      -0.000941
 **** Fit      -0.000971
 **** Fit      -0.001107
 **** Fit      -0.001376
 **** Fit      -0.001706
 **** Fit      -0.001986
 **** Fit      -0.002152
 **** Fit      -0.002197
 **** Fit      -0.002150
 **** Fit      -0.001789
 **** Fit      -0.001797
 **** Fit      -0.001687
 **** Fit      -0.001399
 **** Fit      -0.000893
 **** Fit      -0.000209
 **** Fit       0.000457
 **** Fit       0.000792
 **** Fit       0.000598
 **** Fit      -0.000010
 **** Fit      -0.000709
 **** Fit      -0.001254
 **** Fit      -0.001587
 **** Fit      -0.001766
 **** Fit      -0.001867
 **** Fit      -0.001955
 **** Fit      -0.002073
 **** Fit      -0.002223
 **** Fit      -0.002366
 **** Fit      -0.002449
 **** Fit      -0.002451
 **** Fit      -0.002377
 **** Fit      -0.002250
 **** Fit      -0.002011
 **** Fit      -0.002013
 **** Fit      -0.001892
 **** Fit      -0.001620
 **** Fit      -0.001226
 **** Fit      -0.000844
 **** Fit      -0.000680
 **** Fit      -0.000856
 **** Fit      -0.001282
 **** Fit      -0.001738
 **** Fit      -0.002075
 **** Fit      -0.002281
 **** Fit      -0.002409
 **** Fit      -0.002509
 **** Fit      -0.002600
 **** Fit      -0.002678
 **** Fit      -0.002729
 **** Fit      -0.002734
 **** Fit      -0.002682
 **** Fit      -0.002573
 **** Fit      -0.002425
 **** Fit      -0.002177
 **** Fit      -0.002279
 **** Fit      -0.002314
 **** Fit      -0.002264
 **** Fit      -0.002147
 **** Fit      -0.002033
 **** Fit      -0.002018
 **** Fit      -0.002149
 **** Fit      -0.002366
 **** Fit      -0.002558
 **** Fit      -0.002669
 **** Fit      -0.002717
 **** Fit      -0.002751
 **** Fit      -0.002796
 **** Fit      -0.002843
 **** Fit      -0.002867
 **** Fit      -0.002849
 **** Fit      -0.002778
 **** Fit      -0.002660
 **** Fit      -0.002507
 **** Fit      -0.002335
 **** Fit      -0.002266
 **** Fit      -0.002437
 **** Fit      -0.002577
 **** Fit      -0.002678
 **** Fit      -0.002743
 **** Fit      -0.002794
 **** Fit      -0.002857
 **** Fit      -0.002932
 **** Fit      -0.002986
 **** Fit      -0.002984
 **** Fit      -0.002925
 **** Fit      -0.002848
 **** Fit      -0.002790
 **** Fit      -0.002763
 **** Fit      -0.002749
 **** Fit      -0.002722
 **** Fit      -0.002661
 **** Fit      -0.002562
 **** Fit      -0.002434
 **** Fit      -0.002287
 **** Fit      -0.002469
 **** Fit      -0.002656
 **** Fit      -0.002821
 **** Fit      -0.002959
 **** Fit      -0.003066
 **** Fit      -0.003135
 **** Fit      -0.003152
 **** Fit      -0.003105
 **** Fit      -0.002995
 **** Fit      -0.002848
 **** Fit      -0.002701
 **** Fit      -0.002584
 **** Fit      -0.002501
 **** Fit      -0.002437
 **** Fit      -0.002372
 **** Fit      -0.002293
 **** Fit      -0.002197
 **** Fit      -0.002089
 **** Fit      -0.001975
 **** Fit      -0.002574
 **** Fit      -0.002738
 **** Fit      -0.002870
 **** Fit      -0.002958
 **** Fit      -0.002988
 **** Fit      -0.002952
 **** Fit      -0.002850
 **** Fit      -0.002699
 **** Fit      -0.002527
 **** Fit      -0.002362
 **** Fit      -0.002223
 **** Fit      -0.002114
 **** Fit      -0.002024
 **** Fit      -0.001942
 **** Fit      -0.001862
 **** Fit      -0.001784
 **** Fit      -0.001708
 **** Fit      -0.001636
 **** Fit      -0.002505
 **** Fit      -0.002593
 **** Fit      -0.002630
 **** Fit      -0.002608
 **** Fit      -0.002528
 **** Fit      -0.002401
 **** Fit      -0.002245
 **** Fit      -0.002083
 **** Fit      -0.001932
 **** Fit      -0.001801
 **** Fit      -0.001599
 **** Fit      -0.001519
 **** Fit      -0.001452
 **** Fit      -0.001396
 **** Fit      -0.001352
 **** Fit      -0.002235
 **** Fit      -0.002219
 **** Fit      -0.002153
 **** Fit      -0.002045
 **** Fit      -0.001909
 **** Fit      -0.001765
 **** Fit      -0.001625
 **** Fit      -0.001500
 **** Fit      -0.001818
 **** Fit      -0.001723
 **** Fit      -0.001602
 **** Fit      -0.001469
 **** Fit      -0.001340
 **** Fit      -0.001225
 **** Fit      -0.001364
 **** Fit      -0.001242
 **** Fit      -0.001119
 **** Fit      -0.001006
 **** Fit       0.000247
 **** Fit       0.000170
 **** Fit       0.000039
 **** Fit      -0.000145
 **** Fit      -0.000364
 **** Fit      -0.000073
 **** Fit       0.000106
 **** Fit       0.000242
 **** Fit       0.000455
 **** Fit       0.000470
 **** Fit       0.000457
 **** Fit       0.000389
 **** Fit       0.000248
 **** Fit       0.000033
 **** Fit      -0.000234
 **** Fit      -0.000514
 **** Fit      -0.000772
 **** Fit      -0.000378
 **** Fit      -0.000118
 **** Fit       0.000127
 **** Fit       0.000324
 **** Fit       0.000454
 **** Fit       0.000520
 **** Fit       0.000545
 **** Fit       0.000558
 **** Fit       0.000577
 **** Fit       0.000602
 **** Fit       0.000609
 **** Fit       0.000555
 **** Fit       0.000408
 **** Fit       0.000162
 **** Fit      -0.000153
 **** Fit      -0.000485
 **** Fit      -0.000784
 **** Fit      -0.000567
 **** Fit      -0.000271
 **** Fit       0.000047
 **** Fit       0.000338
 **** Fit       0.000552
 **** Fit       0.000663
 **** Fit       0.000681
 **** Fit       0.000648
 **** Fit       0.000611
 **** Fit       0.000604
 **** Fit       0.000627
 **** Fit       0.000648
 **** Fit       0.000608
 **** Fit       0.000459
 **** Fit       0.000189
 **** Fit      -0.000164
 **** Fit      -0.000535
 **** Fit      -0.000861
 **** Fit      -0.001111
 **** Fit      -0.000829
 **** Fit      -0.000550
 **** Fit      -0.000199
 **** Fit       0.000182
 **** Fit       0.000524
 **** Fit       0.000753
 **** Fit       0.000832
 **** Fit       0.000780
 **** Fit       0.000661
 **** Fit       0.000550
 **** Fit       0.000493
 **** Fit       0.000494
 **** Fit       0.000513
 **** Fit       0.000480
 **** Fit       0.000332
 **** Fit       0.000053
 **** Fit      -0.000313
 **** Fit      -0.000692
 **** Fit      -0.001016
 **** Fit      -0.001253
 **** Fit      -0.000899
 **** Fit      -0.000595
 **** Fit      -0.000202
 **** Fit       0.000232
 **** Fit       0.000618
 **** Fit       0.000856
 **** Fit       0.000892
 **** Fit       0.000755
 **** Fit       0.000538
 **** Fit       0.000339
 **** Fit       0.000216
 **** Fit       0.000174
 **** Fit       0.000169
 **** Fit       0.000128
 **** Fit      -0.000015
 **** Fit      -0.000279
 **** Fit      -0.000619
 **** Fit      -0.000962
 **** Fit      -0.001245
 **** Fit      -0.001439
 **** Fit      -0.001218
 **** Fit      -0.001029
 **** Fit      -0.000730
 **** Fit      -0.000327
 **** Fit       0.000126
 **** Fit       0.000528
 **** Fit       0.000758
 **** Fit       0.000748
 **** Fit       0.000536
 **** Fit       0.000236
 **** Fit      -0.000037
 **** Fit      -0.000220
 **** Fit      -0.000313
 **** Fit      -0.000357
 **** Fit      -0.000418
 **** Fit      -0.000552
 **** Fit      -0.000775
 **** Fit      -0.001050
 **** Fit      -0.001315
 **** Fit      -0.001520
 **** Fit      -0.001644
 **** Fit      -0.001369
 **** Fit      -0.001221
 **** Fit      -0.000964
 **** Fit      -0.000603
 **** Fit      -0.000187
 **** Fit       0.000182
 **** Fit       0.000377
 **** Fit       0.000328
 **** Fit       0.000079
 **** Fit      -0.000253
 **** Fit      -0.000552
 **** Fit      -0.000763
 **** Fit      -0.000891
 **** Fit      -0.000971
 **** Fit      -0.001050
 **** Fit      -0.001169
 **** Fit      -0.001333
 **** Fit      -0.001517
 **** Fit      -0.001679
 **** Fit      -0.001787
 **** Fit      -0.001832
 **** Fit      -0.001541
 **** Fit      -0.001454
 **** Fit      -0.001276
 **** Fit      -0.001008
 **** Fit      -0.000690
 **** Fit      -0.000411
 **** Fit      -0.000277
 **** Fit      -0.000347
 **** Fit      -0.000580
 **** Fit      -0.000874
 **** Fit      -0.001135
 **** Fit      -0.001325
 **** Fit      -0.001453
 **** Fit      -0.001545
 **** Fit      -0.001628
 **** Fit      -0.001720
 **** Fit      -0.001820
 **** Fit      -0.001911
 **** Fit      -0.001973
 **** Fit      -0.001991
 **** Fit      -0.001963
 **** Fit      -0.001707
 **** Fit      -0.001693
 **** Fit      -0.001612
 **** Fit      -0.001465
 **** Fit      -0.001281
 **** Fit      -0.001122
 **** Fit      -0.001060
 **** Fit      -0.001132
 **** Fit      -0.001306
 **** Fit      -0.001508
 **** Fit      -0.001681
 **** Fit      -0.001808
 **** Fit      -0.001899
 **** Fit      -0.001971
 **** Fit      -0.002036
 **** Fit      -0.002092
 **** Fit      -0.002134
 **** Fit      -0.002151
 **** Fit      -0.002136
 **** Fit      -0.002088
 **** Fit      -0.001894
 **** Fit      -0.001905
 **** Fit      -0.001873
 **** Fit      -0.001817
 **** Fit      -0.001769
 **** Fit      -0.001767
 **** Fit      -0.001826
 **** Fit      -0.001922
 **** Fit      -0.002018
 **** Fit      -0.002088
 **** Fit      -0.002133
 **** Fit      -0.002166
 **** Fit      -0.002198
 **** Fit      -0.002226
 **** Fit      -0.002243
 **** Fit      -0.002239
 **** Fit      -0.002208
 **** Fit      -0.002149
 **** Fit      -0.002023
 **** Fit      -0.002101
 **** Fit      -0.002153
 **** Fit      -0.002185
 **** Fit      -0.002210
 **** Fit      -0.002240
 **** Fit      -0.002275
 **** Fit      -0.002302
 **** Fit      -0.002308
 **** Fit      -0.002291
 **** Fit      -0.002264
 **** Fit      -0.002225
 **** Fit      -0.002214
 **** Fit      -0.002195
 **** Fit      -0.002160
 **** Fit      -0.002178
 **** Fit      -0.002272
 **** Fit      -0.002345
 **** Fit      -0.002399
 **** Fit      -0.002431
 **** Fit      -0.002437
 **** Fit      -0.002412
 **** Fit      -0.002359
 **** Fit      -0.002286
 **** Fit      -0.002210
 **** Fit      -0.002243
 **** Fit      -0.002319
 **** Fit      -0.002366
 **** Fit      -0.002380
 **** Fit      -0.002357
 **** Fit      -0.002299
 **** Fit      -0.002213
 **** Fit      -0.002171
 **** Fit      -0.002123
 **** Fit      -0.002045
 **** Fit      -0.001947
 **** Fit      -0.001821
 **** Fit      -0.001734
 **** Fit       0.000011
 **** Fit      -0.000104
 **** Fit      -0.000262
 **** Fit       0.000022
 **** Fit       0.000191
 **** Fit       0.000160
 **** Fit       0.000091
 **** Fit      -0.000031
 **** Fit      -0.000205
 **** Fit      -0.000417
 **** Fit      -0.000639
 **** Fit      -0.000204
 **** Fit      -0.000009
 **** Fit       0.000140
 **** Fit       0.000227
 **** Fit       0.000256
 **** Fit       0.000248
 **** Fit       0.000203
 **** Fit       0.000185
 **** Fit       0.000153
 **** Fit       0.000084
 **** Fit      -0.000041
 **** Fit      -0.000226
 **** Fit      -0.000453
 **** Fit      -0.000689
 **** Fit      -0.000396
 **** Fit      -0.000154
 **** Fit       0.000060
 **** Fit       0.000211
 **** Fit       0.000279
 **** Fit       0.000273
 **** Fit       0.000222
 **** Fit       0.000159
 **** Fit       0.000108
 **** Fit       0.000071
 **** Fit       0.000032
 **** Fit      -0.000038
 **** Fit      -0.000164
 **** Fit      -0.000349
 **** Fit      -0.000575
 **** Fit      -0.000808
 **** Fit      -0.001016
 **** Fit      -0.000679
 **** Fit      -0.000433
 **** Fit      -0.000175
 **** Fit       0.000050
 **** Fit       0.000196
 **** Fit       0.000240
 **** Fit       0.000193
 **** Fit       0.000095
 **** Fit      -0.000011
 **** Fit      -0.000097
 **** Fit      -0.000158
 **** Fit      -0.000211
 **** Fit      -0.000286
 **** Fit      -0.000407
 **** Fit      -0.000580
 **** Fit      -0.000787
 **** Fit      -0.000995
 **** Fit      -0.001174
 **** Fit      -0.000790
 **** Fit      -0.000550
 **** Fit      -0.000295
 **** Fit      -0.000077
 **** Fit       0.000054
 **** Fit       0.000071
 **** Fit      -0.000010
 **** Fit      -0.000146
 **** Fit      -0.000287
 **** Fit      -0.000403
 **** Fit      -0.000487
 **** Fit      -0.000556
 **** Fit      -0.000635
 **** Fit      -0.000746
 **** Fit      -0.000894
 **** Fit      -0.001063
 **** Fit      -0.001225
 **** Fit      -0.001358
 **** Fit      -0.001127
 **** Fit      -0.000964
 **** Fit      -0.000755
 **** Fit      -0.000530
 **** Fit      -0.000341
 **** Fit      -0.000236
 **** Fit      -0.000242
 **** Fit      -0.000343
 **** Fit      -0.000494
 **** Fit      -0.000647
 **** Fit      -0.000775
 **** Fit      -0.000871
 **** Fit      -0.000949
 **** Fit      -0.001028
 **** Fit      -0.001123
 **** Fit      -0.001235
 **** Fit      -0.001354
 **** Fit      -0.001460
 **** Fit      -0.001537
 **** Fit      -0.001297
 **** Fit      -0.001183
 **** Fit      -0.001028
 **** Fit      -0.000859
 **** Fit      -0.000718
 **** Fit      -0.000648
 **** Fit      -0.000670
 **** Fit      -0.000769
 **** Fit      -0.000907
 **** Fit      -0.001044
 **** Fit      -0.001159
 **** Fit      -0.001249
 **** Fit      -0.001323
 **** Fit      -0.001391
 **** Fit      -0.001463
 **** Fit      -0.001536
 **** Fit      -0.001603
 **** Fit      -0.001652
 **** Fit      -0.001414
 **** Fit      -0.001327
 **** Fit      -0.001226
 **** Fit      -0.001144
 **** Fit      -0.001110
 **** Fit      -0.001138
 **** Fit      -0.001216
 **** Fit      -0.001317
 **** Fit      -0.001414
 **** Fit      -0.001495
 **** Fit      -0.001615
 **** Fit      -0.001663
 **** Fit      -0.001707
 **** Fit      -0.001742
 **** Fit      -0.001764
 **** Fit      -0.001618
 **** Fit      -0.001595
 **** Fit      -0.001559
 **** Fit      -0.001531
 **** Fit      -0.001526
 **** Fit      -0.001551
 **** Fit      -0.001598
 **** Fit      -0.001651
 **** Fit      -0.001697
 **** Fit      -0.001734
 **** Fit      -0.001786
 **** Fit      -0.001799
 **** Fit      -0.001807
 **** Fit      -0.001818
 **** Fit      -0.001833
 **** Fit      -0.001848
 **** Fit      -0.001856
 **** Fit      -0.001855
 **** Fit      -0.001918
 **** Fit      -0.001942
 **** Fit      -0.001955
 **** Fit      -0.001956
 **** Fit      -0.001942
 **** Fit      -0.001916
 **** Fit      -0.000242
 **** Fit      -0.000140
 **** Fit      -0.000085
 **** Fit      -0.000341
 **** Fit      -0.000442
 **** Fit      -0.000572
 **** Fit      -0.000423
 **** Fit      -0.000284
 **** Fit      -0.000188
 **** Fit      -0.000148
 **** Fit      -0.000159
 **** Fit      -0.000204
 **** Fit      -0.000440
 **** Fit      -0.000513
 **** Fit      -0.000609
 **** Fit      -0.000730
 **** Fit      -0.000681
 **** Fit      -0.000528
 **** Fit      -0.000398
 **** Fit      -0.000316
 **** Fit      -0.000292
 **** Fit      -0.000321
 **** Fit      -0.000386
 **** Fit      -0.000670
 **** Fit      -0.000742
 **** Fit      -0.000830
 **** Fit      -0.000933
 **** Fit      -0.000830
 **** Fit      -0.000699
 **** Fit      -0.000589
 **** Fit      -0.000524
 **** Fit      -0.000516
 **** Fit      -0.000557
 **** Fit      -0.000631
 **** Fit      -0.000996
 **** Fit      -0.001069
 **** Fit      -0.001018
 **** Fit      -0.000920
 **** Fit      -0.000838
 **** Fit      -0.000794
 **** Fit      -0.000797
 **** Fit      -0.000841
 **** Fit      -0.000910
 **** Fit      -0.001157
 **** Fit      -0.001108
 **** Fit      -0.001084
 **** Fit      -0.001093
 **** Fit      -0.001130
 **** Fit      -0.001183
 **** Fit      -0.001373
 **** Fit      -0.001352
 **** Fit      -0.001345
 **** Fit      -0.001354
 **** Fit      -0.001377
 **** Fit      -0.001535
 -----------------------------------------------------------------
 Leave Link  602 at Fri Apr 28 13:54:26 2017, MaxMem=   33554432 cpu:     100.2
 (Enter /scratch/michal/g09/l9999.exe)

 Test job not archived.
 1\1\GINC-RZEPICHA\SP\RHF\6-31G(d)\C27H46O3\MICHAL\28-Apr-2017\0\\#P HF
 /6-31G* SCF(Conver=6) NoSymm Test Pop=chelpg IOp(6/33=2) GFInput GFPri
 nt\\MEP - Input generated by R.E.D.-III.x MOLECULE\\0,1\C,0,1.75843272
 ,-1.24868306,-0.06849769\H,0,1.87119173,-1.12865292,-1.15294768\C,0,3.
 15087548,-1.30885232,0.5755505\H,0,3.72766393,-2.1286423,0.13579109\H,
 0,3.01322534,-1.55474404,1.64110419\C,0,3.91416094,-0.00377427,0.45384
 616\C,0,3.1905585,1.2785923,0.87911978\C,0,1.7486165,1.25401049,0.2825
 6228\H,0,1.81962665,1.44375056,-0.79749619\H,0,1.16681931,2.08005801,0
 .704497\C,0,0.97861255,-0.05926106,0.48974681\H,0,0.7856192,-0.2277959
 7,1.5596819\H,0,0.,0.,0.\C,0,5.17476659,0.,0.\H,0,5.6350526,-0.9367205
 6,-0.31619959\C,0,6.05928384,1.20704909,-0.1087801\H,0,6.29002886,1.39
 672027,-1.1697574\C,0,5.48264697,2.47848932,0.5323411\H,0,5.69308432,2
 .41319852,1.60540048\C,0,3.94585114,2.52877888,0.30641542\H,0,3.798823
 57,2.48577029,-0.78564586\C,0,3.35026397,3.87390149,0.78062782\H,0,3.3
 666831,3.92054834,1.8749675\H,0,2.29512427,3.93104519,0.4915174\C,0,4.
 07378791,5.11468366,0.22215713\H,0,3.93470446,5.15836209,-0.86785174\H
 ,0,3.59306327,6.00831727,0.63199897\C,0,5.58512535,5.08598358,0.525677
 23\C,0,6.13018384,3.74684082,-0.05135176\H,0,5.84943187,3.76089389,-1.
 11946791\C,0,7.65754134,3.91040321,0.\H,0,8.17295362,3.25805582,-0.709
 49914\H,0,8.04131068,3.64621026,0.99067737\C,0,7.87456768,5.41553941,-
 0.31126743\H,0,8.54859993,5.87200341,0.42364903\H,0,8.34757699,5.55277
 569,-1.28842205\C,0,6.4705262,6.10911881,-0.26856627\H,0,6.06833504,6.
 12643553,-1.29432506\C,0,5.84237296,5.21904386,2.0444613\H,0,5.4087587
 3,4.39363567,2.61459942\H,0,6.91088841,5.24277179,2.27710014\H,0,5.403
 3617,6.14464444,2.43110025\C,0,6.54927133,7.58492584,0.2028103\H,0,7.0
 1270998,7.59302042,1.20123898\C,0,5.17320329,8.26552094,0.31217811\H,0
 ,4.62934999,8.20445039,-0.63903635\H,0,5.27436753,9.32448545,0.5677680
 9\H,0,4.54734761,7.81155458,1.08365135\C,0,3.11497972,1.30952364,2.428
 91281\H,0,2.48124526,2.12987095,2.77964379\H,0,2.69207513,0.38331715,2
 .8275905\H,0,4.10889508,1.42693457,2.8701788\O,0,7.39386607,0.89659852
 ,0.36645426\O,0,7.34187895,0.63497438,1.8000496\H,0,7.38837895,-0.3350
 6301,1.81302148\O,0,1.05416635,-2.48494371,0.07493238\H,0,0.89111701,-
 2.64160088,1.01571377\C,0,7.47600739,8.39688299,-0.73628509\H,0,8.4010
 048,7.83479544,-0.90712668\H,0,6.98986443,8.48750945,-1.719993\C,0,7.8
 6803351,9.79528421,-0.23184962\H,0,6.97977092,10.43292445,-0.13447969\
 H,0,8.29174809,9.69972129,0.77685598\C,0,8.87368298,10.49437011,-1.159
 41038\H,0,8.46078281,10.50192098,-2.17849112\H,0,9.79777453,9.8983685,
 -1.21144715\C,0,9.23751818,11.94219946,-0.77200512\H,0,8.29798494,12.5
 1114431,-0.69388572\C,0,9.95383348,12.02714367,0.58559917\H,0,10.88727
 033,11.44941111,0.56869761\H,0,10.21084019,13.06457367,0.82835533\H,0,
 9.33679248,11.64094751,1.40299625\C,0,10.08991196,12.59640538,-1.87099
 697\H,0,11.0425594,12.06535955,-1.99439111\H,0,10.32128637,13.63968172
 ,-1.62754857\H,0,9.57431994,12.5834899,-2.83814389\\Version=EM64L-G09R
 evC.01\HF=-1273.685045\RMSD=5.086e-07\Dipole=-0.580403,0.0346867,0.415
 8974\Quadrupole=-11.3320102,3.6157955,7.7162147,-8.2554629,-1.5947556,
 -4.7230666\PG=C01 [X(C27H46O3)]\\@


 A MUSTACHE HAIR ACROSS A CHIP IS LIKE A REDWOOD
 TREE FALLING THROUGH A HOUSING PROJECT.
 - AN IBM MANAGER IN EAST FISHKILL, NEW YORK
   AS QUOTED IN "FROM SANDS TO CIRCUITS", IBM INNOVATION JANUARY 1985.
 Job cpu time:  0 days  0 hours 40 minutes 20.1 seconds.
 File lengths (MBytes):  RWF=    159 Int=      0 D2E=      0 Chk=     11 Scr=      1
 Normal termination of Gaussian 09 at Fri Apr 28 13:54:26 2017.
