 Entering Gaussian System, Link 0=/scratch/michal/g09//g09
 Input=JOB2-gau_m1-24-1.com
 Output=JOB2-gau_m1-24-1.log
 Initial command:
 /scratch/michal/g09/l1.exe /scratch/michal/gauss_scratch/Gau-28216.inp -scrdir=/scratch/michal/gauss_scratch/
 Entering Link 1 = /scratch/michal/g09/l1.exe PID=     28218.
  
 Copyright (c) 1988,1990,1992,1993,1995,1998,2003,2009,2011,
            Gaussian, Inc.  All Rights Reserved.
  
 This is part of the Gaussian(R) 09 program.  It is based on
 the Gaussian(R) 03 system (copyright 2003, Gaussian, Inc.),
 the Gaussian(R) 98 system (copyright 1998, Gaussian, Inc.),
 the Gaussian(R) 94 system (copyright 1995, Gaussian, Inc.),
 the Gaussian 92(TM) system (copyright 1992, Gaussian, Inc.),
 the Gaussian 90(TM) system (copyright 1990, Gaussian, Inc.),
 the Gaussian 88(TM) system (copyright 1988, Gaussian, Inc.),
 the Gaussian 86(TM) system (copyright 1986, Carnegie Mellon
 University), and the Gaussian 82(TM) system (copyright 1983,
 Carnegie Mellon University). Gaussian is a federally registered
 trademark of Gaussian, Inc.
  
 This software contains proprietary and confidential information,
 including trade secrets, belonging to Gaussian, Inc.
  
 This software is provided under written license and may be
 used, copied, transmitted, or stored only in accord with that
 written license.
  
 The following legend is applicable only to US Government
 contracts under FAR:
  
                    RESTRICTED RIGHTS LEGEND
  
 Use, reproduction and disclosure by the US Government is
 subject to restrictions as set forth in subparagraphs (a)
 and (c) of the Commercial Computer Software - Restricted
 Rights clause in FAR 52.227-19.
  
 Gaussian, Inc.
 340 Quinnipiac St., Bldg. 40, Wallingford CT 06492
  
  
 ---------------------------------------------------------------
 Warning -- This program may not be used in any manner that
 competes with the business of Gaussian, Inc. or will provide
 assistance to any competitor of Gaussian, Inc.  The licensee
 of this program is prohibited from giving any competitor of
 Gaussian, Inc. access to this program.  By using this program,
 the user acknowledges that Gaussian, Inc. is engaged in the
 business of creating and licensing software in the field of
 computational chemistry and represents and warrants to the
 licensee that it is not a competitor of Gaussian, Inc. and that
 it will not use this program in any manner prohibited above.
 ---------------------------------------------------------------
  

 Cite this work as:
 Gaussian 09, Revision C.01,
 M. J. Frisch, G. W. Trucks, H. B. Schlegel, G. E. Scuseria, 
 M. A. Robb, J. R. Cheeseman, G. Scalmani, V. Barone, B. Mennucci, 
 G. A. Petersson, H. Nakatsuji, M. Caricato, X. Li, H. P. Hratchian, 
 A. F. Izmaylov, J. Bloino, G. Zheng, J. L. Sonnenberg, M. Hada, 
 M. Ehara, K. Toyota, R. Fukuda, J. Hasegawa, M. Ishida, T. Nakajima, 
 Y. Honda, O. Kitao, H. Nakai, T. Vreven, J. A. Montgomery, Jr., 
 J. E. Peralta, F. Ogliaro, M. Bearpark, J. J. Heyd, E. Brothers, 
 K. N. Kudin, V. N. Staroverov, T. Keith, R. Kobayashi, J. Normand, 
 K. Raghavachari, A. Rendell, J. C. Burant, S. S. Iyengar, J. Tomasi, 
 M. Cossi, N. Rega, J. M. Millam, M. Klene, J. E. Knox, J. B. Cross, 
 V. Bakken, C. Adamo, J. Jaramillo, R. Gomperts, R. E. Stratmann, 
 O. Yazyev, A. J. Austin, R. Cammi, C. Pomelli, J. W. Ochterski, 
 R. L. Martin, K. Morokuma, V. G. Zakrzewski, G. A. Voth, 
 P. Salvador, J. J. Dannenberg, S. Dapprich, A. D. Daniels, 
 O. Farkas, J. B. Foresman, J. V. Ortiz, J. Cioslowski, 
 and D. J. Fox, Gaussian, Inc., Wallingford CT, 2010.
 
 ******************************************
 Gaussian 09:  EM64L-G09RevC.01 23-Sep-2011
                28-Apr-2017 
 ******************************************
 %Mem=256MB
 %NProc=48
 Will use up to   48 processors via shared memory.
 ----------------------------------------------------------------------
 #P HF/6-31G* SCF(Conver=6) NoSymm Test Pop=chelpg IOp(6/33=2) GFInput 
 GFPrint
 ----------------------------------------------------------------------
 1/38=1/1;
 2/12=2,15=1,17=6,18=5,40=1/2;
 3/5=1,6=6,7=1,11=9,16=1,24=110,25=1,30=1/1,2,3;
 4//1;
 5/5=2,6=6,38=5/2;
 6/7=2,8=2,9=2,10=2,15=8,20=3,28=1,33=2/1,2;
 99/5=1,9=1/99;
 Leave Link    1 at Fri Apr 28 14:03:35 2017, MaxMem=   33554432 cpu:       6.9
 (Enter /scratch/michal/g09/l101.exe)
 ----------------------------------------------
 MEP - Input generated by R.E.D.-III.x MOLECULE
 ----------------------------------------------
 Charge =  0 Multiplicity = 1
 Symbolic Z-Matrix:
 C                     1.75863  -1.24825  -0.0705 
 H                     1.87081  -1.12776  -1.15496 
 C                     3.15131  -1.30865   0.57285 
 H                     3.72799  -2.1282    0.13252 
 H                     3.01411  -1.55507   1.63835 
 C                     3.91468  -0.00358   0.45169 
 C                     3.19109   1.27922   0.87597 
 C                     1.74865   1.25435   0.28079 
 H                     1.81841   1.44425  -0.79933 
 H                     1.16712   2.08024   0.70338 
 C                     0.97914  -0.05911   0.48872 
 H                     0.78729  -0.22789   1.55884 
 H                     0.        0.        0. 
 C                     5.17608   0.        0. 
 H                     5.63685  -0.93683  -0.31517 
 C                     6.06095   1.20692  -0.10744 
 H                     6.29479   1.39538  -1.16794 
 C                     5.4827    2.47926   0.53059 
 H                     5.69096   2.41576   1.60418 
 C                     3.9464    2.52858   0.30164 
 H                     3.80129   2.48278  -0.79058 
 C                     3.34903   3.87449   0.77133 
 H                     3.36199   3.92324   1.86561 
 H                     2.29481   3.93096   0.47876 
 C                     4.07404   5.11448   0.21275 
 H                     3.93776   5.15657  -0.87767 
 H                     3.59185   6.00851   0.61993 
 C                     5.5846    5.0867    0.52017 
 C                     6.13112   3.74676  -0.05375 
 H                     5.85225   3.75925  -1.12235 
 C                     7.65842   3.91034   0. 
 H                     8.17467   3.25866  -0.70954 
 H                     8.04102   3.64511   0.99086 
 C                     7.8763    5.41585  -0.30907 
 H                     8.54496   5.87177   0.43094 
 H                     8.3555    5.55549  -1.28288 
 C                     6.47189   6.10851  -0.27363 
 H                     6.07324   6.1225   -1.30089 
 C                     5.8378    5.22231   2.03931 
 H                     5.40187   4.3984    2.60989 
 H                     6.90568   5.24556   2.2749 
 H                     5.39832   6.14908   2.42276 
 C                     6.54946   7.58624   0.19329 
 H                     7.00443   7.5914    1.19373 
 C                     5.17519   8.27002   0.29295 
 H                     4.64242   8.22433  -0.66547 
 H                     5.27617   9.32541   0.56366 
 H                     4.53871   7.80833   1.05084 
 C                     3.11683   1.31135   2.42586 
 H                     2.48512   2.13326   2.77662 
 H                     2.69223   0.38628   2.8254 
 H                     4.11137   1.42682   2.8663 
 O                     7.39416   0.89708   0.3721 
 O                     7.33774   0.63734   1.80596 
 H                     7.38751  -0.3325    1.82028 
 O                     1.05447  -2.4846    0.07283 
 H                     0.89183  -2.6415    1.01365 
 C                     7.48001   8.38446  -0.75607 
 H                     8.43691   7.85774  -0.84748 
 H                     7.03078   8.37457  -1.76057 
 C                     7.78746   9.84617  -0.37305 
 H                     8.40469   10.26878  -1.17594 
 H                     6.86461   10.43791  -0.36537 
 C                     8.52206   10.00093   0.96888 
 H                     9.3988    9.33656   0.96729 
 H                     7.87465   9.64442   1.78119 
 C                     8.99663   11.42869   1.33032 
 H                     9.47583   11.34557   2.31711 
 C                     10.06025   11.96724   0.35895 
 H                     9.64637   12.14197  -0.6408 
 H                     10.46432   12.92176   0.71521 
 H                     10.89804   11.26744   0.25684 
 C                     7.8305    12.42043   1.47718 
 H                     7.33543   12.60671   0.51712 
 H                     8.18519   13.38636   1.85457 
 H                     7.07394   12.04632   2.17707 
 
 NAtoms=     76 NQM=        0 NQMF=       0 NMMI=     76 NMMIF=      0
                NMic=       0 NMicF=      0.
                    Isotopes and Nuclear Properties:
 (Nuclear quadrupole moments (NQMom) in fm**2, nuclear magnetic moments (NMagM)
  in nuclear magnetons)

  Atom         1           2           3           4           5           6           7           8           9          10
 IAtWgt=          12           1          12           1           1          12          12          12           1           1
 AtmWgt=  12.0000000   1.0078250  12.0000000   1.0078250   1.0078250  12.0000000  12.0000000  12.0000000   1.0078250   1.0078250
 NucSpn=           0           1           0           1           1           0           0           0           1           1
 AtZEff=   0.0000000   0.0000000   0.0000000   0.0000000   0.0000000   0.0000000   0.0000000   0.0000000   0.0000000   0.0000000
 NQMom=    0.0000000   0.0000000   0.0000000   0.0000000   0.0000000   0.0000000   0.0000000   0.0000000   0.0000000   0.0000000
 NMagM=    0.0000000   2.7928460   0.0000000   2.7928460   2.7928460   0.0000000   0.0000000   0.0000000   2.7928460   2.7928460

  Atom        11          12          13          14          15          16          17          18          19          20
 IAtWgt=          12           1           1          12           1          12           1          12           1          12
 AtmWgt=  12.0000000   1.0078250   1.0078250  12.0000000   1.0078250  12.0000000   1.0078250  12.0000000   1.0078250  12.0000000
 NucSpn=           0           1           1           0           1           0           1           0           1           0
 AtZEff=   0.0000000   0.0000000   0.0000000   0.0000000   0.0000000   0.0000000   0.0000000   0.0000000   0.0000000   0.0000000
 NQMom=    0.0000000   0.0000000   0.0000000   0.0000000   0.0000000   0.0000000   0.0000000   0.0000000   0.0000000   0.0000000
 NMagM=    0.0000000   2.7928460   2.7928460   0.0000000   2.7928460   0.0000000   2.7928460   0.0000000   2.7928460   0.0000000

  Atom        21          22          23          24          25          26          27          28          29          30
 IAtWgt=           1          12           1           1          12           1           1          12          12           1
 AtmWgt=   1.0078250  12.0000000   1.0078250   1.0078250  12.0000000   1.0078250   1.0078250  12.0000000  12.0000000   1.0078250
 NucSpn=           1           0           1           1           0           1           1           0           0           1
 AtZEff=   0.0000000   0.0000000   0.0000000   0.0000000   0.0000000   0.0000000   0.0000000   0.0000000   0.0000000   0.0000000
 NQMom=    0.0000000   0.0000000   0.0000000   0.0000000   0.0000000   0.0000000   0.0000000   0.0000000   0.0000000   0.0000000
 NMagM=    2.7928460   0.0000000   2.7928460   2.7928460   0.0000000   2.7928460   2.7928460   0.0000000   0.0000000   2.7928460

  Atom        31          32          33          34          35          36          37          38          39          40
 IAtWgt=          12           1           1          12           1           1          12           1          12           1
 AtmWgt=  12.0000000   1.0078250   1.0078250  12.0000000   1.0078250   1.0078250  12.0000000   1.0078250  12.0000000   1.0078250
 NucSpn=           0           1           1           0           1           1           0           1           0           1
 AtZEff=   0.0000000   0.0000000   0.0000000   0.0000000   0.0000000   0.0000000   0.0000000   0.0000000   0.0000000   0.0000000
 NQMom=    0.0000000   0.0000000   0.0000000   0.0000000   0.0000000   0.0000000   0.0000000   0.0000000   0.0000000   0.0000000
 NMagM=    0.0000000   2.7928460   2.7928460   0.0000000   2.7928460   2.7928460   0.0000000   2.7928460   0.0000000   2.7928460

  Atom        41          42          43          44          45          46          47          48          49          50
 IAtWgt=           1           1          12           1          12           1           1           1          12           1
 AtmWgt=   1.0078250   1.0078250  12.0000000   1.0078250  12.0000000   1.0078250   1.0078250   1.0078250  12.0000000   1.0078250
 NucSpn=           1           1           0           1           0           1           1           1           0           1
 AtZEff=   0.0000000   0.0000000   0.0000000   0.0000000   0.0000000   0.0000000   0.0000000   0.0000000   0.0000000   0.0000000
 NQMom=    0.0000000   0.0000000   0.0000000   0.0000000   0.0000000   0.0000000   0.0000000   0.0000000   0.0000000   0.0000000
 NMagM=    2.7928460   2.7928460   0.0000000   2.7928460   0.0000000   2.7928460   2.7928460   2.7928460   0.0000000   2.7928460

  Atom        51          52          53          54          55          56          57          58          59          60
 IAtWgt=           1           1          16          16           1          16           1          12           1           1
 AtmWgt=   1.0078250   1.0078250  15.9949146  15.9949146   1.0078250  15.9949146   1.0078250  12.0000000   1.0078250   1.0078250
 NucSpn=           1           1           0           0           1           0           1           0           1           1
 AtZEff=   0.0000000   0.0000000   0.0000000   0.0000000   0.0000000   0.0000000   0.0000000   0.0000000   0.0000000   0.0000000
 NQMom=    0.0000000   0.0000000   0.0000000   0.0000000   0.0000000   0.0000000   0.0000000   0.0000000   0.0000000   0.0000000
 NMagM=    2.7928460   2.7928460   0.0000000   0.0000000   2.7928460   0.0000000   2.7928460   0.0000000   2.7928460   2.7928460

  Atom        61          62          63          64          65          66          67          68          69          70
 IAtWgt=          12           1           1          12           1           1          12           1          12           1
 AtmWgt=  12.0000000   1.0078250   1.0078250  12.0000000   1.0078250   1.0078250  12.0000000   1.0078250  12.0000000   1.0078250
 NucSpn=           0           1           1           0           1           1           0           1           0           1
 AtZEff=   0.0000000   0.0000000   0.0000000   0.0000000   0.0000000   0.0000000   0.0000000   0.0000000   0.0000000   0.0000000
 NQMom=    0.0000000   0.0000000   0.0000000   0.0000000   0.0000000   0.0000000   0.0000000   0.0000000   0.0000000   0.0000000
 NMagM=    0.0000000   2.7928460   2.7928460   0.0000000   2.7928460   2.7928460   0.0000000   2.7928460   0.0000000   2.7928460

  Atom        71          72          73          74          75          76
 IAtWgt=           1           1          12           1           1           1
 AtmWgt=   1.0078250   1.0078250  12.0000000   1.0078250   1.0078250   1.0078250
 NucSpn=           1           1           0           1           1           1
 AtZEff=   0.0000000   0.0000000   0.0000000   0.0000000   0.0000000   0.0000000
 NQMom=    0.0000000   0.0000000   0.0000000   0.0000000   0.0000000   0.0000000
 NMagM=    2.7928460   2.7928460   0.0000000   2.7928460   2.7928460   2.7928460
 Leave Link  101 at Fri Apr 28 14:03:36 2017, MaxMem=   33554432 cpu:      13.6
 (Enter /scratch/michal/g09/l202.exe)
 Symmetry turned off by external request.
 Stoichiometry    C27H46O3
 Framework group  C1[X(C27H46O3)]
 Deg. of freedom   222
 Full point group                 C1      NOp   1
                          Input orientation:                          
 ---------------------------------------------------------------------
 Center     Atomic      Atomic             Coordinates (Angstroms)
 Number     Number       Type             X           Y           Z
 ---------------------------------------------------------------------
      1          6           0        1.758633   -1.248247   -0.070504
      2          1           0        1.870810   -1.127761   -1.154961
      3          6           0        3.151307   -1.308646    0.572849
      4          1           0        3.727987   -2.128204    0.132516
      5          1           0        3.014114   -1.555073    1.638353
      6          6           0        3.914676   -0.003578    0.451688
      7          6           0        3.191088    1.279217    0.875974
      8          6           0        1.748645    1.254351    0.280794
      9          1           0        1.818406    1.444251   -0.799331
     10          1           0        1.167124    2.080240    0.703383
     11          6           0        0.979140   -0.059113    0.488717
     12          1           0        0.787286   -0.227887    1.558842
     13          1           0        0.000000    0.000000    0.000000
     14          6           0        5.176078    0.000000    0.000000
     15          1           0        5.636846   -0.936829   -0.315170
     16          6           0        6.060951    1.206920   -0.107435
     17          1           0        6.294795    1.395384   -1.167945
     18          6           0        5.482704    2.479259    0.530592
     19          1           0        5.690956    2.415756    1.604179
     20          6           0        3.946404    2.528585    0.301636
     21          1           0        3.801294    2.482783   -0.790577
     22          6           0        3.349033    3.874490    0.771333
     23          1           0        3.361992    3.923236    1.865612
     24          1           0        2.294809    3.930957    0.478763
     25          6           0        4.074041    5.114479    0.212747
     26          1           0        3.937760    5.156567   -0.877667
     27          1           0        3.591851    6.008514    0.619931
     28          6           0        5.584602    5.086702    0.520173
     29          6           0        6.131123    3.746764   -0.053751
     30          1           0        5.852249    3.759246   -1.122351
     31          6           0        7.658423    3.910340    0.000000
     32          1           0        8.174671    3.258655   -0.709538
     33          1           0        8.041018    3.645109    0.990863
     34          6           0        7.876297    5.415851   -0.309072
     35          1           0        8.544960    5.871771    0.430943
     36          1           0        8.355497    5.555495   -1.282876
     37          6           0        6.471887    6.108512   -0.273629
     38          1           0        6.073242    6.122496   -1.300889
     39          6           0        5.837795    5.222311    2.039312
     40          1           0        5.401871    4.398397    2.609895
     41          1           0        6.905679    5.245563    2.274905
     42          1           0        5.398324    6.149080    2.422764
     43          6           0        6.549465    7.586243    0.193292
     44          1           0        7.004434    7.591401    1.193727
     45          6           0        5.175190    8.270022    0.292948
     46          1           0        4.642416    8.224333   -0.665467
     47          1           0        5.276171    9.325413    0.563659
     48          1           0        4.538712    7.808334    1.050841
     49          6           0        3.116834    1.311352    2.425856
     50          1           0        2.485118    2.133260    2.776616
     51          1           0        2.692229    0.386280    2.825397
     52          1           0        4.111370    1.426817    2.866303
     53          8           0        7.394162    0.897084    0.372096
     54          8           0        7.337739    0.637343    1.805962
     55          1           0        7.387509   -0.332502    1.820279
     56          8           0        1.054472   -2.484601    0.072834
     57          1           0        0.891831   -2.641499    1.013646
     58          6           0        7.480011    8.384458   -0.756068
     59          1           0        8.436915    7.857741   -0.847477
     60          1           0        7.030780    8.374574   -1.760575
     61          6           0        7.787463    9.846171   -0.373051
     62          1           0        8.404689   10.268777   -1.175944
     63          1           0        6.864606   10.437907   -0.365365
     64          6           0        8.522064   10.000935    0.968882
     65          1           0        9.398798    9.336555    0.967292
     66          1           0        7.874647    9.644418    1.781186
     67          6           0        8.996633   11.428687    1.330320
     68          1           0        9.475830   11.345574    2.317109
     69          6           0       10.060248   11.967240    0.358946
     70          1           0        9.646375   12.141968   -0.640805
     71          1           0       10.464321   12.921756    0.715208
     72          1           0       10.898038   11.267443    0.256842
     73          6           0        7.830502   12.420434    1.477176
     74          1           0        7.335430   12.606708    0.517124
     75          1           0        8.185186   13.386361    1.854573
     76          1           0        7.073936   12.046325    2.177070
 ---------------------------------------------------------------------
 Rotational constants (GHZ):      0.4085164      0.0538373      0.0501667
 Leave Link  202 at Fri Apr 28 14:03:36 2017, MaxMem=   33554432 cpu:       0.1
 (Enter /scratch/michal/g09/l301.exe)
 Standard basis: 6-31G(d) (6D, 7F)
 Ernie: Thresh=  0.10000D-02 Tol=  0.10000D-05 Strict=F.
 AO basis set in the form of general basis input (Overlap normalization):
      1 0
 S   6 1.00       0.000000000000
      0.3047524880D+04  0.1834737132D-02
      0.4573695180D+03  0.1403732281D-01
      0.1039486850D+03  0.6884262226D-01
      0.2921015530D+02  0.2321844432D+00
      0.9286662960D+01  0.4679413484D+00
      0.3163926960D+01  0.3623119853D+00
 SP   3 1.00       0.000000000000
      0.7868272350D+01 -0.1193324198D+00  0.6899906659D-01
      0.1881288540D+01 -0.1608541517D+00  0.3164239610D+00
      0.5442492580D+00  0.1143456438D+01  0.7443082909D+00
 SP   1 1.00       0.000000000000
      0.1687144782D+00  0.1000000000D+01  0.1000000000D+01
 D   1 1.00       0.000000000000
      0.8000000000D+00  0.1000000000D+01
 ****
      2 0
 S   3 1.00       0.000000000000
      0.1873113696D+02  0.3349460434D-01
      0.2825394365D+01  0.2347269535D+00
      0.6401216923D+00  0.8137573261D+00
 S   1 1.00       0.000000000000
      0.1612777588D+00  0.1000000000D+01
 ****
      3 0
 S   6 1.00       0.000000000000
      0.3047524880D+04  0.1834737132D-02
      0.4573695180D+03  0.1403732281D-01
      0.1039486850D+03  0.6884262226D-01
      0.2921015530D+02  0.2321844432D+00
      0.9286662960D+01  0.4679413484D+00
      0.3163926960D+01  0.3623119853D+00
 SP   3 1.00       0.000000000000
      0.7868272350D+01 -0.1193324198D+00  0.6899906659D-01
      0.1881288540D+01 -0.1608541517D+00  0.3164239610D+00
      0.5442492580D+00  0.1143456438D+01  0.7443082909D+00
 SP   1 1.00       0.000000000000
      0.1687144782D+00  0.1000000000D+01  0.1000000000D+01
 D   1 1.00       0.000000000000
      0.8000000000D+00  0.1000000000D+01
 ****
      4 0
 S   3 1.00       0.000000000000
      0.1873113696D+02  0.3349460434D-01
      0.2825394365D+01  0.2347269535D+00
      0.6401216923D+00  0.8137573261D+00
 S   1 1.00       0.000000000000
      0.1612777588D+00  0.1000000000D+01
 ****
      5 0
 S   3 1.00       0.000000000000
      0.1873113696D+02  0.3349460434D-01
      0.2825394365D+01  0.2347269535D+00
      0.6401216923D+00  0.8137573261D+00
 S   1 1.00       0.000000000000
      0.1612777588D+00  0.1000000000D+01
 ****
      6 0
 S   6 1.00       0.000000000000
      0.3047524880D+04  0.1834737132D-02
      0.4573695180D+03  0.1403732281D-01
      0.1039486850D+03  0.6884262226D-01
      0.2921015530D+02  0.2321844432D+00
      0.9286662960D+01  0.4679413484D+00
      0.3163926960D+01  0.3623119853D+00
 SP   3 1.00       0.000000000000
      0.7868272350D+01 -0.1193324198D+00  0.6899906659D-01
      0.1881288540D+01 -0.1608541517D+00  0.3164239610D+00
      0.5442492580D+00  0.1143456438D+01  0.7443082909D+00
 SP   1 1.00       0.000000000000
      0.1687144782D+00  0.1000000000D+01  0.1000000000D+01
 D   1 1.00       0.000000000000
      0.8000000000D+00  0.1000000000D+01
 ****
      7 0
 S   6 1.00       0.000000000000
      0.3047524880D+04  0.1834737132D-02
      0.4573695180D+03  0.1403732281D-01
      0.1039486850D+03  0.6884262226D-01
      0.2921015530D+02  0.2321844432D+00
      0.9286662960D+01  0.4679413484D+00
      0.3163926960D+01  0.3623119853D+00
 SP   3 1.00       0.000000000000
      0.7868272350D+01 -0.1193324198D+00  0.6899906659D-01
      0.1881288540D+01 -0.1608541517D+00  0.3164239610D+00
      0.5442492580D+00  0.1143456438D+01  0.7443082909D+00
 SP   1 1.00       0.000000000000
      0.1687144782D+00  0.1000000000D+01  0.1000000000D+01
 D   1 1.00       0.000000000000
      0.8000000000D+00  0.1000000000D+01
 ****
      8 0
 S   6 1.00       0.000000000000
      0.3047524880D+04  0.1834737132D-02
      0.4573695180D+03  0.1403732281D-01
      0.1039486850D+03  0.6884262226D-01
      0.2921015530D+02  0.2321844432D+00
      0.9286662960D+01  0.4679413484D+00
      0.3163926960D+01  0.3623119853D+00
 SP   3 1.00       0.000000000000
      0.7868272350D+01 -0.1193324198D+00  0.6899906659D-01
      0.1881288540D+01 -0.1608541517D+00  0.3164239610D+00
      0.5442492580D+00  0.1143456438D+01  0.7443082909D+00
 SP   1 1.00       0.000000000000
      0.1687144782D+00  0.1000000000D+01  0.1000000000D+01
 D   1 1.00       0.000000000000
      0.8000000000D+00  0.1000000000D+01
 ****
      9 0
 S   3 1.00       0.000000000000
      0.1873113696D+02  0.3349460434D-01
      0.2825394365D+01  0.2347269535D+00
      0.6401216923D+00  0.8137573261D+00
 S   1 1.00       0.000000000000
      0.1612777588D+00  0.1000000000D+01
 ****
     10 0
 S   3 1.00       0.000000000000
      0.1873113696D+02  0.3349460434D-01
      0.2825394365D+01  0.2347269535D+00
      0.6401216923D+00  0.8137573261D+00
 S   1 1.00       0.000000000000
      0.1612777588D+00  0.1000000000D+01
 ****
     11 0
 S   6 1.00       0.000000000000
      0.3047524880D+04  0.1834737132D-02
      0.4573695180D+03  0.1403732281D-01
      0.1039486850D+03  0.6884262226D-01
      0.2921015530D+02  0.2321844432D+00
      0.9286662960D+01  0.4679413484D+00
      0.3163926960D+01  0.3623119853D+00
 SP   3 1.00       0.000000000000
      0.7868272350D+01 -0.1193324198D+00  0.6899906659D-01
      0.1881288540D+01 -0.1608541517D+00  0.3164239610D+00
      0.5442492580D+00  0.1143456438D+01  0.7443082909D+00
 SP   1 1.00       0.000000000000
      0.1687144782D+00  0.1000000000D+01  0.1000000000D+01
 D   1 1.00       0.000000000000
      0.8000000000D+00  0.1000000000D+01
 ****
     12 0
 S   3 1.00       0.000000000000
      0.1873113696D+02  0.3349460434D-01
      0.2825394365D+01  0.2347269535D+00
      0.6401216923D+00  0.8137573261D+00
 S   1 1.00       0.000000000000
      0.1612777588D+00  0.1000000000D+01
 ****
     13 0
 S   3 1.00       0.000000000000
      0.1873113696D+02  0.3349460434D-01
      0.2825394365D+01  0.2347269535D+00
      0.6401216923D+00  0.8137573261D+00
 S   1 1.00       0.000000000000
      0.1612777588D+00  0.1000000000D+01
 ****
     14 0
 S   6 1.00       0.000000000000
      0.3047524880D+04  0.1834737132D-02
      0.4573695180D+03  0.1403732281D-01
      0.1039486850D+03  0.6884262226D-01
      0.2921015530D+02  0.2321844432D+00
      0.9286662960D+01  0.4679413484D+00
      0.3163926960D+01  0.3623119853D+00
 SP   3 1.00       0.000000000000
      0.7868272350D+01 -0.1193324198D+00  0.6899906659D-01
      0.1881288540D+01 -0.1608541517D+00  0.3164239610D+00
      0.5442492580D+00  0.1143456438D+01  0.7443082909D+00
 SP   1 1.00       0.000000000000
      0.1687144782D+00  0.1000000000D+01  0.1000000000D+01
 D   1 1.00       0.000000000000
      0.8000000000D+00  0.1000000000D+01
 ****
     15 0
 S   3 1.00       0.000000000000
      0.1873113696D+02  0.3349460434D-01
      0.2825394365D+01  0.2347269535D+00
      0.6401216923D+00  0.8137573261D+00
 S   1 1.00       0.000000000000
      0.1612777588D+00  0.1000000000D+01
 ****
     16 0
 S   6 1.00       0.000000000000
      0.3047524880D+04  0.1834737132D-02
      0.4573695180D+03  0.1403732281D-01
      0.1039486850D+03  0.6884262226D-01
      0.2921015530D+02  0.2321844432D+00
      0.9286662960D+01  0.4679413484D+00
      0.3163926960D+01  0.3623119853D+00
 SP   3 1.00       0.000000000000
      0.7868272350D+01 -0.1193324198D+00  0.6899906659D-01
      0.1881288540D+01 -0.1608541517D+00  0.3164239610D+00
      0.5442492580D+00  0.1143456438D+01  0.7443082909D+00
 SP   1 1.00       0.000000000000
      0.1687144782D+00  0.1000000000D+01  0.1000000000D+01
 D   1 1.00       0.000000000000
      0.8000000000D+00  0.1000000000D+01
 ****
     17 0
 S   3 1.00       0.000000000000
      0.1873113696D+02  0.3349460434D-01
      0.2825394365D+01  0.2347269535D+00
      0.6401216923D+00  0.8137573261D+00
 S   1 1.00       0.000000000000
      0.1612777588D+00  0.1000000000D+01
 ****
     18 0
 S   6 1.00       0.000000000000
      0.3047524880D+04  0.1834737132D-02
      0.4573695180D+03  0.1403732281D-01
      0.1039486850D+03  0.6884262226D-01
      0.2921015530D+02  0.2321844432D+00
      0.9286662960D+01  0.4679413484D+00
      0.3163926960D+01  0.3623119853D+00
 SP   3 1.00       0.000000000000
      0.7868272350D+01 -0.1193324198D+00  0.6899906659D-01
      0.1881288540D+01 -0.1608541517D+00  0.3164239610D+00
      0.5442492580D+00  0.1143456438D+01  0.7443082909D+00
 SP   1 1.00       0.000000000000
      0.1687144782D+00  0.1000000000D+01  0.1000000000D+01
 D   1 1.00       0.000000000000
      0.8000000000D+00  0.1000000000D+01
 ****
     19 0
 S   3 1.00       0.000000000000
      0.1873113696D+02  0.3349460434D-01
      0.2825394365D+01  0.2347269535D+00
      0.6401216923D+00  0.8137573261D+00
 S   1 1.00       0.000000000000
      0.1612777588D+00  0.1000000000D+01
 ****
     20 0
 S   6 1.00       0.000000000000
      0.3047524880D+04  0.1834737132D-02
      0.4573695180D+03  0.1403732281D-01
      0.1039486850D+03  0.6884262226D-01
      0.2921015530D+02  0.2321844432D+00
      0.9286662960D+01  0.4679413484D+00
      0.3163926960D+01  0.3623119853D+00
 SP   3 1.00       0.000000000000
      0.7868272350D+01 -0.1193324198D+00  0.6899906659D-01
      0.1881288540D+01 -0.1608541517D+00  0.3164239610D+00
      0.5442492580D+00  0.1143456438D+01  0.7443082909D+00
 SP   1 1.00       0.000000000000
      0.1687144782D+00  0.1000000000D+01  0.1000000000D+01
 D   1 1.00       0.000000000000
      0.8000000000D+00  0.1000000000D+01
 ****
     21 0
 S   3 1.00       0.000000000000
      0.1873113696D+02  0.3349460434D-01
      0.2825394365D+01  0.2347269535D+00
      0.6401216923D+00  0.8137573261D+00
 S   1 1.00       0.000000000000
      0.1612777588D+00  0.1000000000D+01
 ****
     22 0
 S   6 1.00       0.000000000000
      0.3047524880D+04  0.1834737132D-02
      0.4573695180D+03  0.1403732281D-01
      0.1039486850D+03  0.6884262226D-01
      0.2921015530D+02  0.2321844432D+00
      0.9286662960D+01  0.4679413484D+00
      0.3163926960D+01  0.3623119853D+00
 SP   3 1.00       0.000000000000
      0.7868272350D+01 -0.1193324198D+00  0.6899906659D-01
      0.1881288540D+01 -0.1608541517D+00  0.3164239610D+00
      0.5442492580D+00  0.1143456438D+01  0.7443082909D+00
 SP   1 1.00       0.000000000000
      0.1687144782D+00  0.1000000000D+01  0.1000000000D+01
 D   1 1.00       0.000000000000
      0.8000000000D+00  0.1000000000D+01
 ****
     23 0
 S   3 1.00       0.000000000000
      0.1873113696D+02  0.3349460434D-01
      0.2825394365D+01  0.2347269535D+00
      0.6401216923D+00  0.8137573261D+00
 S   1 1.00       0.000000000000
      0.1612777588D+00  0.1000000000D+01
 ****
     24 0
 S   3 1.00       0.000000000000
      0.1873113696D+02  0.3349460434D-01
      0.2825394365D+01  0.2347269535D+00
      0.6401216923D+00  0.8137573261D+00
 S   1 1.00       0.000000000000
      0.1612777588D+00  0.1000000000D+01
 ****
     25 0
 S   6 1.00       0.000000000000
      0.3047524880D+04  0.1834737132D-02
      0.4573695180D+03  0.1403732281D-01
      0.1039486850D+03  0.6884262226D-01
      0.2921015530D+02  0.2321844432D+00
      0.9286662960D+01  0.4679413484D+00
      0.3163926960D+01  0.3623119853D+00
 SP   3 1.00       0.000000000000
      0.7868272350D+01 -0.1193324198D+00  0.6899906659D-01
      0.1881288540D+01 -0.1608541517D+00  0.3164239610D+00
      0.5442492580D+00  0.1143456438D+01  0.7443082909D+00
 SP   1 1.00       0.000000000000
      0.1687144782D+00  0.1000000000D+01  0.1000000000D+01
 D   1 1.00       0.000000000000
      0.8000000000D+00  0.1000000000D+01
 ****
     26 0
 S   3 1.00       0.000000000000
      0.1873113696D+02  0.3349460434D-01
      0.2825394365D+01  0.2347269535D+00
      0.6401216923D+00  0.8137573261D+00
 S   1 1.00       0.000000000000
      0.1612777588D+00  0.1000000000D+01
 ****
     27 0
 S   3 1.00       0.000000000000
      0.1873113696D+02  0.3349460434D-01
      0.2825394365D+01  0.2347269535D+00
      0.6401216923D+00  0.8137573261D+00
 S   1 1.00       0.000000000000
      0.1612777588D+00  0.1000000000D+01
 ****
     28 0
 S   6 1.00       0.000000000000
      0.3047524880D+04  0.1834737132D-02
      0.4573695180D+03  0.1403732281D-01
      0.1039486850D+03  0.6884262226D-01
      0.2921015530D+02  0.2321844432D+00
      0.9286662960D+01  0.4679413484D+00
      0.3163926960D+01  0.3623119853D+00
 SP   3 1.00       0.000000000000
      0.7868272350D+01 -0.1193324198D+00  0.6899906659D-01
      0.1881288540D+01 -0.1608541517D+00  0.3164239610D+00
      0.5442492580D+00  0.1143456438D+01  0.7443082909D+00
 SP   1 1.00       0.000000000000
      0.1687144782D+00  0.1000000000D+01  0.1000000000D+01
 D   1 1.00       0.000000000000
      0.8000000000D+00  0.1000000000D+01
 ****
     29 0
 S   6 1.00       0.000000000000
      0.3047524880D+04  0.1834737132D-02
      0.4573695180D+03  0.1403732281D-01
      0.1039486850D+03  0.6884262226D-01
      0.2921015530D+02  0.2321844432D+00
      0.9286662960D+01  0.4679413484D+00
      0.3163926960D+01  0.3623119853D+00
 SP   3 1.00       0.000000000000
      0.7868272350D+01 -0.1193324198D+00  0.6899906659D-01
      0.1881288540D+01 -0.1608541517D+00  0.3164239610D+00
      0.5442492580D+00  0.1143456438D+01  0.7443082909D+00
 SP   1 1.00       0.000000000000
      0.1687144782D+00  0.1000000000D+01  0.1000000000D+01
 D   1 1.00       0.000000000000
      0.8000000000D+00  0.1000000000D+01
 ****
     30 0
 S   3 1.00       0.000000000000
      0.1873113696D+02  0.3349460434D-01
      0.2825394365D+01  0.2347269535D+00
      0.6401216923D+00  0.8137573261D+00
 S   1 1.00       0.000000000000
      0.1612777588D+00  0.1000000000D+01
 ****
     31 0
 S   6 1.00       0.000000000000
      0.3047524880D+04  0.1834737132D-02
      0.4573695180D+03  0.1403732281D-01
      0.1039486850D+03  0.6884262226D-01
      0.2921015530D+02  0.2321844432D+00
      0.9286662960D+01  0.4679413484D+00
      0.3163926960D+01  0.3623119853D+00
 SP   3 1.00       0.000000000000
      0.7868272350D+01 -0.1193324198D+00  0.6899906659D-01
      0.1881288540D+01 -0.1608541517D+00  0.3164239610D+00
      0.5442492580D+00  0.1143456438D+01  0.7443082909D+00
 SP   1 1.00       0.000000000000
      0.1687144782D+00  0.1000000000D+01  0.1000000000D+01
 D   1 1.00       0.000000000000
      0.8000000000D+00  0.1000000000D+01
 ****
     32 0
 S   3 1.00       0.000000000000
      0.1873113696D+02  0.3349460434D-01
      0.2825394365D+01  0.2347269535D+00
      0.6401216923D+00  0.8137573261D+00
 S   1 1.00       0.000000000000
      0.1612777588D+00  0.1000000000D+01
 ****
     33 0
 S   3 1.00       0.000000000000
      0.1873113696D+02  0.3349460434D-01
      0.2825394365D+01  0.2347269535D+00
      0.6401216923D+00  0.8137573261D+00
 S   1 1.00       0.000000000000
      0.1612777588D+00  0.1000000000D+01
 ****
     34 0
 S   6 1.00       0.000000000000
      0.3047524880D+04  0.1834737132D-02
      0.4573695180D+03  0.1403732281D-01
      0.1039486850D+03  0.6884262226D-01
      0.2921015530D+02  0.2321844432D+00
      0.9286662960D+01  0.4679413484D+00
      0.3163926960D+01  0.3623119853D+00
 SP   3 1.00       0.000000000000
      0.7868272350D+01 -0.1193324198D+00  0.6899906659D-01
      0.1881288540D+01 -0.1608541517D+00  0.3164239610D+00
      0.5442492580D+00  0.1143456438D+01  0.7443082909D+00
 SP   1 1.00       0.000000000000
      0.1687144782D+00  0.1000000000D+01  0.1000000000D+01
 D   1 1.00       0.000000000000
      0.8000000000D+00  0.1000000000D+01
 ****
     35 0
 S   3 1.00       0.000000000000
      0.1873113696D+02  0.3349460434D-01
      0.2825394365D+01  0.2347269535D+00
      0.6401216923D+00  0.8137573261D+00
 S   1 1.00       0.000000000000
      0.1612777588D+00  0.1000000000D+01
 ****
     36 0
 S   3 1.00       0.000000000000
      0.1873113696D+02  0.3349460434D-01
      0.2825394365D+01  0.2347269535D+00
      0.6401216923D+00  0.8137573261D+00
 S   1 1.00       0.000000000000
      0.1612777588D+00  0.1000000000D+01
 ****
     37 0
 S   6 1.00       0.000000000000
      0.3047524880D+04  0.1834737132D-02
      0.4573695180D+03  0.1403732281D-01
      0.1039486850D+03  0.6884262226D-01
      0.2921015530D+02  0.2321844432D+00
      0.9286662960D+01  0.4679413484D+00
      0.3163926960D+01  0.3623119853D+00
 SP   3 1.00       0.000000000000
      0.7868272350D+01 -0.1193324198D+00  0.6899906659D-01
      0.1881288540D+01 -0.1608541517D+00  0.3164239610D+00
      0.5442492580D+00  0.1143456438D+01  0.7443082909D+00
 SP   1 1.00       0.000000000000
      0.1687144782D+00  0.1000000000D+01  0.1000000000D+01
 D   1 1.00       0.000000000000
      0.8000000000D+00  0.1000000000D+01
 ****
     38 0
 S   3 1.00       0.000000000000
      0.1873113696D+02  0.3349460434D-01
      0.2825394365D+01  0.2347269535D+00
      0.6401216923D+00  0.8137573261D+00
 S   1 1.00       0.000000000000
      0.1612777588D+00  0.1000000000D+01
 ****
     39 0
 S   6 1.00       0.000000000000
      0.3047524880D+04  0.1834737132D-02
      0.4573695180D+03  0.1403732281D-01
      0.1039486850D+03  0.6884262226D-01
      0.2921015530D+02  0.2321844432D+00
      0.9286662960D+01  0.4679413484D+00
      0.3163926960D+01  0.3623119853D+00
 SP   3 1.00       0.000000000000
      0.7868272350D+01 -0.1193324198D+00  0.6899906659D-01
      0.1881288540D+01 -0.1608541517D+00  0.3164239610D+00
      0.5442492580D+00  0.1143456438D+01  0.7443082909D+00
 SP   1 1.00       0.000000000000
      0.1687144782D+00  0.1000000000D+01  0.1000000000D+01
 D   1 1.00       0.000000000000
      0.8000000000D+00  0.1000000000D+01
 ****
     40 0
 S   3 1.00       0.000000000000
      0.1873113696D+02  0.3349460434D-01
      0.2825394365D+01  0.2347269535D+00
      0.6401216923D+00  0.8137573261D+00
 S   1 1.00       0.000000000000
      0.1612777588D+00  0.1000000000D+01
 ****
     41 0
 S   3 1.00       0.000000000000
      0.1873113696D+02  0.3349460434D-01
      0.2825394365D+01  0.2347269535D+00
      0.6401216923D+00  0.8137573261D+00
 S   1 1.00       0.000000000000
      0.1612777588D+00  0.1000000000D+01
 ****
     42 0
 S   3 1.00       0.000000000000
      0.1873113696D+02  0.3349460434D-01
      0.2825394365D+01  0.2347269535D+00
      0.6401216923D+00  0.8137573261D+00
 S   1 1.00       0.000000000000
      0.1612777588D+00  0.1000000000D+01
 ****
     43 0
 S   6 1.00       0.000000000000
      0.3047524880D+04  0.1834737132D-02
      0.4573695180D+03  0.1403732281D-01
      0.1039486850D+03  0.6884262226D-01
      0.2921015530D+02  0.2321844432D+00
      0.9286662960D+01  0.4679413484D+00
      0.3163926960D+01  0.3623119853D+00
 SP   3 1.00       0.000000000000
      0.7868272350D+01 -0.1193324198D+00  0.6899906659D-01
      0.1881288540D+01 -0.1608541517D+00  0.3164239610D+00
      0.5442492580D+00  0.1143456438D+01  0.7443082909D+00
 SP   1 1.00       0.000000000000
      0.1687144782D+00  0.1000000000D+01  0.1000000000D+01
 D   1 1.00       0.000000000000
      0.8000000000D+00  0.1000000000D+01
 ****
     44 0
 S   3 1.00       0.000000000000
      0.1873113696D+02  0.3349460434D-01
      0.2825394365D+01  0.2347269535D+00
      0.6401216923D+00  0.8137573261D+00
 S   1 1.00       0.000000000000
      0.1612777588D+00  0.1000000000D+01
 ****
     45 0
 S   6 1.00       0.000000000000
      0.3047524880D+04  0.1834737132D-02
      0.4573695180D+03  0.1403732281D-01
      0.1039486850D+03  0.6884262226D-01
      0.2921015530D+02  0.2321844432D+00
      0.9286662960D+01  0.4679413484D+00
      0.3163926960D+01  0.3623119853D+00
 SP   3 1.00       0.000000000000
      0.7868272350D+01 -0.1193324198D+00  0.6899906659D-01
      0.1881288540D+01 -0.1608541517D+00  0.3164239610D+00
      0.5442492580D+00  0.1143456438D+01  0.7443082909D+00
 SP   1 1.00       0.000000000000
      0.1687144782D+00  0.1000000000D+01  0.1000000000D+01
 D   1 1.00       0.000000000000
      0.8000000000D+00  0.1000000000D+01
 ****
     46 0
 S   3 1.00       0.000000000000
      0.1873113696D+02  0.3349460434D-01
      0.2825394365D+01  0.2347269535D+00
      0.6401216923D+00  0.8137573261D+00
 S   1 1.00       0.000000000000
      0.1612777588D+00  0.1000000000D+01
 ****
     47 0
 S   3 1.00       0.000000000000
      0.1873113696D+02  0.3349460434D-01
      0.2825394365D+01  0.2347269535D+00
      0.6401216923D+00  0.8137573261D+00
 S   1 1.00       0.000000000000
      0.1612777588D+00  0.1000000000D+01
 ****
     48 0
 S   3 1.00       0.000000000000
      0.1873113696D+02  0.3349460434D-01
      0.2825394365D+01  0.2347269535D+00
      0.6401216923D+00  0.8137573261D+00
 S   1 1.00       0.000000000000
      0.1612777588D+00  0.1000000000D+01
 ****
     49 0
 S   6 1.00       0.000000000000
      0.3047524880D+04  0.1834737132D-02
      0.4573695180D+03  0.1403732281D-01
      0.1039486850D+03  0.6884262226D-01
      0.2921015530D+02  0.2321844432D+00
      0.9286662960D+01  0.4679413484D+00
      0.3163926960D+01  0.3623119853D+00
 SP   3 1.00       0.000000000000
      0.7868272350D+01 -0.1193324198D+00  0.6899906659D-01
      0.1881288540D+01 -0.1608541517D+00  0.3164239610D+00
      0.5442492580D+00  0.1143456438D+01  0.7443082909D+00
 SP   1 1.00       0.000000000000
      0.1687144782D+00  0.1000000000D+01  0.1000000000D+01
 D   1 1.00       0.000000000000
      0.8000000000D+00  0.1000000000D+01
 ****
     50 0
 S   3 1.00       0.000000000000
      0.1873113696D+02  0.3349460434D-01
      0.2825394365D+01  0.2347269535D+00
      0.6401216923D+00  0.8137573261D+00
 S   1 1.00       0.000000000000
      0.1612777588D+00  0.1000000000D+01
 ****
     51 0
 S   3 1.00       0.000000000000
      0.1873113696D+02  0.3349460434D-01
      0.2825394365D+01  0.2347269535D+00
      0.6401216923D+00  0.8137573261D+00
 S   1 1.00       0.000000000000
      0.1612777588D+00  0.1000000000D+01
 ****
     52 0
 S   3 1.00       0.000000000000
      0.1873113696D+02  0.3349460434D-01
      0.2825394365D+01  0.2347269535D+00
      0.6401216923D+00  0.8137573261D+00
 S   1 1.00       0.000000000000
      0.1612777588D+00  0.1000000000D+01
 ****
     53 0
 S   6 1.00       0.000000000000
      0.5484671660D+04  0.1831074430D-02
      0.8252349460D+03  0.1395017220D-01
      0.1880469580D+03  0.6844507810D-01
      0.5296450000D+02  0.2327143360D+00
      0.1689757040D+02  0.4701928980D+00
      0.5799635340D+01  0.3585208530D+00
 SP   3 1.00       0.000000000000
      0.1553961625D+02 -0.1107775495D+00  0.7087426823D-01
      0.3599933586D+01 -0.1480262627D+00  0.3397528391D+00
      0.1013761750D+01  0.1130767015D+01  0.7271585773D+00
 SP   1 1.00       0.000000000000
      0.2700058226D+00  0.1000000000D+01  0.1000000000D+01
 D   1 1.00       0.000000000000
      0.8000000000D+00  0.1000000000D+01
 ****
     54 0
 S   6 1.00       0.000000000000
      0.5484671660D+04  0.1831074430D-02
      0.8252349460D+03  0.1395017220D-01
      0.1880469580D+03  0.6844507810D-01
      0.5296450000D+02  0.2327143360D+00
      0.1689757040D+02  0.4701928980D+00
      0.5799635340D+01  0.3585208530D+00
 SP   3 1.00       0.000000000000
      0.1553961625D+02 -0.1107775495D+00  0.7087426823D-01
      0.3599933586D+01 -0.1480262627D+00  0.3397528391D+00
      0.1013761750D+01  0.1130767015D+01  0.7271585773D+00
 SP   1 1.00       0.000000000000
      0.2700058226D+00  0.1000000000D+01  0.1000000000D+01
 D   1 1.00       0.000000000000
      0.8000000000D+00  0.1000000000D+01
 ****
     55 0
 S   3 1.00       0.000000000000
      0.1873113696D+02  0.3349460434D-01
      0.2825394365D+01  0.2347269535D+00
      0.6401216923D+00  0.8137573261D+00
 S   1 1.00       0.000000000000
      0.1612777588D+00  0.1000000000D+01
 ****
     56 0
 S   6 1.00       0.000000000000
      0.5484671660D+04  0.1831074430D-02
      0.8252349460D+03  0.1395017220D-01
      0.1880469580D+03  0.6844507810D-01
      0.5296450000D+02  0.2327143360D+00
      0.1689757040D+02  0.4701928980D+00
      0.5799635340D+01  0.3585208530D+00
 SP   3 1.00       0.000000000000
      0.1553961625D+02 -0.1107775495D+00  0.7087426823D-01
      0.3599933586D+01 -0.1480262627D+00  0.3397528391D+00
      0.1013761750D+01  0.1130767015D+01  0.7271585773D+00
 SP   1 1.00       0.000000000000
      0.2700058226D+00  0.1000000000D+01  0.1000000000D+01
 D   1 1.00       0.000000000000
      0.8000000000D+00  0.1000000000D+01
 ****
     57 0
 S   3 1.00       0.000000000000
      0.1873113696D+02  0.3349460434D-01
      0.2825394365D+01  0.2347269535D+00
      0.6401216923D+00  0.8137573261D+00
 S   1 1.00       0.000000000000
      0.1612777588D+00  0.1000000000D+01
 ****
     58 0
 S   6 1.00       0.000000000000
      0.3047524880D+04  0.1834737132D-02
      0.4573695180D+03  0.1403732281D-01
      0.1039486850D+03  0.6884262226D-01
      0.2921015530D+02  0.2321844432D+00
      0.9286662960D+01  0.4679413484D+00
      0.3163926960D+01  0.3623119853D+00
 SP   3 1.00       0.000000000000
      0.7868272350D+01 -0.1193324198D+00  0.6899906659D-01
      0.1881288540D+01 -0.1608541517D+00  0.3164239610D+00
      0.5442492580D+00  0.1143456438D+01  0.7443082909D+00
 SP   1 1.00       0.000000000000
      0.1687144782D+00  0.1000000000D+01  0.1000000000D+01
 D   1 1.00       0.000000000000
      0.8000000000D+00  0.1000000000D+01
 ****
     59 0
 S   3 1.00       0.000000000000
      0.1873113696D+02  0.3349460434D-01
      0.2825394365D+01  0.2347269535D+00
      0.6401216923D+00  0.8137573261D+00
 S   1 1.00       0.000000000000
      0.1612777588D+00  0.1000000000D+01
 ****
     60 0
 S   3 1.00       0.000000000000
      0.1873113696D+02  0.3349460434D-01
      0.2825394365D+01  0.2347269535D+00
      0.6401216923D+00  0.8137573261D+00
 S   1 1.00       0.000000000000
      0.1612777588D+00  0.1000000000D+01
 ****
     61 0
 S   6 1.00       0.000000000000
      0.3047524880D+04  0.1834737132D-02
      0.4573695180D+03  0.1403732281D-01
      0.1039486850D+03  0.6884262226D-01
      0.2921015530D+02  0.2321844432D+00
      0.9286662960D+01  0.4679413484D+00
      0.3163926960D+01  0.3623119853D+00
 SP   3 1.00       0.000000000000
      0.7868272350D+01 -0.1193324198D+00  0.6899906659D-01
      0.1881288540D+01 -0.1608541517D+00  0.3164239610D+00
      0.5442492580D+00  0.1143456438D+01  0.7443082909D+00
 SP   1 1.00       0.000000000000
      0.1687144782D+00  0.1000000000D+01  0.1000000000D+01
 D   1 1.00       0.000000000000
      0.8000000000D+00  0.1000000000D+01
 ****
     62 0
 S   3 1.00       0.000000000000
      0.1873113696D+02  0.3349460434D-01
      0.2825394365D+01  0.2347269535D+00
      0.6401216923D+00  0.8137573261D+00
 S   1 1.00       0.000000000000
      0.1612777588D+00  0.1000000000D+01
 ****
     63 0
 S   3 1.00       0.000000000000
      0.1873113696D+02  0.3349460434D-01
      0.2825394365D+01  0.2347269535D+00
      0.6401216923D+00  0.8137573261D+00
 S   1 1.00       0.000000000000
      0.1612777588D+00  0.1000000000D+01
 ****
     64 0
 S   6 1.00       0.000000000000
      0.3047524880D+04  0.1834737132D-02
      0.4573695180D+03  0.1403732281D-01
      0.1039486850D+03  0.6884262226D-01
      0.2921015530D+02  0.2321844432D+00
      0.9286662960D+01  0.4679413484D+00
      0.3163926960D+01  0.3623119853D+00
 SP   3 1.00       0.000000000000
      0.7868272350D+01 -0.1193324198D+00  0.6899906659D-01
      0.1881288540D+01 -0.1608541517D+00  0.3164239610D+00
      0.5442492580D+00  0.1143456438D+01  0.7443082909D+00
 SP   1 1.00       0.000000000000
      0.1687144782D+00  0.1000000000D+01  0.1000000000D+01
 D   1 1.00       0.000000000000
      0.8000000000D+00  0.1000000000D+01
 ****
     65 0
 S   3 1.00       0.000000000000
      0.1873113696D+02  0.3349460434D-01
      0.2825394365D+01  0.2347269535D+00
      0.6401216923D+00  0.8137573261D+00
 S   1 1.00       0.000000000000
      0.1612777588D+00  0.1000000000D+01
 ****
     66 0
 S   3 1.00       0.000000000000
      0.1873113696D+02  0.3349460434D-01
      0.2825394365D+01  0.2347269535D+00
      0.6401216923D+00  0.8137573261D+00
 S   1 1.00       0.000000000000
      0.1612777588D+00  0.1000000000D+01
 ****
     67 0
 S   6 1.00       0.000000000000
      0.3047524880D+04  0.1834737132D-02
      0.4573695180D+03  0.1403732281D-01
      0.1039486850D+03  0.6884262226D-01
      0.2921015530D+02  0.2321844432D+00
      0.9286662960D+01  0.4679413484D+00
      0.3163926960D+01  0.3623119853D+00
 SP   3 1.00       0.000000000000
      0.7868272350D+01 -0.1193324198D+00  0.6899906659D-01
      0.1881288540D+01 -0.1608541517D+00  0.3164239610D+00
      0.5442492580D+00  0.1143456438D+01  0.7443082909D+00
 SP   1 1.00       0.000000000000
      0.1687144782D+00  0.1000000000D+01  0.1000000000D+01
 D   1 1.00       0.000000000000
      0.8000000000D+00  0.1000000000D+01
 ****
     68 0
 S   3 1.00       0.000000000000
      0.1873113696D+02  0.3349460434D-01
      0.2825394365D+01  0.2347269535D+00
      0.6401216923D+00  0.8137573261D+00
 S   1 1.00       0.000000000000
      0.1612777588D+00  0.1000000000D+01
 ****
     69 0
 S   6 1.00       0.000000000000
      0.3047524880D+04  0.1834737132D-02
      0.4573695180D+03  0.1403732281D-01
      0.1039486850D+03  0.6884262226D-01
      0.2921015530D+02  0.2321844432D+00
      0.9286662960D+01  0.4679413484D+00
      0.3163926960D+01  0.3623119853D+00
 SP   3 1.00       0.000000000000
      0.7868272350D+01 -0.1193324198D+00  0.6899906659D-01
      0.1881288540D+01 -0.1608541517D+00  0.3164239610D+00
      0.5442492580D+00  0.1143456438D+01  0.7443082909D+00
 SP   1 1.00       0.000000000000
      0.1687144782D+00  0.1000000000D+01  0.1000000000D+01
 D   1 1.00       0.000000000000
      0.8000000000D+00  0.1000000000D+01
 ****
     70 0
 S   3 1.00       0.000000000000
      0.1873113696D+02  0.3349460434D-01
      0.2825394365D+01  0.2347269535D+00
      0.6401216923D+00  0.8137573261D+00
 S   1 1.00       0.000000000000
      0.1612777588D+00  0.1000000000D+01
 ****
     71 0
 S   3 1.00       0.000000000000
      0.1873113696D+02  0.3349460434D-01
      0.2825394365D+01  0.2347269535D+00
      0.6401216923D+00  0.8137573261D+00
 S   1 1.00       0.000000000000
      0.1612777588D+00  0.1000000000D+01
 ****
     72 0
 S   3 1.00       0.000000000000
      0.1873113696D+02  0.3349460434D-01
      0.2825394365D+01  0.2347269535D+00
      0.6401216923D+00  0.8137573261D+00
 S   1 1.00       0.000000000000
      0.1612777588D+00  0.1000000000D+01
 ****
     73 0
 S   6 1.00       0.000000000000
      0.3047524880D+04  0.1834737132D-02
      0.4573695180D+03  0.1403732281D-01
      0.1039486850D+03  0.6884262226D-01
      0.2921015530D+02  0.2321844432D+00
      0.9286662960D+01  0.4679413484D+00
      0.3163926960D+01  0.3623119853D+00
 SP   3 1.00       0.000000000000
      0.7868272350D+01 -0.1193324198D+00  0.6899906659D-01
      0.1881288540D+01 -0.1608541517D+00  0.3164239610D+00
      0.5442492580D+00  0.1143456438D+01  0.7443082909D+00
 SP   1 1.00       0.000000000000
      0.1687144782D+00  0.1000000000D+01  0.1000000000D+01
 D   1 1.00       0.000000000000
      0.8000000000D+00  0.1000000000D+01
 ****
     74 0
 S   3 1.00       0.000000000000
      0.1873113696D+02  0.3349460434D-01
      0.2825394365D+01  0.2347269535D+00
      0.6401216923D+00  0.8137573261D+00
 S   1 1.00       0.000000000000
      0.1612777588D+00  0.1000000000D+01
 ****
     75 0
 S   3 1.00       0.000000000000
      0.1873113696D+02  0.3349460434D-01
      0.2825394365D+01  0.2347269535D+00
      0.6401216923D+00  0.8137573261D+00
 S   1 1.00       0.000000000000
      0.1612777588D+00  0.1000000000D+01
 ****
     76 0
 S   3 1.00       0.000000000000
      0.1873113696D+02  0.3349460434D-01
      0.2825394365D+01  0.2347269535D+00
      0.6401216923D+00  0.8137573261D+00
 S   1 1.00       0.000000000000
      0.1612777588D+00  0.1000000000D+01
 ****

 AO basis set (Overlap normalization):
 Atom C1       Shell     1 S   6     bf    1 -     1          3.323334303618         -2.358844957299         -0.133232400896
      0.3047524880D+04  0.1834737132D-02
      0.4573695180D+03  0.1403732281D-01
      0.1039486850D+03  0.6884262226D-01
      0.2921015530D+02  0.2321844432D+00
      0.9286662960D+01  0.4679413484D+00
      0.3163926960D+01  0.3623119853D+00
 Atom C1       Shell     2 SP   3    bf    2 -     5          3.323334303618         -2.358844957299         -0.133232400896
      0.7868272350D+01 -0.1193324198D+00  0.6899906659D-01
      0.1881288540D+01 -0.1608541517D+00  0.3164239610D+00
      0.5442492580D+00  0.1143456438D+01  0.7443082909D+00
 Atom C1       Shell     3 SP   1    bf    6 -     9          3.323334303618         -2.358844957299         -0.133232400896
      0.1687144782D+00  0.1000000000D+01  0.1000000000D+01
 Atom C1       Shell     4 D   1     bf   10 -    15          3.323334303618         -2.358844957299         -0.133232400896
      0.8000000000D+00  0.1000000000D+01
 Atom H2       Shell     5 S   3     bf   16 -    16          3.535317941951         -2.131159395555         -2.182560097547
      0.1873113696D+02  0.3349460434D-01
      0.2825394365D+01  0.2347269535D+00
      0.6401216923D+00  0.8137573261D+00
 Atom H2       Shell     6 S   1     bf   17 -    17          3.535317941951         -2.131159395555         -2.182560097547
      0.1612777588D+00  0.1000000000D+01
 Atom C3       Shell     7 S   6     bf   18 -    18          5.955107228440         -2.472981977978          1.082527819984
      0.3047524880D+04  0.1834737132D-02
      0.4573695180D+03  0.1403732281D-01
      0.1039486850D+03  0.6884262226D-01
      0.2921015530D+02  0.2321844432D+00
      0.9286662960D+01  0.4679413484D+00
      0.3163926960D+01  0.3623119853D+00
 Atom C3       Shell     8 SP   3    bf   19 -    22          5.955107228440         -2.472981977978          1.082527819984
      0.7868272350D+01 -0.1193324198D+00  0.6899906659D-01
      0.1881288540D+01 -0.1608541517D+00  0.3164239610D+00
      0.5442492580D+00  0.1143456438D+01  0.7443082909D+00
 Atom C3       Shell     9 SP   1    bf   23 -    26          5.955107228440         -2.472981977978          1.082527819984
      0.1687144782D+00  0.1000000000D+01  0.1000000000D+01
 Atom C3       Shell    10 D   1     bf   27 -    32          5.955107228440         -2.472981977978          1.082527819984
      0.8000000000D+00  0.1000000000D+01
 Atom H4       Shell    11 S   3     bf   33 -    33          7.044873814451         -4.021722922782          0.250419023815
      0.1873113696D+02  0.3349460434D-01
      0.2825394365D+01  0.2347269535D+00
      0.6401216923D+00  0.8137573261D+00
 Atom H4       Shell    12 S   1     bf   34 -    34          7.044873814451         -4.021722922782          0.250419023815
      0.1612777588D+00  0.1000000000D+01
 Atom H5       Shell    13 S   3     bf   35 -    35          5.695849785427         -2.938662540179          3.096037590820
      0.1873113696D+02  0.3349460434D-01
      0.2825394365D+01  0.2347269535D+00
      0.6401216923D+00  0.8137573261D+00
 Atom H5       Shell    14 S   1     bf   36 -    36          5.695849785427         -2.938662540179          3.096037590820
      0.1612777588D+00  0.1000000000D+01
 Atom C6       Shell    15 S   6     bf   37 -    37          7.397665425597         -0.006761818049          0.853567316710
      0.3047524880D+04  0.1834737132D-02
      0.4573695180D+03  0.1403732281D-01
      0.1039486850D+03  0.6884262226D-01
      0.2921015530D+02  0.2321844432D+00
      0.9286662960D+01  0.4679413484D+00
      0.3163926960D+01  0.3623119853D+00
 Atom C6       Shell    16 SP   3    bf   38 -    41          7.397665425597         -0.006761818049          0.853567316710
      0.7868272350D+01 -0.1193324198D+00  0.6899906659D-01
      0.1881288540D+01 -0.1608541517D+00  0.3164239610D+00
      0.5442492580D+00  0.1143456438D+01  0.7443082909D+00
 Atom C6       Shell    17 SP   1    bf   42 -    45          7.397665425597         -0.006761818049          0.853567316710
      0.1687144782D+00  0.1000000000D+01  0.1000000000D+01
 Atom C6       Shell    18 D   1     bf   46 -    51          7.397665425597         -0.006761818049          0.853567316710
      0.8000000000D+00  0.1000000000D+01
 Atom C7       Shell    19 S   6     bf   52 -    52          6.030282990650          2.417369511073          1.655351129604
      0.3047524880D+04  0.1834737132D-02
      0.4573695180D+03  0.1403732281D-01
      0.1039486850D+03  0.6884262226D-01
      0.2921015530D+02  0.2321844432D+00
      0.9286662960D+01  0.4679413484D+00
      0.3163926960D+01  0.3623119853D+00
 Atom C7       Shell    20 SP   3    bf   53 -    56          6.030282990650          2.417369511073          1.655351129604
      0.7868272350D+01 -0.1193324198D+00  0.6899906659D-01
      0.1881288540D+01 -0.1608541517D+00  0.3164239610D+00
      0.5442492580D+00  0.1143456438D+01  0.7443082909D+00
 Atom C7       Shell    21 SP   1    bf   57 -    60          6.030282990650          2.417369511073          1.655351129604
      0.1687144782D+00  0.1000000000D+01  0.1000000000D+01
 Atom C7       Shell    22 D   1     bf   61 -    66          6.030282990650          2.417369511073          1.655351129604
      0.8000000000D+00  0.1000000000D+01
 Atom C8       Shell    23 S   6     bf   67 -    67          3.304460663866          2.370379127518          0.530623060559
      0.3047524880D+04  0.1834737132D-02
      0.4573695180D+03  0.1403732281D-01
      0.1039486850D+03  0.6884262226D-01
      0.2921015530D+02  0.2321844432D+00
      0.9286662960D+01  0.4679413484D+00
      0.3163926960D+01  0.3623119853D+00
 Atom C8       Shell    24 SP   3    bf   68 -    71          3.304460663866          2.370379127518          0.530623060559
      0.7868272350D+01 -0.1193324198D+00  0.6899906659D-01
      0.1881288540D+01 -0.1608541517D+00  0.3164239610D+00
      0.5442492580D+00  0.1143456438D+01  0.7443082909D+00
 Atom C8       Shell    25 SP   1    bf   72 -    75          3.304460663866          2.370379127518          0.530623060559
      0.1687144782D+00  0.1000000000D+01  0.1000000000D+01
 Atom C8       Shell    26 D   1     bf   76 -    81          3.304460663866          2.370379127518          0.530623060559
      0.8000000000D+00  0.1000000000D+01
 Atom H9       Shell    27 S   3     bf   82 -    82          3.436289962006          2.729239575242         -1.510516981882
      0.1873113696D+02  0.3349460434D-01
      0.2825394365D+01  0.2347269535D+00
      0.6401216923D+00  0.8137573261D+00
 Atom H9       Shell    28 S   1     bf   83 -    83          3.436289962006          2.729239575242         -1.510516981882
      0.1612777588D+00  0.1000000000D+01
 Atom H10      Shell    29 S   3     bf   84 -    84          2.205544156200          3.931083607215          1.329201047555
      0.1873113696D+02  0.3349460434D-01
      0.2825394365D+01  0.2347269535D+00
      0.6401216923D+00  0.8137573261D+00
 Atom H10      Shell    30 S   1     bf   85 -    85          2.205544156200          3.931083607215          1.329201047555
      0.1612777588D+00  0.1000000000D+01
 Atom C11      Shell    31 S   6     bf   86 -    86          1.850306332370         -0.111707135229          0.923541645533
      0.3047524880D+04  0.1834737132D-02
      0.4573695180D+03  0.1403732281D-01
      0.1039486850D+03  0.6884262226D-01
      0.2921015530D+02  0.2321844432D+00
      0.9286662960D+01  0.4679413484D+00
      0.3163926960D+01  0.3623119853D+00
 Atom C11      Shell    32 SP   3    bf   87 -    90          1.850306332370         -0.111707135229          0.923541645533
      0.7868272350D+01 -0.1193324198D+00  0.6899906659D-01
      0.1881288540D+01 -0.1608541517D+00  0.3164239610D+00
      0.5442492580D+00  0.1143456438D+01  0.7443082909D+00
 Atom C11      Shell    33 SP   1    bf   91 -    94          1.850306332370         -0.111707135229          0.923541645533
      0.1687144782D+00  0.1000000000D+01  0.1000000000D+01
 Atom C11      Shell    34 D   1     bf   95 -   100          1.850306332370         -0.111707135229          0.923541645533
      0.8000000000D+00  0.1000000000D+01
 Atom H12      Shell    35 S   3     bf  101 -   101          1.487755835324         -0.430644794033          2.945784294364
      0.1873113696D+02  0.3349460434D-01
      0.2825394365D+01  0.2347269535D+00
      0.6401216923D+00  0.8137573261D+00
 Atom H12      Shell    36 S   1     bf  102 -   102          1.487755835324         -0.430644794033          2.945784294364
      0.1612777588D+00  0.1000000000D+01
 Atom H13      Shell    37 S   3     bf  103 -   103          0.000000000000          0.000000000000          0.000000000000
      0.1873113696D+02  0.3349460434D-01
      0.2825394365D+01  0.2347269535D+00
      0.6401216923D+00  0.8137573261D+00
 Atom H13      Shell    38 S   1     bf  104 -   104          0.000000000000          0.000000000000          0.000000000000
      0.1612777588D+00  0.1000000000D+01
 Atom C14      Shell    39 S   6     bf  105 -   105          9.781369692379          0.000000000000          0.000000000000
      0.3047524880D+04  0.1834737132D-02
      0.4573695180D+03  0.1403732281D-01
      0.1039486850D+03  0.6884262226D-01
      0.2921015530D+02  0.2321844432D+00
      0.9286662960D+01  0.4679413484D+00
      0.3163926960D+01  0.3623119853D+00
 Atom C14      Shell    40 SP   3    bf  106 -   109          9.781369692379          0.000000000000          0.000000000000
      0.7868272350D+01 -0.1193324198D+00  0.6899906659D-01
      0.1881288540D+01 -0.1608541517D+00  0.3164239610D+00
      0.5442492580D+00  0.1143456438D+01  0.7443082909D+00
 Atom C14      Shell    41 SP   1    bf  110 -   113          9.781369692379          0.000000000000          0.000000000000
      0.1687144782D+00  0.1000000000D+01  0.1000000000D+01
 Atom C14      Shell    42 D   1     bf  114 -   119          9.781369692379          0.000000000000          0.000000000000
      0.8000000000D+00  0.1000000000D+01
 Atom H15      Shell    43 S   3     bf  120 -   120         10.652095495608         -1.770350999236         -0.595585287658
      0.1873113696D+02  0.3349460434D-01
      0.2825394365D+01  0.2347269535D+00
      0.6401216923D+00  0.8137573261D+00
 Atom H15      Shell    44 S   1     bf  121 -   121         10.652095495608         -1.770350999236         -0.595585287658
      0.1612777588D+00  0.1000000000D+01
 Atom C16      Shell    45 S   6     bf  122 -   122         11.453537589326          2.280748736734         -0.203023312902
      0.3047524880D+04  0.1834737132D-02
      0.4573695180D+03  0.1403732281D-01
      0.1039486850D+03  0.6884262226D-01
      0.2921015530D+02  0.2321844432D+00
      0.9286662960D+01  0.4679413484D+00
      0.3163926960D+01  0.3623119853D+00
 Atom C16      Shell    46 SP   3    bf  123 -   126         11.453537589326          2.280748736734         -0.203023312902
      0.7868272350D+01 -0.1193324198D+00  0.6899906659D-01
      0.1881288540D+01 -0.1608541517D+00  0.3164239610D+00
      0.5442492580D+00  0.1143456438D+01  0.7443082909D+00
 Atom C16      Shell    47 SP   1    bf  127 -   130         11.453537589326          2.280748736734         -0.203023312902
      0.1687144782D+00  0.1000000000D+01  0.1000000000D+01
 Atom C16      Shell    48 D   1     bf  131 -   136         11.453537589326          2.280748736734         -0.203023312902
      0.8000000000D+00  0.1000000000D+01
 Atom H17      Shell    49 S   3     bf  137 -   137         11.895437913459          2.636893515724         -2.207095318999
      0.1873113696D+02  0.3349460434D-01
      0.2825394365D+01  0.2347269535D+00
      0.6401216923D+00  0.8137573261D+00
 Atom H17      Shell    50 S   1     bf  138 -   138         11.895437913459          2.636893515724         -2.207095318999
      0.1612777588D+00  0.1000000000D+01
 Atom C18      Shell    51 S   6     bf  139 -   139         10.360809348930          4.685119955574          1.002673757273
      0.3047524880D+04  0.1834737132D-02
      0.4573695180D+03  0.1403732281D-01
      0.1039486850D+03  0.6884262226D-01
      0.2921015530D+02  0.2321844432D+00
      0.9286662960D+01  0.4679413484D+00
      0.3163926960D+01  0.3623119853D+00
 Atom C18      Shell    52 SP   3    bf  140 -   143         10.360809348930          4.685119955574          1.002673757273
      0.7868272350D+01 -0.1193324198D+00  0.6899906659D-01
      0.1881288540D+01 -0.1608541517D+00  0.3164239610D+00
      0.5442492580D+00  0.1143456438D+01  0.7443082909D+00
 Atom C18      Shell    53 SP   1    bf  144 -   147         10.360809348930          4.685119955574          1.002673757273
      0.1687144782D+00  0.1000000000D+01  0.1000000000D+01
 Atom C18      Shell    54 D   1     bf  148 -   153         10.360809348930          4.685119955574          1.002673757273
      0.8000000000D+00  0.1000000000D+01
 Atom H19      Shell    55 S   3     bf  154 -   154         10.754347915254          4.565117961971          3.031458581284
      0.1873113696D+02  0.3349460434D-01
      0.2825394365D+01  0.2347269535D+00
      0.6401216923D+00  0.8137573261D+00
 Atom H19      Shell    56 S   1     bf  155 -   155         10.754347915254          4.565117961971          3.031458581284
      0.1612777588D+00  0.1000000000D+01
 Atom C20      Shell    57 S   6     bf  156 -   156          7.457622902005          4.778332851366          0.570009809764
      0.3047524880D+04  0.1834737132D-02
      0.4573695180D+03  0.1403732281D-01
      0.1039486850D+03  0.6884262226D-01
      0.2921015530D+02  0.2321844432D+00
      0.9286662960D+01  0.4679413484D+00
      0.3163926960D+01  0.3623119853D+00
 Atom C20      Shell    58 SP   3    bf  157 -   160          7.457622902005          4.778332851366          0.570009809764
      0.7868272350D+01 -0.1193324198D+00  0.6899906659D-01
      0.1881288540D+01 -0.1608541517D+00  0.3164239610D+00
      0.5442492580D+00  0.1143456438D+01  0.7443082909D+00
 Atom C20      Shell    59 SP   1    bf  161 -   164          7.457622902005          4.778332851366          0.570009809764
      0.1687144782D+00  0.1000000000D+01  0.1000000000D+01
 Atom C20      Shell    60 D   1     bf  165 -   170          7.457622902005          4.778332851366          0.570009809764
      0.8000000000D+00  0.1000000000D+01
 Atom H21      Shell    61 S   3     bf  171 -   171          7.183403741307          4.691780767761         -1.493973185479
      0.1873113696D+02  0.3349460434D-01
      0.2825394365D+01  0.2347269535D+00
      0.6401216923D+00  0.8137573261D+00
 Atom H21      Shell    62 S   1     bf  172 -   172          7.183403741307          4.691780767761         -1.493973185479
      0.1612777588D+00  0.1000000000D+01
 Atom C22      Shell    63 S   6     bf  173 -   173          6.328755690222          7.321725836084          1.457608788661
      0.3047524880D+04  0.1834737132D-02
      0.4573695180D+03  0.1403732281D-01
      0.1039486850D+03  0.6884262226D-01
      0.2921015530D+02  0.2321844432D+00
      0.9286662960D+01  0.4679413484D+00
      0.3163926960D+01  0.3623119853D+00
 Atom C22      Shell    64 SP   3    bf  174 -   177          6.328755690222          7.321725836084          1.457608788661
      0.7868272350D+01 -0.1193324198D+00  0.6899906659D-01
      0.1881288540D+01 -0.1608541517D+00  0.3164239610D+00
      0.5442492580D+00  0.1143456438D+01  0.7443082909D+00
 Atom C22      Shell    65 SP   1    bf  178 -   181          6.328755690222          7.321725836084          1.457608788661
      0.1687144782D+00  0.1000000000D+01  0.1000000000D+01
 Atom C22      Shell    66 D   1     bf  182 -   187          6.328755690222          7.321725836084          1.457608788661
      0.8000000000D+00  0.1000000000D+01
 Atom H23      Shell    67 S   3     bf  188 -   188          6.353244140952          7.413842369465          3.525495901403
      0.1873113696D+02  0.3349460434D-01
      0.2825394365D+01  0.2347269535D+00
      0.6401216923D+00  0.8137573261D+00
 Atom H23      Shell    68 S   1     bf  189 -   189          6.353244140952          7.413842369465          3.525495901403
      0.1612777588D+00  0.1000000000D+01
 Atom H24      Shell    69 S   3     bf  190 -   190          4.336560159336          7.428432623684          0.904730385641
      0.1873113696D+02  0.3349460434D-01
      0.2825394365D+01  0.2347269535D+00
      0.6401216923D+00  0.8137573261D+00
 Atom H24      Shell    70 S   1     bf  191 -   191          4.336560159336          7.428432623684          0.904730385641
      0.1612777588D+00  0.1000000000D+01
 Atom C25      Shell    71 S   6     bf  192 -   192          7.698820818182          9.664965075929          0.402034415970
      0.3047524880D+04  0.1834737132D-02
      0.4573695180D+03  0.1403732281D-01
      0.1039486850D+03  0.6884262226D-01
      0.2921015530D+02  0.2321844432D+00
      0.9286662960D+01  0.4679413484D+00
      0.3163926960D+01  0.3623119853D+00
 Atom C25      Shell    72 SP   3    bf  193 -   196          7.698820818182          9.664965075929          0.402034415970
      0.7868272350D+01 -0.1193324198D+00  0.6899906659D-01
      0.1881288540D+01 -0.1608541517D+00  0.3164239610D+00
      0.5442492580D+00  0.1143456438D+01  0.7443082909D+00
 Atom C25      Shell    73 SP   1    bf  197 -   200          7.698820818182          9.664965075929          0.402034415970
      0.1687144782D+00  0.1000000000D+01  0.1000000000D+01
 Atom C25      Shell    74 D   1     bf  201 -   206          7.698820818182          9.664965075929          0.402034415970
      0.8000000000D+00  0.1000000000D+01
 Atom H26      Shell    75 S   3     bf  207 -   207          7.441287863648          9.744500209561         -1.658550643817
      0.1873113696D+02  0.3349460434D-01
      0.2825394365D+01  0.2347269535D+00
      0.6401216923D+00  0.8137573261D+00
 Atom H26      Shell    76 S   1     bf  208 -   208          7.441287863648          9.744500209561         -1.658550643817
      0.1612777588D+00  0.1000000000D+01
 Atom H27      Shell    77 S   3     bf  209 -   209          6.787615323741         11.354445207513          1.171499263265
      0.1873113696D+02  0.3349460434D-01
      0.2825394365D+01  0.2347269535D+00
      0.6401216923D+00  0.8137573261D+00
 Atom H27      Shell    78 S   1     bf  210 -   210          6.787615323741         11.354445207513          1.171499263265
      0.1612777588D+00  0.1000000000D+01
 Atom C28      Shell    79 S   6     bf  211 -   211         10.553367812042          9.612473151581          0.982984549516
      0.3047524880D+04  0.1834737132D-02
      0.4573695180D+03  0.1403732281D-01
      0.1039486850D+03  0.6884262226D-01
      0.2921015530D+02  0.2321844432D+00
      0.9286662960D+01  0.4679413484D+00
      0.3163926960D+01  0.3623119853D+00
 Atom C28      Shell    80 SP   3    bf  212 -   215         10.553367812042          9.612473151581          0.982984549516
      0.7868272350D+01 -0.1193324198D+00  0.6899906659D-01
      0.1881288540D+01 -0.1608541517D+00  0.3164239610D+00
      0.5442492580D+00  0.1143456438D+01  0.7443082909D+00
 Atom C28      Shell    81 SP   1    bf  216 -   219         10.553367812042          9.612473151581          0.982984549516
      0.1687144782D+00  0.1000000000D+01  0.1000000000D+01
 Atom C28      Shell    82 D   1     bf  220 -   225         10.553367812042          9.612473151581          0.982984549516
      0.8000000000D+00  0.1000000000D+01
 Atom C29      Shell    83 S   6     bf  226 -   226         11.586143451523          7.080357901247         -0.101574215834
      0.3047524880D+04  0.1834737132D-02
      0.4573695180D+03  0.1403732281D-01
      0.1039486850D+03  0.6884262226D-01
      0.2921015530D+02  0.2321844432D+00
      0.9286662960D+01  0.4679413484D+00
      0.3163926960D+01  0.3623119853D+00
 Atom C29      Shell    84 SP   3    bf  227 -   230         11.586143451523          7.080357901247         -0.101574215834
      0.7868272350D+01 -0.1193324198D+00  0.6899906659D-01
      0.1881288540D+01 -0.1608541517D+00  0.3164239610D+00
      0.5442492580D+00  0.1143456438D+01  0.7443082909D+00
 Atom C29      Shell    85 SP   1    bf  231 -   234         11.586143451523          7.080357901247         -0.101574215834
      0.1687144782D+00  0.1000000000D+01  0.1000000000D+01
 Atom C29      Shell    86 D   1     bf  235 -   240         11.586143451523          7.080357901247         -0.101574215834
      0.8000000000D+00  0.1000000000D+01
 Atom H30      Shell    87 S   3     bf  241 -   241         11.059147455714          7.103944725844         -2.120935089005
      0.1873113696D+02  0.3349460434D-01
      0.2825394365D+01  0.2347269535D+00
      0.6401216923D+00  0.8137573261D+00
 Atom H30      Shell    88 S   1     bf  242 -   242         11.059147455714          7.103944725844         -2.120935089005
      0.1612777588D+00  0.1000000000D+01
 Atom C31      Shell    89 S   6     bf  243 -   243         14.472322136484          7.389471629776          0.000000000000
      0.3047524880D+04  0.1834737132D-02
      0.4573695180D+03  0.1403732281D-01
      0.1039486850D+03  0.6884262226D-01
      0.2921015530D+02  0.2321844432D+00
      0.9286662960D+01  0.4679413484D+00
      0.3163926960D+01  0.3623119853D+00
 Atom C31      Shell    90 SP   3    bf  244 -   247         14.472322136484          7.389471629776          0.000000000000
      0.7868272350D+01 -0.1193324198D+00  0.6899906659D-01
      0.1881288540D+01 -0.1608541517D+00  0.3164239610D+00
      0.5442492580D+00  0.1143456438D+01  0.7443082909D+00
 Atom C31      Shell    91 SP   1    bf  248 -   251         14.472322136484          7.389471629776          0.000000000000
      0.1687144782D+00  0.1000000000D+01  0.1000000000D+01
 Atom C31      Shell    92 D   1     bf  252 -   257         14.472322136484          7.389471629776          0.000000000000
      0.8000000000D+00  0.1000000000D+01
 Atom H32      Shell    93 S   3     bf  258 -   258         15.447888547168          6.157966078476         -1.340832992204
      0.1873113696D+02  0.3349460434D-01
      0.2825394365D+01  0.2347269535D+00
      0.6401216923D+00  0.8137573261D+00
 Atom H32      Shell    94 S   1     bf  259 -   259         15.447888547168          6.157966078476         -1.340832992204
      0.1612777588D+00  0.1000000000D+01
 Atom H33      Shell    95 S   3     bf  260 -   260         15.195321055919          6.888257640030          1.872459572929
      0.1873113696D+02  0.3349460434D-01
      0.2825394365D+01  0.2347269535D+00
      0.6401216923D+00  0.8137573261D+00
 Atom H33      Shell    96 S   1     bf  261 -   261         15.195321055919          6.888257640030          1.872459572929
      0.1612777588D+00  0.1000000000D+01
 Atom C34      Shell    97 S   6     bf  262 -   262         14.884044932673         10.234474391727         -0.584061435343
      0.3047524880D+04  0.1834737132D-02
      0.4573695180D+03  0.1403732281D-01
      0.1039486850D+03  0.6884262226D-01
      0.2921015530D+02  0.2321844432D+00
      0.9286662960D+01  0.4679413484D+00
      0.3163926960D+01  0.3623119853D+00
 Atom C34      Shell    98 SP   3    bf  263 -   266         14.884044932673         10.234474391727         -0.584061435343
      0.7868272350D+01 -0.1193324198D+00  0.6899906659D-01
      0.1881288540D+01 -0.1608541517D+00  0.3164239610D+00
      0.5442492580D+00  0.1143456438D+01  0.7443082909D+00
 Atom C34      Shell    99 SP   1    bf  267 -   270         14.884044932673         10.234474391727         -0.584061435343
      0.1687144782D+00  0.1000000000D+01  0.1000000000D+01
 Atom C34      Shell   100 D   1     bf  271 -   276         14.884044932673         10.234474391727         -0.584061435343
      0.8000000000D+00  0.1000000000D+01
 Atom H35      Shell   101 S   3     bf  277 -   277         16.147635010147         11.096038840458          0.814364022117
      0.1873113696D+02  0.3349460434D-01
      0.2825394365D+01  0.2347269535D+00
      0.6401216923D+00  0.8137573261D+00
 Atom H35      Shell   102 S   1     bf  278 -   278         16.147635010147         11.096038840458          0.814364022117
      0.1612777588D+00  0.1000000000D+01
 Atom H36      Shell   103 S   3     bf  279 -   279         15.789600580613         10.498363326725         -2.424283527664
      0.1873113696D+02  0.3349460434D-01
      0.2825394365D+01  0.2347269535D+00
      0.6401216923D+00  0.8137573261D+00
 Atom H36      Shell   104 S   1     bf  280 -   280         15.789600580613         10.498363326725         -2.424283527664
      0.1612777588D+00  0.1000000000D+01
 Atom C37      Shell   105 S   6     bf  281 -   281         12.230094295339         11.543414551576         -0.517084722392
      0.3047524880D+04  0.1834737132D-02
      0.4573695180D+03  0.1403732281D-01
      0.1039486850D+03  0.6884262226D-01
      0.2921015530D+02  0.2321844432D+00
      0.9286662960D+01  0.4679413484D+00
      0.3163926960D+01  0.3623119853D+00
 Atom C37      Shell   106 SP   3    bf  282 -   285         12.230094295339         11.543414551576         -0.517084722392
      0.7868272350D+01 -0.1193324198D+00  0.6899906659D-01
      0.1881288540D+01 -0.1608541517D+00  0.3164239610D+00
      0.5442492580D+00  0.1143456438D+01  0.7443082909D+00
 Atom C37      Shell   107 SP   1    bf  286 -   289         12.230094295339         11.543414551576         -0.517084722392
      0.1687144782D+00  0.1000000000D+01  0.1000000000D+01
 Atom C37      Shell   108 D   1     bf  290 -   295         12.230094295339         11.543414551576         -0.517084722392
      0.8000000000D+00  0.1000000000D+01
 Atom H38      Shell   109 S   3     bf  296 -   296         11.476763646307         11.569841540065         -2.458323107804
      0.1873113696D+02  0.3349460434D-01
      0.2825394365D+01  0.2347269535D+00
      0.6401216923D+00  0.8137573261D+00
 Atom H38      Shell   110 S   1     bf  297 -   297         11.476763646307         11.569841540065         -2.458323107804
      0.1612777588D+00  0.1000000000D+01
 Atom C39      Shell   111 S   6     bf  298 -   298         11.031834110080          9.868737721934          3.853741595247
      0.3047524880D+04  0.1834737132D-02
      0.4573695180D+03  0.1403732281D-01
      0.1039486850D+03  0.6884262226D-01
[...]
 **** Fit      -0.002232
 **** Fit      -0.002257
 **** Fit      -0.002138
 **** Fit      -0.001841
 **** Fit      -0.001378
 **** Fit      -0.000827
 **** Fit      -0.000320
 **** Fit       0.000027
 **** Fit       0.000182
 **** Fit       0.000194
 **** Fit       0.000136
 **** Fit       0.000063
 **** Fit       0.000001
 **** Fit      -0.001811
 **** Fit      -0.001657
 **** Fit      -0.001370
 **** Fit      -0.000968
 **** Fit      -0.000516
 **** Fit      -0.000107
 **** Fit       0.000179
 **** Fit       0.000318
 **** Fit       0.000335
 **** Fit       0.000283
 **** Fit       0.000205
 **** Fit      -0.001302
 **** Fit      -0.001049
 **** Fit      -0.000721
 **** Fit      -0.000365
 **** Fit      -0.000044
 **** Fit       0.000190
 **** Fit       0.000316
 **** Fit       0.000348
 **** Fit       0.000317
 **** Fit       0.000255
 **** Fit      -0.000836
 **** Fit      -0.000576
 **** Fit      -0.000301
 **** Fit      -0.000052
 **** Fit       0.000138
 **** Fit       0.000252
 **** Fit       0.000296
 **** Fit      -0.000092
 **** Fit       0.000078
 **** Fit       0.000192
 **** Fit       0.000228
 **** Fit       0.000182
 **** Fit       0.000068
 **** Fit      -0.000353
 **** Fit      -0.000095
 **** Fit       0.000174
 **** Fit       0.000407
 **** Fit       0.000557
 **** Fit       0.000590
 **** Fit       0.000502
 **** Fit       0.000323
 **** Fit       0.000096
 **** Fit      -0.000136
 **** Fit      -0.000530
 **** Fit      -0.000251
 **** Fit       0.000095
 **** Fit       0.000468
 **** Fit       0.000797
 **** Fit       0.001001
 **** Fit       0.001024
 **** Fit       0.000866
 **** Fit       0.000586
 **** Fit       0.000261
 **** Fit      -0.000045
 **** Fit      -0.000297
 **** Fit      -0.000541
 **** Fit      -0.000196
 **** Fit       0.000259
 **** Fit       0.000774
 **** Fit       0.001245
 **** Fit       0.001532
 **** Fit       0.001537
 **** Fit       0.001270
 **** Fit       0.000838
 **** Fit       0.000377
 **** Fit      -0.000019
 **** Fit      -0.000314
 **** Fit      -0.000877
 **** Fit      -0.000629
 **** Fit      -0.000226
 **** Fit       0.000346
 **** Fit       0.001036
 **** Fit       0.001695
 **** Fit       0.002099
 **** Fit       0.002079
 **** Fit       0.001652
 **** Fit       0.001015
 **** Fit       0.000389
 **** Fit      -0.000098
 **** Fit      -0.000419
 **** Fit      -0.000603
 **** Fit      -0.001053
 **** Fit      -0.000820
 **** Fit      -0.000393
 **** Fit       0.000269
 **** Fit       0.001126
 **** Fit       0.001987
 **** Fit       0.002523
 **** Fit       0.002467
 **** Fit       0.001853
 **** Fit       0.000993
 **** Fit       0.000213
 **** Fit      -0.000329
 **** Fit      -0.000636
 **** Fit      -0.000772
 **** Fit      -0.001340
 **** Fit      -0.001300
 **** Fit      -0.001125
 **** Fit      -0.000738
 **** Fit      -0.000070
 **** Fit       0.000859
 **** Fit       0.001840
 **** Fit       0.002458
 **** Fit       0.002362
 **** Fit       0.001602
 **** Fit       0.000600
 **** Fit      -0.000235
 **** Fit      -0.000744
 **** Fit      -0.000967
 **** Fit      -0.001009
 **** Fit      -0.000958
 **** Fit      -0.001554
 **** Fit      -0.001596
 **** Fit      -0.001524
 **** Fit      -0.001257
 **** Fit      -0.000715
 **** Fit       0.000105
 **** Fit       0.001007
 **** Fit       0.001572
 **** Fit       0.001438
 **** Fit       0.000673
 **** Fit      -0.000269
 **** Fit      -0.000974
 **** Fit      -0.001318
 **** Fit      -0.001380
 **** Fit      -0.001286
 **** Fit      -0.001131
 **** Fit      -0.001765
 **** Fit      -0.001901
 **** Fit      -0.001960
 **** Fit      -0.001874
 **** Fit      -0.001574
 **** Fit      -0.001047
 **** Fit      -0.000442
 **** Fit      -0.000082
 **** Fit      -0.000239
 **** Fit      -0.000832
 **** Fit      -0.001483
 **** Fit      -0.001876
 **** Fit      -0.001947
 **** Fit      -0.001796
 **** Fit      -0.001549
 **** Fit      -0.001288
 **** Fit      -0.002166
 **** Fit      -0.002353
 **** Fit      -0.002458
 **** Fit      -0.002432
 **** Fit      -0.002265
 **** Fit      -0.002040
 **** Fit      -0.001938
 **** Fit      -0.002089
 **** Fit      -0.002412
 **** Fit      -0.002666
 **** Fit      -0.002682
 **** Fit      -0.002462
 **** Fit      -0.002112
 **** Fit      -0.001733
 **** Fit      -0.002351
 **** Fit      -0.002633
 **** Fit      -0.002883
 **** Fit      -0.003071
 **** Fit      -0.003184
 **** Fit      -0.003250
 **** Fit      -0.003325
 **** Fit      -0.003431
 **** Fit      -0.003498
 **** Fit      -0.003414
 **** Fit      -0.003134
 **** Fit      -0.002709
 **** Fit      -0.002232
 **** Fit      -0.001783
 **** Fit      -0.002436
 **** Fit      -0.002764
 **** Fit      -0.003087
 **** Fit      -0.003382
 **** Fit      -0.003630
 **** Fit      -0.003817
 **** Fit      -0.003933
 **** Fit      -0.003948
 **** Fit      -0.003824
 **** Fit      -0.003537
 **** Fit      -0.003111
 **** Fit      -0.002614
 **** Fit      -0.002117
 **** Fit      -0.001674
 **** Fit      -0.001307
 **** Fit      -0.002749
 **** Fit      -0.003078
 **** Fit      -0.003382
 **** Fit      -0.003633
 **** Fit      -0.003797
 **** Fit      -0.003841
 **** Fit      -0.003736
 **** Fit      -0.003483
 **** Fit      -0.003111
 **** Fit      -0.002673
 **** Fit      -0.002220
 **** Fit      -0.001795
 **** Fit      -0.001425
 **** Fit      -0.001121
 **** Fit      -0.002903
 **** Fit      -0.003152
 **** Fit      -0.003328
 **** Fit      -0.003394
 **** Fit      -0.003318
 **** Fit      -0.003095
 **** Fit      -0.002763
 **** Fit      -0.002383
 **** Fit      -0.002005
 **** Fit      -0.001658
 **** Fit      -0.001352
 **** Fit      -0.001092
 **** Fit      -0.000877
 **** Fit      -0.002622
 **** Fit      -0.002789
 **** Fit      -0.002868
 **** Fit      -0.002823
 **** Fit      -0.002638
 **** Fit      -0.002334
 **** Fit      -0.001970
 **** Fit      -0.001617
 **** Fit      -0.001320
 **** Fit      -0.001083
 **** Fit      -0.000896
 **** Fit      -0.000744
 **** Fit      -0.000619
 **** Fit      -0.002381
 **** Fit      -0.002372
 **** Fit      -0.002244
 **** Fit      -0.001994
 **** Fit      -0.001658
 **** Fit      -0.001302
 **** Fit      -0.000992
 **** Fit      -0.000762
 **** Fit      -0.000610
 **** Fit      -0.000510
 **** Fit      -0.000441
 **** Fit      -0.000388
 **** Fit      -0.001987
 **** Fit      -0.001918
 **** Fit      -0.001746
 **** Fit      -0.001478
 **** Fit      -0.001153
 **** Fit      -0.000830
 **** Fit      -0.000565
 **** Fit      -0.000384
 **** Fit      -0.000282
 **** Fit      -0.000233
 **** Fit      -0.000214
 **** Fit      -0.001542
 **** Fit      -0.001359
 **** Fit      -0.001105
 **** Fit      -0.000816
 **** Fit      -0.000539
 **** Fit      -0.000316
 **** Fit      -0.000168
 **** Fit      -0.000091
 **** Fit      -0.000065
 **** Fit      -0.001075
 **** Fit      -0.000852
 **** Fit      -0.000608
 **** Fit      -0.000378
 **** Fit      -0.000192
 **** Fit      -0.000068
 **** Fit      -0.000002
 **** Fit      -0.000298
 **** Fit      -0.000145
 **** Fit      -0.000099
 **** Fit       0.000063
 **** Fit       0.000164
 **** Fit       0.000186
 **** Fit       0.000126
 **** Fit       0.000002
 **** Fit      -0.000402
 **** Fit      -0.000159
 **** Fit       0.000091
 **** Fit       0.000303
 **** Fit       0.000433
 **** Fit       0.000449
 **** Fit       0.000352
 **** Fit       0.000175
 **** Fit      -0.000040
 **** Fit      -0.000250
 **** Fit      -0.000371
 **** Fit      -0.000072
 **** Fit       0.000248
 **** Fit       0.000524
 **** Fit       0.000689
 **** Fit       0.000695
 **** Fit       0.000549
 **** Fit       0.000301
 **** Fit       0.000021
 **** Fit      -0.000235
 **** Fit      -0.000685
 **** Fit      -0.000415
 **** Fit      -0.000064
 **** Fit       0.000325
 **** Fit       0.000671
 **** Fit       0.000874
 **** Fit       0.000867
 **** Fit       0.000660
 **** Fit       0.000333
 **** Fit      -0.000012
 **** Fit      -0.000304
 **** Fit      -0.000515
 **** Fit      -0.000832
 **** Fit      -0.000560
 **** Fit      -0.000184
 **** Fit       0.000254
 **** Fit       0.000654
 **** Fit       0.000886
 **** Fit       0.000862
 **** Fit       0.000597
 **** Fit       0.000204
 **** Fit      -0.000183
 **** Fit      -0.000482
 **** Fit      -0.000672
 **** Fit      -0.000768
 **** Fit      -0.001185
 **** Fit      -0.001060
 **** Fit      -0.000824
 **** Fit      -0.000471
 **** Fit      -0.000039
 **** Fit       0.000368
 **** Fit       0.000602
 **** Fit       0.000559
 **** Fit       0.000262
 **** Fit      -0.000148
 **** Fit      -0.000522
 **** Fit      -0.000778
 **** Fit      -0.000907
 **** Fit      -0.000939
 **** Fit      -0.001407
 **** Fit      -0.001351
 **** Fit      -0.001195
 **** Fit      -0.000926
 **** Fit      -0.000574
 **** Fit      -0.000234
 **** Fit      -0.000044
 **** Fit      -0.000103
 **** Fit      -0.000379
 **** Fit      -0.000731
 **** Fit      -0.001014
 **** Fit      -0.001165
 **** Fit      -0.001193
 **** Fit      -0.001137
 **** Fit      -0.001638
 **** Fit      -0.001667
 **** Fit      -0.001620
 **** Fit      -0.001484
 **** Fit      -0.001277
 **** Fit      -0.001069
 **** Fit      -0.000964
 **** Fit      -0.001030
 **** Fit      -0.001230
 **** Fit      -0.001447
 **** Fit      -0.001575
 **** Fit      -0.001576
 **** Fit      -0.001477
 **** Fit      -0.001323
 **** Fit      -0.001844
 **** Fit      -0.001957
 **** Fit      -0.002023
 **** Fit      -0.002029
 **** Fit      -0.001985
 **** Fit      -0.001928
 **** Fit      -0.001915
 **** Fit      -0.001972
 **** Fit      -0.002065
 **** Fit      -0.002115
 **** Fit      -0.002065
 **** Fit      -0.001913
 **** Fit      -0.001696
 **** Fit      -0.001456
 **** Fit      -0.002173
 **** Fit      -0.002327
 **** Fit      -0.002446
 **** Fit      -0.002529
 **** Fit      -0.002587
 **** Fit      -0.002632
 **** Fit      -0.002662
 **** Fit      -0.002647
 **** Fit      -0.002549
 **** Fit      -0.002355
 **** Fit      -0.002089
 **** Fit      -0.001791
 **** Fit      -0.002287
 **** Fit      -0.002490
 **** Fit      -0.002669
 **** Fit      -0.002816
 **** Fit      -0.002920
 **** Fit      -0.002972
 **** Fit      -0.002955
 **** Fit      -0.002852
 **** Fit      -0.002654
 **** Fit      -0.002379
 **** Fit      -0.002060
 **** Fit      -0.001736
 **** Fit      -0.002507
 **** Fit      -0.002694
 **** Fit      -0.002841
 **** Fit      -0.002931
 **** Fit      -0.002945
 **** Fit      -0.002868
 **** Fit      -0.002700
 **** Fit      -0.002454
 **** Fit      -0.002158
 **** Fit      -0.001845
 **** Fit      -0.001545
 **** Fit      -0.001276
 **** Fit      -0.002560
 **** Fit      -0.002667
 **** Fit      -0.002705
 **** Fit      -0.002657
 **** Fit      -0.002522
 **** Fit      -0.002312
 **** Fit      -0.002054
 **** Fit      -0.001779
 **** Fit      -0.001510
 **** Fit      -0.001265
 **** Fit      -0.001052
 **** Fit      -0.002374
 **** Fit      -0.002350
 **** Fit      -0.002244
 **** Fit      -0.002064
 **** Fit      -0.001834
 **** Fit      -0.001587
 **** Fit      -0.001350
 **** Fit      -0.001138
 **** Fit      -0.000958
 **** Fit      -0.000807
 **** Fit      -0.002037
 **** Fit      -0.001962
 **** Fit      -0.001815
 **** Fit      -0.001611
 **** Fit      -0.001381
 **** Fit      -0.001156
 **** Fit      -0.000960
 **** Fit      -0.000801
 **** Fit      -0.000676
 **** Fit      -0.001603
 **** Fit      -0.001437
 **** Fit      -0.001231
 **** Fit      -0.001015
 **** Fit      -0.000817
 **** Fit      -0.000656
 **** Fit      -0.000536
 **** Fit      -0.001137
 **** Fit      -0.000944
 **** Fit      -0.000750
 **** Fit      -0.000579
 **** Fit      -0.000446
 **** Fit      -0.000211
 **** Fit      -0.000073
 **** Fit       0.000010
 **** Fit       0.000022
 **** Fit      -0.000036
 **** Fit      -0.000147
 **** Fit      -0.000332
 **** Fit      -0.000132
 **** Fit       0.000034
 **** Fit       0.000133
 **** Fit       0.000140
 **** Fit       0.000060
 **** Fit      -0.000083
 **** Fit      -0.000253
 **** Fit      -0.000571
 **** Fit      -0.000354
 **** Fit      -0.000127
 **** Fit       0.000065
 **** Fit       0.000177
 **** Fit       0.000177
 **** Fit       0.000073
 **** Fit      -0.000100
 **** Fit      -0.000294
 **** Fit      -0.000468
 **** Fit      -0.000688
 **** Fit      -0.000468
 **** Fit      -0.000230
 **** Fit      -0.000025
 **** Fit       0.000091
 **** Fit       0.000084
 **** Fit      -0.000038
 **** Fit      -0.000229
 **** Fit      -0.000429
 **** Fit      -0.000597
 **** Fit      -0.001027
 **** Fit      -0.000883
 **** Fit      -0.000686
 **** Fit      -0.000466
 **** Fit      -0.000273
 **** Fit      -0.000166
 **** Fit      -0.000181
 **** Fit      -0.000306
 **** Fit      -0.000489
 **** Fit      -0.000668
 **** Fit      -0.000801
 **** Fit      -0.000875
 **** Fit      -0.001237
 **** Fit      -0.001144
 **** Fit      -0.001000
 **** Fit      -0.000830
 **** Fit      -0.000678
 **** Fit      -0.000597
 **** Fit      -0.000617
 **** Fit      -0.000724
 **** Fit      -0.000867
 **** Fit      -0.000990
 **** Fit      -0.001058
 **** Fit      -0.001068
 **** Fit      -0.001463
 **** Fit      -0.001436
 **** Fit      -0.001366
 **** Fit      -0.001271
 **** Fit      -0.001182
 **** Fit      -0.001138
 **** Fit      -0.001159
 **** Fit      -0.001227
 **** Fit      -0.001302
 **** Fit      -0.001341
 **** Fit      -0.001325
 **** Fit      -0.001259
 **** Fit      -0.001712
 **** Fit      -0.001720
 **** Fit      -0.001704
 **** Fit      -0.001682
 **** Fit      -0.001674
 **** Fit      -0.001687
 **** Fit      -0.001704
 **** Fit      -0.001698
 **** Fit      -0.001646
 **** Fit      -0.001545
 **** Fit      -0.001926
 **** Fit      -0.001996
 **** Fit      -0.002043
 **** Fit      -0.002071
 **** Fit      -0.002084
 **** Fit      -0.002079
 **** Fit      -0.002044
 **** Fit      -0.001964
 **** Fit      -0.001835
 **** Fit      -0.001667
 **** Fit      -0.002155
 **** Fit      -0.002234
 **** Fit      -0.002283
 **** Fit      -0.002295
 **** Fit      -0.002264
 **** Fit      -0.002182
 **** Fit      -0.002048
 **** Fit      -0.001871
 **** Fit      -0.002268
 **** Fit      -0.002309
 **** Fit      -0.002300
 **** Fit      -0.002238
 **** Fit      -0.002120
 **** Fit      -0.001955
 **** Fit      -0.001758
 **** Fit      -0.001547
 **** Fit      -0.002184
 **** Fit      -0.002145
 **** Fit      -0.002051
 **** Fit      -0.001909
 **** Fit      -0.001732
 **** Fit      -0.001539
 **** Fit      -0.001344
 **** Fit      -0.001895
 **** Fit      -0.001775
 **** Fit      -0.001620
 **** Fit      -0.001446
 **** Fit      -0.001270
 **** Fit      -0.001613
 **** Fit      -0.001478
 **** Fit      -0.001321
 **** Fit      -0.001158
 **** Fit      -0.001003
 **** Fit      -0.000236
 **** Fit      -0.000228
 **** Fit      -0.000419
 **** Fit      -0.000306
 **** Fit      -0.000241
 **** Fit      -0.000235
 **** Fit      -0.000288
 **** Fit      -0.000381
 **** Fit      -0.000647
 **** Fit      -0.000511
 **** Fit      -0.000398
 **** Fit      -0.000332
 **** Fit      -0.000330
 **** Fit      -0.000388
 **** Fit      -0.000483
 **** Fit      -0.000589
 **** Fit      -0.000806
 **** Fit      -0.000685
 **** Fit      -0.000582
 **** Fit      -0.000524
 **** Fit      -0.000525
 **** Fit      -0.000579
 **** Fit      -0.000664
 **** Fit      -0.000751
 **** Fit      -0.001021
 **** Fit      -0.000929
 **** Fit      -0.000850
 **** Fit      -0.000806
 **** Fit      -0.000807
 **** Fit      -0.000848
 **** Fit      -0.000907
 **** Fit      -0.000960
 **** Fit      -0.001263
 **** Fit      -0.001212
 **** Fit      -0.001165
 **** Fit      -0.001137
 **** Fit      -0.001136
 **** Fit      -0.001155
 **** Fit      -0.001176
 **** Fit      -0.001182
 **** Fit      -0.001495
 **** Fit      -0.001485
 **** Fit      -0.001470
 **** Fit      -0.001458
 **** Fit      -0.001450
 **** Fit      -0.001441
 **** Fit      -0.001419
 **** Fit      -0.001374
 **** Fit      -0.001702
 **** Fit      -0.001710
 **** Fit      -0.001706
 **** Fit      -0.001687
 **** Fit      -0.001649
 **** Fit      -0.001587
 **** Fit      -0.001849
 **** Fit      -0.001842
 **** Fit      -0.001808
 **** Fit      -0.001743
 -----------------------------------------------------------------
 Leave Link  602 at Fri Apr 28 14:04:56 2017, MaxMem=   33554432 cpu:      93.2
 (Enter /scratch/michal/g09/l9999.exe)

 Test job not archived.
 1\1\GINC-RZEPICHA\SP\RHF\6-31G(d)\C27H46O3\MICHAL\28-Apr-2017\0\\#P HF
 /6-31G* SCF(Conver=6) NoSymm Test Pop=chelpg IOp(6/33=2) GFInput GFPri
 nt\\MEP - Input generated by R.E.D.-III.x MOLECULE\\0,1\C,0,1.75863277
 ,-1.24824699,-0.07050355\H,0,1.87080968,-1.12776098,-1.15496106\C,0,3.
 15130702,-1.3086457,0.57284905\H,0,3.72798666,-2.12820411,0.13251604\H
 ,0,3.01411389,-1.55507324,1.63835253\C,0,3.91467594,-0.0035782,0.45168
 837\C,0,3.19108832,1.27921685,0.87597409\C,0,1.74864527,1.25435061,0.2
 8079363\H,0,1.81840633,1.44425138,-0.79933116\H,0,1.1671237,2.08023985
 ,0.7033829\C,0,0.97913994,-0.05911287,0.48871719\H,0,0.78728648,-0.227
 88741,1.55884191\H,0,0.,0.,0.\C,0,5.17607791,0.,0.\H,0,5.63684616,-0.9
 368294,-0.31517016\C,0,6.06095105,1.20692025,-0.10743531\H,0,6.2947946
 3,1.39538395,-1.16794454\C,0,5.48270417,2.4792587,0.5305921\H,0,5.6909
 5581,2.41575638,1.60417879\C,0,3.94640407,2.52858484,0.3016362\H,0,3.8
 0129354,2.48278345,-0.79057656\C,0,3.34903327,3.87449044,0.77133335\H,
 0,3.361992,3.92323641,1.86561208\H,0,2.2948088,3.93095724,0.4787627\C,
 0,4.07404051,5.11447924,0.21274745\H,0,3.93775994,5.15656742,-0.877667
 2\H,0,3.59185133,6.00851362,0.61993071\C,0,5.58460172,5.08670171,0.520
 17302\C,0,6.13112305,3.74676403,-0.05375076\H,0,5.85224878,3.75924564,
 -1.12235051\C,0,7.65842303,3.91033997,0.\H,0,8.17467054,3.2586553,-0.7
 0953826\H,0,8.04101758,3.64510895,0.99086293\C,0,7.87629735,5.41585059
 ,-0.309072\H,0,8.54496042,5.87177086,0.43094288\H,0,8.35549676,5.55549
 46,-1.28287559\C,0,6.47188716,6.10851189,-0.27362945\H,0,6.07324175,6.
 12249645,-1.30088856\C,0,5.83779518,5.22231108,2.03931222\H,0,5.401871
 35,4.39839661,2.60989492\H,0,6.90567856,5.24556333,2.27490491\H,0,5.39
 832392,6.1490796,2.42276448\C,0,6.54946458,7.58624258,0.19329158\H,0,7
 .00443393,7.59140067,1.19372713\C,0,5.17518974,8.27002173,0.29294802\H
 ,0,4.64241554,8.22433309,-0.66546717\H,0,5.27617108,9.32541343,0.56365
 855\H,0,4.53871224,7.80833358,1.05084122\C,0,3.11683404,1.31135164,2.4
 2585623\H,0,2.48511811,2.13326036,2.77661646\H,0,2.69222899,0.38627993
 ,2.82539693\H,0,4.11136994,1.42681696,2.86630318\O,0,7.39416153,0.8970
 8359,0.372096\O,0,7.33773902,0.63734332,1.80596227\H,0,7.38750869,-0.3
 325015,1.82027943\O,0,1.05447167,-2.48460072,0.07283366\H,0,0.89183097
 ,-2.64149892,1.01364642\C,0,7.48001132,8.38445784,-0.75606846\H,0,8.43
 691453,7.85774134,-0.84747691\H,0,7.0307798,8.37457376,-1.7605748\C,0,
 7.78746329,9.84617081,-0.3730511\H,0,8.40468908,10.26877733,-1.1759443
 4\H,0,6.86460626,10.43790675,-0.36536542\C,0,8.52206432,10.00093493,0.
 9688822\H,0,9.39879776,9.3365551,0.96729241\H,0,7.87464694,9.64441752,
 1.78118557\C,0,8.99663307,11.42868742,1.33032035\H,0,9.47583012,11.345
 57399,2.31710921\C,0,10.06024778,11.96723998,0.35894576\H,0,9.64637453
 ,12.14196756,-0.64080457\H,0,10.46432143,12.92175623,0.71520818\H,0,10
 .89803755,11.2674434,0.25684215\C,0,7.83050204,12.42043398,1.47717557\
 H,0,7.3354299,12.60670753,0.51712398\H,0,8.18518614,13.38636057,1.8545
 7311\H,0,7.07393587,12.04632473,2.17706974\\Version=EM64L-G09RevC.01\H
 F=-1273.6818267\RMSD=5.105e-07\Dipole=-0.5273228,0.0315019,0.4277093\Q
 uadrupole=-10.2300419,2.6225443,7.6074976,-6.999158,-1.4835918,-4.5025
 625\PG=C01 [X(C27H46O3)]\\@


 LENDING MONEY TO FRIENDS CAUSES THEM TO LOSE THEIR MEMORIES.

    --  PETER'S THEORY OF RECIPROCAL INHIBITION OF FISCAL RECALL
 Job cpu time:  0 days  0 hours 39 minutes 49.1 seconds.
 File lengths (MBytes):  RWF=    159 Int=      0 D2E=      0 Chk=     11 Scr=      1
 Normal termination of Gaussian 09 at Fri Apr 28 14:04:56 2017.
