 Entering Gaussian System, Link 0=/scratch/michal/g09//g09
 Input=JOB2-gau_m1-22-4.com
 Output=JOB2-gau_m1-22-4.log
 Initial command:
 /scratch/michal/g09/l1.exe /scratch/michal/gauss_scratch/Gau-25517.inp -scrdir=/scratch/michal/gauss_scratch/
 Entering Link 1 = /scratch/michal/g09/l1.exe PID=     25519.
  
 Copyright (c) 1988,1990,1992,1993,1995,1998,2003,2009,2011,
            Gaussian, Inc.  All Rights Reserved.
  
 This is part of the Gaussian(R) 09 program.  It is based on
 the Gaussian(R) 03 system (copyright 2003, Gaussian, Inc.),
 the Gaussian(R) 98 system (copyright 1998, Gaussian, Inc.),
 the Gaussian(R) 94 system (copyright 1995, Gaussian, Inc.),
 the Gaussian 92(TM) system (copyright 1992, Gaussian, Inc.),
 the Gaussian 90(TM) system (copyright 1990, Gaussian, Inc.),
 the Gaussian 88(TM) system (copyright 1988, Gaussian, Inc.),
 the Gaussian 86(TM) system (copyright 1986, Carnegie Mellon
 University), and the Gaussian 82(TM) system (copyright 1983,
 Carnegie Mellon University). Gaussian is a federally registered
 trademark of Gaussian, Inc.
  
 This software contains proprietary and confidential information,
 including trade secrets, belonging to Gaussian, Inc.
  
 This software is provided under written license and may be
 used, copied, transmitted, or stored only in accord with that
 written license.
  
 The following legend is applicable only to US Government
 contracts under FAR:
  
                    RESTRICTED RIGHTS LEGEND
  
 Use, reproduction and disclosure by the US Government is
 subject to restrictions as set forth in subparagraphs (a)
 and (c) of the Commercial Computer Software - Restricted
 Rights clause in FAR 52.227-19.
  
 Gaussian, Inc.
 340 Quinnipiac St., Bldg. 40, Wallingford CT 06492
  
  
 ---------------------------------------------------------------
 Warning -- This program may not be used in any manner that
 competes with the business of Gaussian, Inc. or will provide
 assistance to any competitor of Gaussian, Inc.  The licensee
 of this program is prohibited from giving any competitor of
 Gaussian, Inc. access to this program.  By using this program,
 the user acknowledges that Gaussian, Inc. is engaged in the
 business of creating and licensing software in the field of
 computational chemistry and represents and warrants to the
 licensee that it is not a competitor of Gaussian, Inc. and that
 it will not use this program in any manner prohibited above.
 ---------------------------------------------------------------
  

 Cite this work as:
 Gaussian 09, Revision C.01,
 M. J. Frisch, G. W. Trucks, H. B. Schlegel, G. E. Scuseria, 
 M. A. Robb, J. R. Cheeseman, G. Scalmani, V. Barone, B. Mennucci, 
 G. A. Petersson, H. Nakatsuji, M. Caricato, X. Li, H. P. Hratchian, 
 A. F. Izmaylov, J. Bloino, G. Zheng, J. L. Sonnenberg, M. Hada, 
 M. Ehara, K. Toyota, R. Fukuda, J. Hasegawa, M. Ishida, T. Nakajima, 
 Y. Honda, O. Kitao, H. Nakai, T. Vreven, J. A. Montgomery, Jr., 
 J. E. Peralta, F. Ogliaro, M. Bearpark, J. J. Heyd, E. Brothers, 
 K. N. Kudin, V. N. Staroverov, T. Keith, R. Kobayashi, J. Normand, 
 K. Raghavachari, A. Rendell, J. C. Burant, S. S. Iyengar, J. Tomasi, 
 M. Cossi, N. Rega, J. M. Millam, M. Klene, J. E. Knox, J. B. Cross, 
 V. Bakken, C. Adamo, J. Jaramillo, R. Gomperts, R. E. Stratmann, 
 O. Yazyev, A. J. Austin, R. Cammi, C. Pomelli, J. W. Ochterski, 
 R. L. Martin, K. Morokuma, V. G. Zakrzewski, G. A. Voth, 
 P. Salvador, J. J. Dannenberg, S. Dapprich, A. D. Daniels, 
 O. Farkas, J. B. Foresman, J. V. Ortiz, J. Cioslowski, 
 and D. J. Fox, Gaussian, Inc., Wallingford CT, 2010.
 
 ******************************************
 Gaussian 09:  EM64L-G09RevC.01 23-Sep-2011
                28-Apr-2017 
 ******************************************
 %Mem=256MB
 %NProc=48
 Will use up to   48 processors via shared memory.
 ----------------------------------------------------------------------
 #P HF/6-31G* SCF(Conver=6) NoSymm Test Pop=chelpg IOp(6/33=2) GFInput 
 GFPrint
 ----------------------------------------------------------------------
 1/38=1/1;
 2/12=2,15=1,17=6,18=5,40=1/2;
 3/5=1,6=6,7=1,11=9,16=1,24=110,25=1,30=1/1,2,3;
 4//1;
 5/5=2,6=6,38=5/2;
 6/7=2,8=2,9=2,10=2,15=8,20=3,28=1,33=2/1,2;
 99/5=1,9=1/99;
 Leave Link    1 at Fri Apr 28 13:57:07 2017, MaxMem=   33554432 cpu:       6.1
 (Enter /scratch/michal/g09/l101.exe)
 ----------------------------------------------
 MEP - Input generated by R.E.D.-III.x MOLECULE
 ----------------------------------------------
 Charge =  0 Multiplicity = 1
 Symbolic Z-Matrix:
 C                     0.99816  -0.8931   -1.69176 
 H                     1.15318   0.07489  -2.18382 
 C                     2.2109   -1.79372  -1.96643 
 H                     2.35176  -1.90687  -3.046 
 H                     1.97648  -2.79553  -1.57115 
 C                     3.48422  -1.28207  -1.32027 
 C                     3.423    -0.91785   0.16718 
 C                     2.12763  -0.08479   0.41959 
 H                     2.27716   0.91978   0. 
 H                     1.98516   0.04772   1.49709 
 C                     0.8446   -0.67267  -0.18766 
 H                     0.59607  -1.63141   0.29136 
 H                     0.        0.        0. 
 C                     4.60863  -1.17252  -2.04056 
 H                     4.59255  -1.41829  -3.10293 
 C                     5.94534  -0.74304  -1.51147 
 H                     6.2371    0.20876  -1.98459 
 C                     6.01003  -0.60412   0.01713 
 H                     6.16775  -1.61118   0.41834 
 C                     4.66423  -0.03771   0.54941 
 H                     4.51373   0.9234    0.03009 
 C                     4.74556   0.28292   2.05922 
 H                     4.7814   -0.64895   2.63398 
 H                     3.83184   0.79803   2.37538 
 C                     5.95423   1.15375   2.4538 
 H                     5.85022   2.14974   1.99932 
 H                     5.93251   1.30384   3.53762 
 C                     7.28717   0.5354    1.98689 
 C                     7.16356   0.31803   0.4504 
 H                     6.91992   1.31399   0.0398 
 C                     8.59821   0.        0. 
 H                     8.76055   0.20894  -1.06047 
 H                     8.81984  -1.06315   0.13823 
 C                     9.47602   0.88855   0.9216 
 H                     10.2839   0.30115   1.37444 
 H                     9.95969   1.68951   0.35422 
 C                     8.54102   1.47741   2.03211 
 H                     8.1907    2.46561   1.69303 
 C                     7.57678  -0.78071   2.74488 
 H                     6.81522  -1.54304   2.56254 
 H                     8.53919  -1.214     2.45776 
 H                     7.60676  -0.60578   3.82537 
 C                     9.28233   1.70569   3.37552 
 H                     9.69875   0.73858   3.69645 
 C                     8.36634   2.22464   4.49818 
 H                     7.85421   3.14553   4.19157 
 H                     8.93805   2.44998   5.40336 
 H                     7.60249   1.49612   4.77878 
 C                     3.36975  -2.23076   0.993 
 H                     3.17844  -2.02727   2.05111 
 H                     2.57188  -2.89157   0.64318 
 H                     4.30833  -2.78647   0.91158 
 O                     6.99272  -1.59524  -2.0407 
 O                     6.82744  -2.94255  -1.50798 
 H                     6.42769  -3.39475  -2.26892 
 O                    -0.1913   -1.40642  -2.29722 
 H                    -0.40775  -2.25469  -1.88518 
 C                     10.47695   2.67022   3.16919 
 H                     11.04512   2.35936   2.28528 
 H                     10.08521   3.67352   2.94078 
 C                     11.46207   2.76451   4.34576 
 H                     10.96098   3.16428   5.23693 
 H                     11.79597   1.7515    4.60744 
 C                     12.67564   3.65108   4.02691 
 H                     12.31135   4.63158   3.68784 
 H                     13.22758   3.22236   3.17636 
 C                     13.65813   3.87515   5.19446 
 H                     13.08014   4.27275   6.0432 
 C                     14.33472   2.57342   5.65397 
 H                     14.90328   2.12023   4.83134 
 H                     15.03542   2.76502   6.47467 
 H                     13.60954   1.83315   6.00631 
 C                     14.7148   4.92518   4.81598 
 H                     15.32171   4.58068   3.96877 
 H                     15.39534   5.12458   5.65164 
 H                     14.24974   5.87484   4.52747 
 
 NAtoms=     76 NQM=        0 NQMF=       0 NMMI=     76 NMMIF=      0
                NMic=       0 NMicF=      0.
                    Isotopes and Nuclear Properties:
 (Nuclear quadrupole moments (NQMom) in fm**2, nuclear magnetic moments (NMagM)
  in nuclear magnetons)

  Atom         1           2           3           4           5           6           7           8           9          10
 IAtWgt=          12           1          12           1           1          12          12          12           1           1
 AtmWgt=  12.0000000   1.0078250  12.0000000   1.0078250   1.0078250  12.0000000  12.0000000  12.0000000   1.0078250   1.0078250
 NucSpn=           0           1           0           1           1           0           0           0           1           1
 AtZEff=   0.0000000   0.0000000   0.0000000   0.0000000   0.0000000   0.0000000   0.0000000   0.0000000   0.0000000   0.0000000
 NQMom=    0.0000000   0.0000000   0.0000000   0.0000000   0.0000000   0.0000000   0.0000000   0.0000000   0.0000000   0.0000000
 NMagM=    0.0000000   2.7928460   0.0000000   2.7928460   2.7928460   0.0000000   0.0000000   0.0000000   2.7928460   2.7928460

  Atom        11          12          13          14          15          16          17          18          19          20
 IAtWgt=          12           1           1          12           1          12           1          12           1          12
 AtmWgt=  12.0000000   1.0078250   1.0078250  12.0000000   1.0078250  12.0000000   1.0078250  12.0000000   1.0078250  12.0000000
 NucSpn=           0           1           1           0           1           0           1           0           1           0
 AtZEff=   0.0000000   0.0000000   0.0000000   0.0000000   0.0000000   0.0000000   0.0000000   0.0000000   0.0000000   0.0000000
 NQMom=    0.0000000   0.0000000   0.0000000   0.0000000   0.0000000   0.0000000   0.0000000   0.0000000   0.0000000   0.0000000
 NMagM=    0.0000000   2.7928460   2.7928460   0.0000000   2.7928460   0.0000000   2.7928460   0.0000000   2.7928460   0.0000000

  Atom        21          22          23          24          25          26          27          28          29          30
 IAtWgt=           1          12           1           1          12           1           1          12          12           1
 AtmWgt=   1.0078250  12.0000000   1.0078250   1.0078250  12.0000000   1.0078250   1.0078250  12.0000000  12.0000000   1.0078250
 NucSpn=           1           0           1           1           0           1           1           0           0           1
 AtZEff=   0.0000000   0.0000000   0.0000000   0.0000000   0.0000000   0.0000000   0.0000000   0.0000000   0.0000000   0.0000000
 NQMom=    0.0000000   0.0000000   0.0000000   0.0000000   0.0000000   0.0000000   0.0000000   0.0000000   0.0000000   0.0000000
 NMagM=    2.7928460   0.0000000   2.7928460   2.7928460   0.0000000   2.7928460   2.7928460   0.0000000   0.0000000   2.7928460

  Atom        31          32          33          34          35          36          37          38          39          40
 IAtWgt=          12           1           1          12           1           1          12           1          12           1
 AtmWgt=  12.0000000   1.0078250   1.0078250  12.0000000   1.0078250   1.0078250  12.0000000   1.0078250  12.0000000   1.0078250
 NucSpn=           0           1           1           0           1           1           0           1           0           1
 AtZEff=   0.0000000   0.0000000   0.0000000   0.0000000   0.0000000   0.0000000   0.0000000   0.0000000   0.0000000   0.0000000
 NQMom=    0.0000000   0.0000000   0.0000000   0.0000000   0.0000000   0.0000000   0.0000000   0.0000000   0.0000000   0.0000000
 NMagM=    0.0000000   2.7928460   2.7928460   0.0000000   2.7928460   2.7928460   0.0000000   2.7928460   0.0000000   2.7928460

  Atom        41          42          43          44          45          46          47          48          49          50
 IAtWgt=           1           1          12           1          12           1           1           1          12           1
 AtmWgt=   1.0078250   1.0078250  12.0000000   1.0078250  12.0000000   1.0078250   1.0078250   1.0078250  12.0000000   1.0078250
 NucSpn=           1           1           0           1           0           1           1           1           0           1
 AtZEff=   0.0000000   0.0000000   0.0000000   0.0000000   0.0000000   0.0000000   0.0000000   0.0000000   0.0000000   0.0000000
 NQMom=    0.0000000   0.0000000   0.0000000   0.0000000   0.0000000   0.0000000   0.0000000   0.0000000   0.0000000   0.0000000
 NMagM=    2.7928460   2.7928460   0.0000000   2.7928460   0.0000000   2.7928460   2.7928460   2.7928460   0.0000000   2.7928460

  Atom        51          52          53          54          55          56          57          58          59          60
 IAtWgt=           1           1          16          16           1          16           1          12           1           1
 AtmWgt=   1.0078250   1.0078250  15.9949146  15.9949146   1.0078250  15.9949146   1.0078250  12.0000000   1.0078250   1.0078250
 NucSpn=           1           1           0           0           1           0           1           0           1           1
 AtZEff=   0.0000000   0.0000000   0.0000000   0.0000000   0.0000000   0.0000000   0.0000000   0.0000000   0.0000000   0.0000000
 NQMom=    0.0000000   0.0000000   0.0000000   0.0000000   0.0000000   0.0000000   0.0000000   0.0000000   0.0000000   0.0000000
 NMagM=    2.7928460   2.7928460   0.0000000   0.0000000   2.7928460   0.0000000   2.7928460   0.0000000   2.7928460   2.7928460

  Atom        61          62          63          64          65          66          67          68          69          70
 IAtWgt=          12           1           1          12           1           1          12           1          12           1
 AtmWgt=  12.0000000   1.0078250   1.0078250  12.0000000   1.0078250   1.0078250  12.0000000   1.0078250  12.0000000   1.0078250
 NucSpn=           0           1           1           0           1           1           0           1           0           1
 AtZEff=   0.0000000   0.0000000   0.0000000   0.0000000   0.0000000   0.0000000   0.0000000   0.0000000   0.0000000   0.0000000
 NQMom=    0.0000000   0.0000000   0.0000000   0.0000000   0.0000000   0.0000000   0.0000000   0.0000000   0.0000000   0.0000000
 NMagM=    0.0000000   2.7928460   2.7928460   0.0000000   2.7928460   2.7928460   0.0000000   2.7928460   0.0000000   2.7928460

  Atom        71          72          73          74          75          76
 IAtWgt=           1           1          12           1           1           1
 AtmWgt=   1.0078250   1.0078250  12.0000000   1.0078250   1.0078250   1.0078250
 NucSpn=           1           1           0           1           1           1
 AtZEff=   0.0000000   0.0000000   0.0000000   0.0000000   0.0000000   0.0000000
 NQMom=    0.0000000   0.0000000   0.0000000   0.0000000   0.0000000   0.0000000
 NMagM=    2.7928460   2.7928460   0.0000000   2.7928460   2.7928460   2.7928460
 Leave Link  101 at Fri Apr 28 13:57:07 2017, MaxMem=   33554432 cpu:       9.5
 (Enter /scratch/michal/g09/l202.exe)
 Symmetry turned off by external request.
 Stoichiometry    C27H46O3
 Framework group  C1[X(C27H46O3)]
 Deg. of freedom   222
 Full point group                 C1      NOp   1
                          Input orientation:                          
 ---------------------------------------------------------------------
 Center     Atomic      Atomic             Coordinates (Angstroms)
 Number     Number       Type             X           Y           Z
 ---------------------------------------------------------------------
      1          6           0        0.998163   -0.893095   -1.691756
      2          1           0        1.153175    0.074890   -2.183823
      3          6           0        2.210905   -1.793723   -1.966425
      4          1           0        2.351756   -1.906868   -3.046003
      5          1           0        1.976484   -2.795530   -1.571147
      6          6           0        3.484225   -1.282073   -1.320271
      7          6           0        3.422997   -0.917852    0.167182
      8          6           0        2.127628   -0.084790    0.419587
      9          1           0        2.277162    0.919778    0.000000
     10          1           0        1.985161    0.047721    1.497091
     11          6           0        0.844598   -0.672670   -0.187658
     12          1           0        0.596070   -1.631412    0.291362
     13          1           0        0.000000    0.000000    0.000000
     14          6           0        4.608633   -1.172523   -2.040564
     15          1           0        4.592549   -1.418287   -3.102935
     16          6           0        5.945339   -0.743044   -1.511473
     17          1           0        6.237101    0.208755   -1.984595
     18          6           0        6.010030   -0.604124    0.017128
     19          1           0        6.167751   -1.611175    0.418344
     20          6           0        4.664235   -0.037706    0.549406
     21          1           0        4.513732    0.923401    0.030091
     22          6           0        4.745558    0.282921    2.059221
     23          1           0        4.781396   -0.648952    2.633984
     24          1           0        3.831842    0.798029    2.375381
     25          6           0        5.954226    1.153752    2.453802
     26          1           0        5.850223    2.149743    1.999316
     27          1           0        5.932512    1.303836    3.537615
     28          6           0        7.287166    0.535403    1.986893
     29          6           0        7.163561    0.318026    0.450396
     30          1           0        6.919916    1.313990    0.039805
     31          6           0        8.598209    0.000000    0.000000
     32          1           0        8.760551    0.208936   -1.060465
     33          1           0        8.819840   -1.063151    0.138230
     34          6           0        9.476017    0.888553    0.921601
     35          1           0       10.283905    0.301154    1.374436
     36          1           0        9.959692    1.689515    0.354219
     37          6           0        8.541016    1.477411    2.032109
     38          1           0        8.190701    2.465613    1.693028
     39          6           0        7.576785   -0.780712    2.744883
     40          1           0        6.815220   -1.543043    2.562545
     41          1           0        8.539193   -1.214003    2.457762
     42          1           0        7.606759   -0.605777    3.825372
     43          6           0        9.282333    1.705689    3.375516
     44          1           0        9.698751    0.738582    3.696452
     45          6           0        8.366340    2.224644    4.498182
     46          1           0        7.854211    3.145529    4.191571
     47          1           0        8.938046    2.449984    5.403356
     48          1           0        7.602494    1.496116    4.778784
     49          6           0        3.369754   -2.230756    0.993001
     50          1           0        3.178440   -2.027268    2.051109
     51          1           0        2.571885   -2.891574    0.643180
     52          1           0        4.308330   -2.786467    0.911580
     53          8           0        6.992724   -1.595244   -2.040698
     54          8           0        6.827439   -2.942553   -1.507984
     55          1           0        6.427686   -3.394751   -2.268915
     56          8           0       -0.191297   -1.406421   -2.297218
     57          1           0       -0.407755   -2.254694   -1.885182
     58          6           0       10.476954    2.670224    3.169194
     59          1           0       11.045120    2.359359    2.285283
     60          1           0       10.085212    3.673515    2.940778
     61          6           0       11.462074    2.764508    4.345763
     62          1           0       10.960984    3.164276    5.236926
     63          1           0       11.795972    1.751497    4.607440
     64          6           0       12.675642    3.651078    4.026912
     65          1           0       12.311348    4.631583    3.687840
     66          1           0       13.227578    3.222361    3.176360
     67          6           0       13.658135    3.875153    5.194459
     68          1           0       13.080141    4.272749    6.043202
     69          6           0       14.334715    2.573422    5.653968
     70          1           0       14.903283    2.120229    4.831343
     71          1           0       15.035420    2.765023    6.474666
     72          1           0       13.609541    1.833149    6.006306
     73          6           0       14.714802    4.925175    4.815975
     74          1           0       15.321712    4.580679    3.968770
     75          1           0       15.395338    5.124578    5.651640
     76          1           0       14.249744    5.874838    4.527468
 ---------------------------------------------------------------------
 Rotational constants (GHZ):      0.4193070      0.0503556      0.0473943
 Leave Link  202 at Fri Apr 28 13:57:07 2017, MaxMem=   33554432 cpu:       0.2
 (Enter /scratch/michal/g09/l301.exe)
 Standard basis: 6-31G(d) (6D, 7F)
 Ernie: Thresh=  0.10000D-02 Tol=  0.10000D-05 Strict=F.
 AO basis set in the form of general basis input (Overlap normalization):
      1 0
 S   6 1.00       0.000000000000
      0.3047524880D+04  0.1834737132D-02
      0.4573695180D+03  0.1403732281D-01
      0.1039486850D+03  0.6884262226D-01
      0.2921015530D+02  0.2321844432D+00
      0.9286662960D+01  0.4679413484D+00
      0.3163926960D+01  0.3623119853D+00
 SP   3 1.00       0.000000000000
      0.7868272350D+01 -0.1193324198D+00  0.6899906659D-01
      0.1881288540D+01 -0.1608541517D+00  0.3164239610D+00
      0.5442492580D+00  0.1143456438D+01  0.7443082909D+00
 SP   1 1.00       0.000000000000
      0.1687144782D+00  0.1000000000D+01  0.1000000000D+01
 D   1 1.00       0.000000000000
      0.8000000000D+00  0.1000000000D+01
 ****
      2 0
 S   3 1.00       0.000000000000
      0.1873113696D+02  0.3349460434D-01
      0.2825394365D+01  0.2347269535D+00
      0.6401216923D+00  0.8137573261D+00
 S   1 1.00       0.000000000000
      0.1612777588D+00  0.1000000000D+01
 ****
      3 0
 S   6 1.00       0.000000000000
      0.3047524880D+04  0.1834737132D-02
      0.4573695180D+03  0.1403732281D-01
      0.1039486850D+03  0.6884262226D-01
      0.2921015530D+02  0.2321844432D+00
      0.9286662960D+01  0.4679413484D+00
      0.3163926960D+01  0.3623119853D+00
 SP   3 1.00       0.000000000000
      0.7868272350D+01 -0.1193324198D+00  0.6899906659D-01
      0.1881288540D+01 -0.1608541517D+00  0.3164239610D+00
      0.5442492580D+00  0.1143456438D+01  0.7443082909D+00
 SP   1 1.00       0.000000000000
      0.1687144782D+00  0.1000000000D+01  0.1000000000D+01
 D   1 1.00       0.000000000000
      0.8000000000D+00  0.1000000000D+01
 ****
      4 0
 S   3 1.00       0.000000000000
      0.1873113696D+02  0.3349460434D-01
      0.2825394365D+01  0.2347269535D+00
      0.6401216923D+00  0.8137573261D+00
 S   1 1.00       0.000000000000
      0.1612777588D+00  0.1000000000D+01
 ****
      5 0
 S   3 1.00       0.000000000000
      0.1873113696D+02  0.3349460434D-01
      0.2825394365D+01  0.2347269535D+00
      0.6401216923D+00  0.8137573261D+00
 S   1 1.00       0.000000000000
      0.1612777588D+00  0.1000000000D+01
 ****
      6 0
 S   6 1.00       0.000000000000
      0.3047524880D+04  0.1834737132D-02
      0.4573695180D+03  0.1403732281D-01
      0.1039486850D+03  0.6884262226D-01
      0.2921015530D+02  0.2321844432D+00
      0.9286662960D+01  0.4679413484D+00
      0.3163926960D+01  0.3623119853D+00
 SP   3 1.00       0.000000000000
      0.7868272350D+01 -0.1193324198D+00  0.6899906659D-01
      0.1881288540D+01 -0.1608541517D+00  0.3164239610D+00
      0.5442492580D+00  0.1143456438D+01  0.7443082909D+00
 SP   1 1.00       0.000000000000
      0.1687144782D+00  0.1000000000D+01  0.1000000000D+01
 D   1 1.00       0.000000000000
      0.8000000000D+00  0.1000000000D+01
 ****
      7 0
 S   6 1.00       0.000000000000
      0.3047524880D+04  0.1834737132D-02
      0.4573695180D+03  0.1403732281D-01
      0.1039486850D+03  0.6884262226D-01
      0.2921015530D+02  0.2321844432D+00
      0.9286662960D+01  0.4679413484D+00
      0.3163926960D+01  0.3623119853D+00
 SP   3 1.00       0.000000000000
      0.7868272350D+01 -0.1193324198D+00  0.6899906659D-01
      0.1881288540D+01 -0.1608541517D+00  0.3164239610D+00
      0.5442492580D+00  0.1143456438D+01  0.7443082909D+00
 SP   1 1.00       0.000000000000
      0.1687144782D+00  0.1000000000D+01  0.1000000000D+01
 D   1 1.00       0.000000000000
      0.8000000000D+00  0.1000000000D+01
 ****
      8 0
 S   6 1.00       0.000000000000
      0.3047524880D+04  0.1834737132D-02
      0.4573695180D+03  0.1403732281D-01
      0.1039486850D+03  0.6884262226D-01
      0.2921015530D+02  0.2321844432D+00
      0.9286662960D+01  0.4679413484D+00
      0.3163926960D+01  0.3623119853D+00
 SP   3 1.00       0.000000000000
      0.7868272350D+01 -0.1193324198D+00  0.6899906659D-01
      0.1881288540D+01 -0.1608541517D+00  0.3164239610D+00
      0.5442492580D+00  0.1143456438D+01  0.7443082909D+00
 SP   1 1.00       0.000000000000
      0.1687144782D+00  0.1000000000D+01  0.1000000000D+01
 D   1 1.00       0.000000000000
      0.8000000000D+00  0.1000000000D+01
 ****
      9 0
 S   3 1.00       0.000000000000
      0.1873113696D+02  0.3349460434D-01
      0.2825394365D+01  0.2347269535D+00
      0.6401216923D+00  0.8137573261D+00
 S   1 1.00       0.000000000000
      0.1612777588D+00  0.1000000000D+01
 ****
     10 0
 S   3 1.00       0.000000000000
      0.1873113696D+02  0.3349460434D-01
      0.2825394365D+01  0.2347269535D+00
      0.6401216923D+00  0.8137573261D+00
 S   1 1.00       0.000000000000
      0.1612777588D+00  0.1000000000D+01
 ****
     11 0
 S   6 1.00       0.000000000000
      0.3047524880D+04  0.1834737132D-02
      0.4573695180D+03  0.1403732281D-01
      0.1039486850D+03  0.6884262226D-01
      0.2921015530D+02  0.2321844432D+00
      0.9286662960D+01  0.4679413484D+00
      0.3163926960D+01  0.3623119853D+00
 SP   3 1.00       0.000000000000
      0.7868272350D+01 -0.1193324198D+00  0.6899906659D-01
      0.1881288540D+01 -0.1608541517D+00  0.3164239610D+00
      0.5442492580D+00  0.1143456438D+01  0.7443082909D+00
 SP   1 1.00       0.000000000000
      0.1687144782D+00  0.1000000000D+01  0.1000000000D+01
 D   1 1.00       0.000000000000
      0.8000000000D+00  0.1000000000D+01
 ****
     12 0
 S   3 1.00       0.000000000000
      0.1873113696D+02  0.3349460434D-01
      0.2825394365D+01  0.2347269535D+00
      0.6401216923D+00  0.8137573261D+00
 S   1 1.00       0.000000000000
      0.1612777588D+00  0.1000000000D+01
 ****
     13 0
 S   3 1.00       0.000000000000
      0.1873113696D+02  0.3349460434D-01
      0.2825394365D+01  0.2347269535D+00
      0.6401216923D+00  0.8137573261D+00
 S   1 1.00       0.000000000000
      0.1612777588D+00  0.1000000000D+01
 ****
     14 0
 S   6 1.00       0.000000000000
      0.3047524880D+04  0.1834737132D-02
      0.4573695180D+03  0.1403732281D-01
      0.1039486850D+03  0.6884262226D-01
      0.2921015530D+02  0.2321844432D+00
      0.9286662960D+01  0.4679413484D+00
      0.3163926960D+01  0.3623119853D+00
 SP   3 1.00       0.000000000000
      0.7868272350D+01 -0.1193324198D+00  0.6899906659D-01
      0.1881288540D+01 -0.1608541517D+00  0.3164239610D+00
      0.5442492580D+00  0.1143456438D+01  0.7443082909D+00
 SP   1 1.00       0.000000000000
      0.1687144782D+00  0.1000000000D+01  0.1000000000D+01
 D   1 1.00       0.000000000000
      0.8000000000D+00  0.1000000000D+01
 ****
     15 0
 S   3 1.00       0.000000000000
      0.1873113696D+02  0.3349460434D-01
      0.2825394365D+01  0.2347269535D+00
      0.6401216923D+00  0.8137573261D+00
 S   1 1.00       0.000000000000
      0.1612777588D+00  0.1000000000D+01
 ****
     16 0
 S   6 1.00       0.000000000000
      0.3047524880D+04  0.1834737132D-02
      0.4573695180D+03  0.1403732281D-01
      0.1039486850D+03  0.6884262226D-01
      0.2921015530D+02  0.2321844432D+00
      0.9286662960D+01  0.4679413484D+00
      0.3163926960D+01  0.3623119853D+00
 SP   3 1.00       0.000000000000
      0.7868272350D+01 -0.1193324198D+00  0.6899906659D-01
      0.1881288540D+01 -0.1608541517D+00  0.3164239610D+00
      0.5442492580D+00  0.1143456438D+01  0.7443082909D+00
 SP   1 1.00       0.000000000000
      0.1687144782D+00  0.1000000000D+01  0.1000000000D+01
 D   1 1.00       0.000000000000
      0.8000000000D+00  0.1000000000D+01
 ****
     17 0
 S   3 1.00       0.000000000000
      0.1873113696D+02  0.3349460434D-01
      0.2825394365D+01  0.2347269535D+00
      0.6401216923D+00  0.8137573261D+00
 S   1 1.00       0.000000000000
      0.1612777588D+00  0.1000000000D+01
 ****
     18 0
 S   6 1.00       0.000000000000
      0.3047524880D+04  0.1834737132D-02
      0.4573695180D+03  0.1403732281D-01
      0.1039486850D+03  0.6884262226D-01
      0.2921015530D+02  0.2321844432D+00
      0.9286662960D+01  0.4679413484D+00
      0.3163926960D+01  0.3623119853D+00
 SP   3 1.00       0.000000000000
      0.7868272350D+01 -0.1193324198D+00  0.6899906659D-01
      0.1881288540D+01 -0.1608541517D+00  0.3164239610D+00
      0.5442492580D+00  0.1143456438D+01  0.7443082909D+00
 SP   1 1.00       0.000000000000
      0.1687144782D+00  0.1000000000D+01  0.1000000000D+01
 D   1 1.00       0.000000000000
      0.8000000000D+00  0.1000000000D+01
 ****
     19 0
 S   3 1.00       0.000000000000
      0.1873113696D+02  0.3349460434D-01
      0.2825394365D+01  0.2347269535D+00
      0.6401216923D+00  0.8137573261D+00
 S   1 1.00       0.000000000000
      0.1612777588D+00  0.1000000000D+01
 ****
     20 0
 S   6 1.00       0.000000000000
      0.3047524880D+04  0.1834737132D-02
      0.4573695180D+03  0.1403732281D-01
      0.1039486850D+03  0.6884262226D-01
      0.2921015530D+02  0.2321844432D+00
      0.9286662960D+01  0.4679413484D+00
      0.3163926960D+01  0.3623119853D+00
 SP   3 1.00       0.000000000000
      0.7868272350D+01 -0.1193324198D+00  0.6899906659D-01
      0.1881288540D+01 -0.1608541517D+00  0.3164239610D+00
      0.5442492580D+00  0.1143456438D+01  0.7443082909D+00
 SP   1 1.00       0.000000000000
      0.1687144782D+00  0.1000000000D+01  0.1000000000D+01
 D   1 1.00       0.000000000000
      0.8000000000D+00  0.1000000000D+01
 ****
     21 0
 S   3 1.00       0.000000000000
      0.1873113696D+02  0.3349460434D-01
      0.2825394365D+01  0.2347269535D+00
      0.6401216923D+00  0.8137573261D+00
 S   1 1.00       0.000000000000
      0.1612777588D+00  0.1000000000D+01
 ****
     22 0
 S   6 1.00       0.000000000000
      0.3047524880D+04  0.1834737132D-02
      0.4573695180D+03  0.1403732281D-01
      0.1039486850D+03  0.6884262226D-01
      0.2921015530D+02  0.2321844432D+00
      0.9286662960D+01  0.4679413484D+00
      0.3163926960D+01  0.3623119853D+00
 SP   3 1.00       0.000000000000
      0.7868272350D+01 -0.1193324198D+00  0.6899906659D-01
      0.1881288540D+01 -0.1608541517D+00  0.3164239610D+00
      0.5442492580D+00  0.1143456438D+01  0.7443082909D+00
 SP   1 1.00       0.000000000000
      0.1687144782D+00  0.1000000000D+01  0.1000000000D+01
 D   1 1.00       0.000000000000
      0.8000000000D+00  0.1000000000D+01
 ****
     23 0
 S   3 1.00       0.000000000000
      0.1873113696D+02  0.3349460434D-01
      0.2825394365D+01  0.2347269535D+00
      0.6401216923D+00  0.8137573261D+00
 S   1 1.00       0.000000000000
      0.1612777588D+00  0.1000000000D+01
 ****
     24 0
 S   3 1.00       0.000000000000
      0.1873113696D+02  0.3349460434D-01
      0.2825394365D+01  0.2347269535D+00
      0.6401216923D+00  0.8137573261D+00
 S   1 1.00       0.000000000000
      0.1612777588D+00  0.1000000000D+01
 ****
     25 0
 S   6 1.00       0.000000000000
      0.3047524880D+04  0.1834737132D-02
      0.4573695180D+03  0.1403732281D-01
      0.1039486850D+03  0.6884262226D-01
      0.2921015530D+02  0.2321844432D+00
      0.9286662960D+01  0.4679413484D+00
      0.3163926960D+01  0.3623119853D+00
 SP   3 1.00       0.000000000000
      0.7868272350D+01 -0.1193324198D+00  0.6899906659D-01
      0.1881288540D+01 -0.1608541517D+00  0.3164239610D+00
      0.5442492580D+00  0.1143456438D+01  0.7443082909D+00
 SP   1 1.00       0.000000000000
      0.1687144782D+00  0.1000000000D+01  0.1000000000D+01
 D   1 1.00       0.000000000000
      0.8000000000D+00  0.1000000000D+01
 ****
     26 0
 S   3 1.00       0.000000000000
      0.1873113696D+02  0.3349460434D-01
      0.2825394365D+01  0.2347269535D+00
      0.6401216923D+00  0.8137573261D+00
 S   1 1.00       0.000000000000
      0.1612777588D+00  0.1000000000D+01
 ****
     27 0
 S   3 1.00       0.000000000000
      0.1873113696D+02  0.3349460434D-01
      0.2825394365D+01  0.2347269535D+00
      0.6401216923D+00  0.8137573261D+00
 S   1 1.00       0.000000000000
      0.1612777588D+00  0.1000000000D+01
 ****
     28 0
 S   6 1.00       0.000000000000
      0.3047524880D+04  0.1834737132D-02
      0.4573695180D+03  0.1403732281D-01
      0.1039486850D+03  0.6884262226D-01
      0.2921015530D+02  0.2321844432D+00
      0.9286662960D+01  0.4679413484D+00
      0.3163926960D+01  0.3623119853D+00
 SP   3 1.00       0.000000000000
      0.7868272350D+01 -0.1193324198D+00  0.6899906659D-01
      0.1881288540D+01 -0.1608541517D+00  0.3164239610D+00
      0.5442492580D+00  0.1143456438D+01  0.7443082909D+00
 SP   1 1.00       0.000000000000
      0.1687144782D+00  0.1000000000D+01  0.1000000000D+01
 D   1 1.00       0.000000000000
      0.8000000000D+00  0.1000000000D+01
 ****
     29 0
 S   6 1.00       0.000000000000
      0.3047524880D+04  0.1834737132D-02
      0.4573695180D+03  0.1403732281D-01
      0.1039486850D+03  0.6884262226D-01
      0.2921015530D+02  0.2321844432D+00
      0.9286662960D+01  0.4679413484D+00
      0.3163926960D+01  0.3623119853D+00
 SP   3 1.00       0.000000000000
      0.7868272350D+01 -0.1193324198D+00  0.6899906659D-01
      0.1881288540D+01 -0.1608541517D+00  0.3164239610D+00
      0.5442492580D+00  0.1143456438D+01  0.7443082909D+00
 SP   1 1.00       0.000000000000
      0.1687144782D+00  0.1000000000D+01  0.1000000000D+01
 D   1 1.00       0.000000000000
      0.8000000000D+00  0.1000000000D+01
 ****
     30 0
 S   3 1.00       0.000000000000
      0.1873113696D+02  0.3349460434D-01
      0.2825394365D+01  0.2347269535D+00
      0.6401216923D+00  0.8137573261D+00
 S   1 1.00       0.000000000000
      0.1612777588D+00  0.1000000000D+01
 ****
     31 0
 S   6 1.00       0.000000000000
      0.3047524880D+04  0.1834737132D-02
      0.4573695180D+03  0.1403732281D-01
      0.1039486850D+03  0.6884262226D-01
      0.2921015530D+02  0.2321844432D+00
      0.9286662960D+01  0.4679413484D+00
      0.3163926960D+01  0.3623119853D+00
 SP   3 1.00       0.000000000000
      0.7868272350D+01 -0.1193324198D+00  0.6899906659D-01
      0.1881288540D+01 -0.1608541517D+00  0.3164239610D+00
      0.5442492580D+00  0.1143456438D+01  0.7443082909D+00
 SP   1 1.00       0.000000000000
      0.1687144782D+00  0.1000000000D+01  0.1000000000D+01
 D   1 1.00       0.000000000000
      0.8000000000D+00  0.1000000000D+01
 ****
     32 0
 S   3 1.00       0.000000000000
      0.1873113696D+02  0.3349460434D-01
      0.2825394365D+01  0.2347269535D+00
      0.6401216923D+00  0.8137573261D+00
 S   1 1.00       0.000000000000
      0.1612777588D+00  0.1000000000D+01
 ****
     33 0
 S   3 1.00       0.000000000000
      0.1873113696D+02  0.3349460434D-01
      0.2825394365D+01  0.2347269535D+00
      0.6401216923D+00  0.8137573261D+00
 S   1 1.00       0.000000000000
      0.1612777588D+00  0.1000000000D+01
 ****
     34 0
 S   6 1.00       0.000000000000
      0.3047524880D+04  0.1834737132D-02
      0.4573695180D+03  0.1403732281D-01
      0.1039486850D+03  0.6884262226D-01
      0.2921015530D+02  0.2321844432D+00
      0.9286662960D+01  0.4679413484D+00
      0.3163926960D+01  0.3623119853D+00
 SP   3 1.00       0.000000000000
      0.7868272350D+01 -0.1193324198D+00  0.6899906659D-01
      0.1881288540D+01 -0.1608541517D+00  0.3164239610D+00
      0.5442492580D+00  0.1143456438D+01  0.7443082909D+00
 SP   1 1.00       0.000000000000
      0.1687144782D+00  0.1000000000D+01  0.1000000000D+01
 D   1 1.00       0.000000000000
      0.8000000000D+00  0.1000000000D+01
 ****
     35 0
 S   3 1.00       0.000000000000
      0.1873113696D+02  0.3349460434D-01
      0.2825394365D+01  0.2347269535D+00
      0.6401216923D+00  0.8137573261D+00
 S   1 1.00       0.000000000000
      0.1612777588D+00  0.1000000000D+01
 ****
     36 0
 S   3 1.00       0.000000000000
      0.1873113696D+02  0.3349460434D-01
      0.2825394365D+01  0.2347269535D+00
      0.6401216923D+00  0.8137573261D+00
 S   1 1.00       0.000000000000
      0.1612777588D+00  0.1000000000D+01
 ****
     37 0
 S   6 1.00       0.000000000000
      0.3047524880D+04  0.1834737132D-02
      0.4573695180D+03  0.1403732281D-01
      0.1039486850D+03  0.6884262226D-01
      0.2921015530D+02  0.2321844432D+00
      0.9286662960D+01  0.4679413484D+00
      0.3163926960D+01  0.3623119853D+00
 SP   3 1.00       0.000000000000
      0.7868272350D+01 -0.1193324198D+00  0.6899906659D-01
      0.1881288540D+01 -0.1608541517D+00  0.3164239610D+00
      0.5442492580D+00  0.1143456438D+01  0.7443082909D+00
 SP   1 1.00       0.000000000000
      0.1687144782D+00  0.1000000000D+01  0.1000000000D+01
 D   1 1.00       0.000000000000
      0.8000000000D+00  0.1000000000D+01
 ****
     38 0
 S   3 1.00       0.000000000000
      0.1873113696D+02  0.3349460434D-01
      0.2825394365D+01  0.2347269535D+00
      0.6401216923D+00  0.8137573261D+00
 S   1 1.00       0.000000000000
      0.1612777588D+00  0.1000000000D+01
 ****
     39 0
 S   6 1.00       0.000000000000
      0.3047524880D+04  0.1834737132D-02
      0.4573695180D+03  0.1403732281D-01
      0.1039486850D+03  0.6884262226D-01
      0.2921015530D+02  0.2321844432D+00
      0.9286662960D+01  0.4679413484D+00
      0.3163926960D+01  0.3623119853D+00
 SP   3 1.00       0.000000000000
      0.7868272350D+01 -0.1193324198D+00  0.6899906659D-01
      0.1881288540D+01 -0.1608541517D+00  0.3164239610D+00
      0.5442492580D+00  0.1143456438D+01  0.7443082909D+00
 SP   1 1.00       0.000000000000
      0.1687144782D+00  0.1000000000D+01  0.1000000000D+01
 D   1 1.00       0.000000000000
      0.8000000000D+00  0.1000000000D+01
 ****
     40 0
 S   3 1.00       0.000000000000
      0.1873113696D+02  0.3349460434D-01
      0.2825394365D+01  0.2347269535D+00
      0.6401216923D+00  0.8137573261D+00
 S   1 1.00       0.000000000000
      0.1612777588D+00  0.1000000000D+01
 ****
     41 0
 S   3 1.00       0.000000000000
      0.1873113696D+02  0.3349460434D-01
      0.2825394365D+01  0.2347269535D+00
      0.6401216923D+00  0.8137573261D+00
 S   1 1.00       0.000000000000
      0.1612777588D+00  0.1000000000D+01
 ****
     42 0
 S   3 1.00       0.000000000000
      0.1873113696D+02  0.3349460434D-01
      0.2825394365D+01  0.2347269535D+00
      0.6401216923D+00  0.8137573261D+00
 S   1 1.00       0.000000000000
      0.1612777588D+00  0.1000000000D+01
 ****
     43 0
 S   6 1.00       0.000000000000
      0.3047524880D+04  0.1834737132D-02
      0.4573695180D+03  0.1403732281D-01
      0.1039486850D+03  0.6884262226D-01
      0.2921015530D+02  0.2321844432D+00
      0.9286662960D+01  0.4679413484D+00
      0.3163926960D+01  0.3623119853D+00
 SP   3 1.00       0.000000000000
      0.7868272350D+01 -0.1193324198D+00  0.6899906659D-01
      0.1881288540D+01 -0.1608541517D+00  0.3164239610D+00
      0.5442492580D+00  0.1143456438D+01  0.7443082909D+00
 SP   1 1.00       0.000000000000
      0.1687144782D+00  0.1000000000D+01  0.1000000000D+01
 D   1 1.00       0.000000000000
      0.8000000000D+00  0.1000000000D+01
 ****
     44 0
 S   3 1.00       0.000000000000
      0.1873113696D+02  0.3349460434D-01
      0.2825394365D+01  0.2347269535D+00
      0.6401216923D+00  0.8137573261D+00
 S   1 1.00       0.000000000000
      0.1612777588D+00  0.1000000000D+01
 ****
     45 0
 S   6 1.00       0.000000000000
      0.3047524880D+04  0.1834737132D-02
      0.4573695180D+03  0.1403732281D-01
      0.1039486850D+03  0.6884262226D-01
      0.2921015530D+02  0.2321844432D+00
      0.9286662960D+01  0.4679413484D+00
      0.3163926960D+01  0.3623119853D+00
 SP   3 1.00       0.000000000000
      0.7868272350D+01 -0.1193324198D+00  0.6899906659D-01
      0.1881288540D+01 -0.1608541517D+00  0.3164239610D+00
      0.5442492580D+00  0.1143456438D+01  0.7443082909D+00
 SP   1 1.00       0.000000000000
      0.1687144782D+00  0.1000000000D+01  0.1000000000D+01
 D   1 1.00       0.000000000000
      0.8000000000D+00  0.1000000000D+01
 ****
     46 0
 S   3 1.00       0.000000000000
      0.1873113696D+02  0.3349460434D-01
      0.2825394365D+01  0.2347269535D+00
      0.6401216923D+00  0.8137573261D+00
 S   1 1.00       0.000000000000
      0.1612777588D+00  0.1000000000D+01
 ****
     47 0
 S   3 1.00       0.000000000000
      0.1873113696D+02  0.3349460434D-01
      0.2825394365D+01  0.2347269535D+00
      0.6401216923D+00  0.8137573261D+00
 S   1 1.00       0.000000000000
      0.1612777588D+00  0.1000000000D+01
 ****
     48 0
 S   3 1.00       0.000000000000
      0.1873113696D+02  0.3349460434D-01
      0.2825394365D+01  0.2347269535D+00
      0.6401216923D+00  0.8137573261D+00
 S   1 1.00       0.000000000000
      0.1612777588D+00  0.1000000000D+01
 ****
     49 0
 S   6 1.00       0.000000000000
      0.3047524880D+04  0.1834737132D-02
      0.4573695180D+03  0.1403732281D-01
      0.1039486850D+03  0.6884262226D-01
      0.2921015530D+02  0.2321844432D+00
      0.9286662960D+01  0.4679413484D+00
      0.3163926960D+01  0.3623119853D+00
 SP   3 1.00       0.000000000000
      0.7868272350D+01 -0.1193324198D+00  0.6899906659D-01
      0.1881288540D+01 -0.1608541517D+00  0.3164239610D+00
      0.5442492580D+00  0.1143456438D+01  0.7443082909D+00
 SP   1 1.00       0.000000000000
      0.1687144782D+00  0.1000000000D+01  0.1000000000D+01
 D   1 1.00       0.000000000000
      0.8000000000D+00  0.1000000000D+01
 ****
     50 0
 S   3 1.00       0.000000000000
      0.1873113696D+02  0.3349460434D-01
      0.2825394365D+01  0.2347269535D+00
      0.6401216923D+00  0.8137573261D+00
 S   1 1.00       0.000000000000
      0.1612777588D+00  0.1000000000D+01
 ****
     51 0
 S   3 1.00       0.000000000000
      0.1873113696D+02  0.3349460434D-01
      0.2825394365D+01  0.2347269535D+00
      0.6401216923D+00  0.8137573261D+00
 S   1 1.00       0.000000000000
      0.1612777588D+00  0.1000000000D+01
 ****
     52 0
 S   3 1.00       0.000000000000
      0.1873113696D+02  0.3349460434D-01
      0.2825394365D+01  0.2347269535D+00
      0.6401216923D+00  0.8137573261D+00
 S   1 1.00       0.000000000000
      0.1612777588D+00  0.1000000000D+01
 ****
     53 0
 S   6 1.00       0.000000000000
      0.5484671660D+04  0.1831074430D-02
      0.8252349460D+03  0.1395017220D-01
      0.1880469580D+03  0.6844507810D-01
      0.5296450000D+02  0.2327143360D+00
      0.1689757040D+02  0.4701928980D+00
      0.5799635340D+01  0.3585208530D+00
 SP   3 1.00       0.000000000000
      0.1553961625D+02 -0.1107775495D+00  0.7087426823D-01
      0.3599933586D+01 -0.1480262627D+00  0.3397528391D+00
      0.1013761750D+01  0.1130767015D+01  0.7271585773D+00
 SP   1 1.00       0.000000000000
      0.2700058226D+00  0.1000000000D+01  0.1000000000D+01
 D   1 1.00       0.000000000000
      0.8000000000D+00  0.1000000000D+01
 ****
     54 0
 S   6 1.00       0.000000000000
      0.5484671660D+04  0.1831074430D-02
      0.8252349460D+03  0.1395017220D-01
      0.1880469580D+03  0.6844507810D-01
      0.5296450000D+02  0.2327143360D+00
      0.1689757040D+02  0.4701928980D+00
      0.5799635340D+01  0.3585208530D+00
 SP   3 1.00       0.000000000000
      0.1553961625D+02 -0.1107775495D+00  0.7087426823D-01
      0.3599933586D+01 -0.1480262627D+00  0.3397528391D+00
      0.1013761750D+01  0.1130767015D+01  0.7271585773D+00
 SP   1 1.00       0.000000000000
      0.2700058226D+00  0.1000000000D+01  0.1000000000D+01
 D   1 1.00       0.000000000000
      0.8000000000D+00  0.1000000000D+01
 ****
     55 0
 S   3 1.00       0.000000000000
      0.1873113696D+02  0.3349460434D-01
      0.2825394365D+01  0.2347269535D+00
      0.6401216923D+00  0.8137573261D+00
 S   1 1.00       0.000000000000
      0.1612777588D+00  0.1000000000D+01
 ****
     56 0
 S   6 1.00       0.000000000000
      0.5484671660D+04  0.1831074430D-02
      0.8252349460D+03  0.1395017220D-01
      0.1880469580D+03  0.6844507810D-01
      0.5296450000D+02  0.2327143360D+00
      0.1689757040D+02  0.4701928980D+00
      0.5799635340D+01  0.3585208530D+00
 SP   3 1.00       0.000000000000
      0.1553961625D+02 -0.1107775495D+00  0.7087426823D-01
      0.3599933586D+01 -0.1480262627D+00  0.3397528391D+00
      0.1013761750D+01  0.1130767015D+01  0.7271585773D+00
 SP   1 1.00       0.000000000000
      0.2700058226D+00  0.1000000000D+01  0.1000000000D+01
 D   1 1.00       0.000000000000
      0.8000000000D+00  0.1000000000D+01
 ****
     57 0
 S   3 1.00       0.000000000000
      0.1873113696D+02  0.3349460434D-01
      0.2825394365D+01  0.2347269535D+00
      0.6401216923D+00  0.8137573261D+00
 S   1 1.00       0.000000000000
      0.1612777588D+00  0.1000000000D+01
 ****
     58 0
 S   6 1.00       0.000000000000
      0.3047524880D+04  0.1834737132D-02
      0.4573695180D+03  0.1403732281D-01
      0.1039486850D+03  0.6884262226D-01
      0.2921015530D+02  0.2321844432D+00
      0.9286662960D+01  0.4679413484D+00
      0.3163926960D+01  0.3623119853D+00
 SP   3 1.00       0.000000000000
      0.7868272350D+01 -0.1193324198D+00  0.6899906659D-01
      0.1881288540D+01 -0.1608541517D+00  0.3164239610D+00
      0.5442492580D+00  0.1143456438D+01  0.7443082909D+00
 SP   1 1.00       0.000000000000
      0.1687144782D+00  0.1000000000D+01  0.1000000000D+01
 D   1 1.00       0.000000000000
      0.8000000000D+00  0.1000000000D+01
 ****
     59 0
 S   3 1.00       0.000000000000
      0.1873113696D+02  0.3349460434D-01
      0.2825394365D+01  0.2347269535D+00
      0.6401216923D+00  0.8137573261D+00
 S   1 1.00       0.000000000000
      0.1612777588D+00  0.1000000000D+01
 ****
     60 0
 S   3 1.00       0.000000000000
      0.1873113696D+02  0.3349460434D-01
      0.2825394365D+01  0.2347269535D+00
      0.6401216923D+00  0.8137573261D+00
 S   1 1.00       0.000000000000
      0.1612777588D+00  0.1000000000D+01
 ****
     61 0
 S   6 1.00       0.000000000000
      0.3047524880D+04  0.1834737132D-02
      0.4573695180D+03  0.1403732281D-01
      0.1039486850D+03  0.6884262226D-01
      0.2921015530D+02  0.2321844432D+00
      0.9286662960D+01  0.4679413484D+00
      0.3163926960D+01  0.3623119853D+00
 SP   3 1.00       0.000000000000
      0.7868272350D+01 -0.1193324198D+00  0.6899906659D-01
      0.1881288540D+01 -0.1608541517D+00  0.3164239610D+00
      0.5442492580D+00  0.1143456438D+01  0.7443082909D+00
 SP   1 1.00       0.000000000000
      0.1687144782D+00  0.1000000000D+01  0.1000000000D+01
 D   1 1.00       0.000000000000
      0.8000000000D+00  0.1000000000D+01
 ****
     62 0
 S   3 1.00       0.000000000000
      0.1873113696D+02  0.3349460434D-01
      0.2825394365D+01  0.2347269535D+00
      0.6401216923D+00  0.8137573261D+00
 S   1 1.00       0.000000000000
      0.1612777588D+00  0.1000000000D+01
 ****
     63 0
 S   3 1.00       0.000000000000
      0.1873113696D+02  0.3349460434D-01
      0.2825394365D+01  0.2347269535D+00
      0.6401216923D+00  0.8137573261D+00
 S   1 1.00       0.000000000000
      0.1612777588D+00  0.1000000000D+01
 ****
     64 0
 S   6 1.00       0.000000000000
      0.3047524880D+04  0.1834737132D-02
      0.4573695180D+03  0.1403732281D-01
      0.1039486850D+03  0.6884262226D-01
      0.2921015530D+02  0.2321844432D+00
      0.9286662960D+01  0.4679413484D+00
      0.3163926960D+01  0.3623119853D+00
 SP   3 1.00       0.000000000000
      0.7868272350D+01 -0.1193324198D+00  0.6899906659D-01
      0.1881288540D+01 -0.1608541517D+00  0.3164239610D+00
      0.5442492580D+00  0.1143456438D+01  0.7443082909D+00
 SP   1 1.00       0.000000000000
      0.1687144782D+00  0.1000000000D+01  0.1000000000D+01
 D   1 1.00       0.000000000000
      0.8000000000D+00  0.1000000000D+01
 ****
     65 0
 S   3 1.00       0.000000000000
      0.1873113696D+02  0.3349460434D-01
      0.2825394365D+01  0.2347269535D+00
      0.6401216923D+00  0.8137573261D+00
 S   1 1.00       0.000000000000
      0.1612777588D+00  0.1000000000D+01
 ****
     66 0
 S   3 1.00       0.000000000000
      0.1873113696D+02  0.3349460434D-01
      0.2825394365D+01  0.2347269535D+00
      0.6401216923D+00  0.8137573261D+00
 S   1 1.00       0.000000000000
      0.1612777588D+00  0.1000000000D+01
 ****
     67 0
 S   6 1.00       0.000000000000
      0.3047524880D+04  0.1834737132D-02
      0.4573695180D+03  0.1403732281D-01
      0.1039486850D+03  0.6884262226D-01
      0.2921015530D+02  0.2321844432D+00
      0.9286662960D+01  0.4679413484D+00
      0.3163926960D+01  0.3623119853D+00
 SP   3 1.00       0.000000000000
      0.7868272350D+01 -0.1193324198D+00  0.6899906659D-01
      0.1881288540D+01 -0.1608541517D+00  0.3164239610D+00
      0.5442492580D+00  0.1143456438D+01  0.7443082909D+00
 SP   1 1.00       0.000000000000
      0.1687144782D+00  0.1000000000D+01  0.1000000000D+01
 D   1 1.00       0.000000000000
      0.8000000000D+00  0.1000000000D+01
 ****
     68 0
 S   3 1.00       0.000000000000
      0.1873113696D+02  0.3349460434D-01
      0.2825394365D+01  0.2347269535D+00
      0.6401216923D+00  0.8137573261D+00
 S   1 1.00       0.000000000000
      0.1612777588D+00  0.1000000000D+01
 ****
     69 0
 S   6 1.00       0.000000000000
      0.3047524880D+04  0.1834737132D-02
      0.4573695180D+03  0.1403732281D-01
      0.1039486850D+03  0.6884262226D-01
      0.2921015530D+02  0.2321844432D+00
      0.9286662960D+01  0.4679413484D+00
      0.3163926960D+01  0.3623119853D+00
 SP   3 1.00       0.000000000000
      0.7868272350D+01 -0.1193324198D+00  0.6899906659D-01
      0.1881288540D+01 -0.1608541517D+00  0.3164239610D+00
      0.5442492580D+00  0.1143456438D+01  0.7443082909D+00
 SP   1 1.00       0.000000000000
      0.1687144782D+00  0.1000000000D+01  0.1000000000D+01
 D   1 1.00       0.000000000000
      0.8000000000D+00  0.1000000000D+01
 ****
     70 0
 S   3 1.00       0.000000000000
      0.1873113696D+02  0.3349460434D-01
      0.2825394365D+01  0.2347269535D+00
      0.6401216923D+00  0.8137573261D+00
 S   1 1.00       0.000000000000
      0.1612777588D+00  0.1000000000D+01
 ****
     71 0
 S   3 1.00       0.000000000000
      0.1873113696D+02  0.3349460434D-01
      0.2825394365D+01  0.2347269535D+00
      0.6401216923D+00  0.8137573261D+00
 S   1 1.00       0.000000000000
      0.1612777588D+00  0.1000000000D+01
 ****
     72 0
 S   3 1.00       0.000000000000
      0.1873113696D+02  0.3349460434D-01
      0.2825394365D+01  0.2347269535D+00
      0.6401216923D+00  0.8137573261D+00
 S   1 1.00       0.000000000000
      0.1612777588D+00  0.1000000000D+01
 ****
     73 0
 S   6 1.00       0.000000000000
      0.3047524880D+04  0.1834737132D-02
      0.4573695180D+03  0.1403732281D-01
      0.1039486850D+03  0.6884262226D-01
      0.2921015530D+02  0.2321844432D+00
      0.9286662960D+01  0.4679413484D+00
      0.3163926960D+01  0.3623119853D+00
 SP   3 1.00       0.000000000000
      0.7868272350D+01 -0.1193324198D+00  0.6899906659D-01
      0.1881288540D+01 -0.1608541517D+00  0.3164239610D+00
      0.5442492580D+00  0.1143456438D+01  0.7443082909D+00
 SP   1 1.00       0.000000000000
      0.1687144782D+00  0.1000000000D+01  0.1000000000D+01
 D   1 1.00       0.000000000000
      0.8000000000D+00  0.1000000000D+01
 ****
     74 0
 S   3 1.00       0.000000000000
      0.1873113696D+02  0.3349460434D-01
      0.2825394365D+01  0.2347269535D+00
      0.6401216923D+00  0.8137573261D+00
 S   1 1.00       0.000000000000
      0.1612777588D+00  0.1000000000D+01
 ****
     75 0
 S   3 1.00       0.000000000000
      0.1873113696D+02  0.3349460434D-01
      0.2825394365D+01  0.2347269535D+00
      0.6401216923D+00  0.8137573261D+00
 S   1 1.00       0.000000000000
      0.1612777588D+00  0.1000000000D+01
 ****
     76 0
 S   3 1.00       0.000000000000
      0.1873113696D+02  0.3349460434D-01
      0.2825394365D+01  0.2347269535D+00
      0.6401216923D+00  0.8137573261D+00
 S   1 1.00       0.000000000000
      0.1612777588D+00  0.1000000000D+01
 ****

 AO basis set (Overlap normalization):
 Atom C1       Shell     1 S   6     bf    1 -     1          1.886255405178         -1.687705074033         -3.196955353591
      0.3047524880D+04  0.1834737132D-02
      0.4573695180D+03  0.1403732281D-01
      0.1039486850D+03  0.6884262226D-01
      0.2921015530D+02  0.2321844432D+00
      0.9286662960D+01  0.4679413484D+00
      0.3163926960D+01  0.3623119853D+00
 Atom C1       Shell     2 SP   3    bf    2 -     5          1.886255405178         -1.687705074033         -3.196955353591
      0.7868272350D+01 -0.1193324198D+00  0.6899906659D-01
      0.1881288540D+01 -0.1608541517D+00  0.3164239610D+00
      0.5442492580D+00  0.1143456438D+01  0.7443082909D+00
 Atom C1       Shell     3 SP   1    bf    6 -     9          1.886255405178         -1.687705074033         -3.196955353591
      0.1687144782D+00  0.1000000000D+01  0.1000000000D+01
 Atom C1       Shell     4 D   1     bf   10 -    15          1.886255405178         -1.687705074033         -3.196955353591
      0.8000000000D+00  0.1000000000D+01
 Atom H2       Shell     5 S   3     bf   16 -    16          2.179185084468          0.141521457811         -4.126827430491
      0.1873113696D+02  0.3349460434D-01
      0.2825394365D+01  0.2347269535D+00
      0.6401216923D+00  0.8137573261D+00
 Atom H2       Shell     6 S   1     bf   17 -    17          2.179185084468          0.141521457811         -4.126827430491
      0.1612777588D+00  0.1000000000D+01
 Atom C3       Shell     7 S   6     bf   18 -    18          4.178004143245         -3.389645455025         -3.716004767551
      0.3047524880D+04  0.1834737132D-02
      0.4573695180D+03  0.1403732281D-01
      0.1039486850D+03  0.6884262226D-01
      0.2921015530D+02  0.2321844432D+00
      0.9286662960D+01  0.4679413484D+00
      0.3163926960D+01  0.3623119853D+00
 Atom C3       Shell     8 SP   3    bf   19 -    22          4.178004143245         -3.389645455025         -3.716004767551
      0.7868272350D+01 -0.1193324198D+00  0.6899906659D-01
      0.1881288540D+01 -0.1608541517D+00  0.3164239610D+00
      0.5442492580D+00  0.1143456438D+01  0.7443082909D+00
 Atom C3       Shell     9 SP   1    bf   23 -    26          4.178004143245         -3.389645455025         -3.716004767551
      0.1687144782D+00  0.1000000000D+01  0.1000000000D+01
 Atom C3       Shell    10 D   1     bf   27 -    32          4.178004143245         -3.389645455025         -3.716004767551
      0.8000000000D+00  0.1000000000D+01
 Atom H4       Shell    11 S   3     bf   33 -    33          4.444175224905         -3.603458480536         -5.756110846338
      0.1873113696D+02  0.3349460434D-01
      0.2825394365D+01  0.2347269535D+00
      0.6401216923D+00  0.8137573261D+00
 Atom H4       Shell    12 S   1     bf   34 -    34          4.444175224905         -3.603458480536         -5.756110846338
      0.1612777588D+00  0.1000000000D+01
 Atom H5       Shell    13 S   3     bf   35 -    35          3.735013390441         -5.282786096266         -2.969037090971
      0.1873113696D+02  0.3349460434D-01
      0.2825394365D+01  0.2347269535D+00
      0.6401216923D+00  0.8137573261D+00
 Atom H5       Shell    14 S   1     bf   36 -    36          3.735013390441         -5.282786096266         -2.969037090971
      0.1612777588D+00  0.1000000000D+01
 Atom C6       Shell    15 S   6     bf   37 -    37          6.584230279463         -2.422766153168         -2.494950308835
      0.3047524880D+04  0.1834737132D-02
      0.4573695180D+03  0.1403732281D-01
      0.1039486850D+03  0.6884262226D-01
      0.2921015530D+02  0.2321844432D+00
      0.9286662960D+01  0.4679413484D+00
      0.3163926960D+01  0.3623119853D+00
 Atom C6       Shell    16 SP   3    bf   38 -    41          6.584230279463         -2.422766153168         -2.494950308835
      0.7868272350D+01 -0.1193324198D+00  0.6899906659D-01
      0.1881288540D+01 -0.1608541517D+00  0.3164239610D+00
      0.5442492580D+00  0.1143456438D+01  0.7443082909D+00
 Atom C6       Shell    17 SP   1    bf   42 -    45          6.584230279463         -2.422766153168         -2.494950308835
      0.1687144782D+00  0.1000000000D+01  0.1000000000D+01
 Atom C6       Shell    18 D   1     bf   46 -    51          6.584230279463         -2.422766153168         -2.494950308835
      0.8000000000D+00  0.1000000000D+01
 Atom C7       Shell    19 S   6     bf   52 -    52          6.468527431710         -1.734489647515          0.315928836855
      0.3047524880D+04  0.1834737132D-02
      0.4573695180D+03  0.1403732281D-01
      0.1039486850D+03  0.6884262226D-01
      0.2921015530D+02  0.2321844432D+00
      0.9286662960D+01  0.4679413484D+00
      0.3163926960D+01  0.3623119853D+00
 Atom C7       Shell    20 SP   3    bf   53 -    56          6.468527431710         -1.734489647515          0.315928836855
      0.7868272350D+01 -0.1193324198D+00  0.6899906659D-01
      0.1881288540D+01 -0.1608541517D+00  0.3164239610D+00
      0.5442492580D+00  0.1143456438D+01  0.7443082909D+00
 Atom C7       Shell    21 SP   1    bf   57 -    60          6.468527431710         -1.734489647515          0.315928836855
      0.1687144782D+00  0.1000000000D+01  0.1000000000D+01
 Atom C7       Shell    22 D   1     bf   61 -    66          6.468527431710         -1.734489647515          0.315928836855
      0.8000000000D+00  0.1000000000D+01
 Atom C8       Shell    23 S   6     bf   67 -    67          4.020634289351         -0.160230540212          0.792903952001
      0.3047524880D+04  0.1834737132D-02
      0.4573695180D+03  0.1403732281D-01
      0.1039486850D+03  0.6884262226D-01
      0.2921015530D+02  0.2321844432D+00
      0.9286662960D+01  0.4679413484D+00
      0.3163926960D+01  0.3623119853D+00
 Atom C8       Shell    24 SP   3    bf   68 -    71          4.020634289351         -0.160230540212          0.792903952001
      0.7868272350D+01 -0.1193324198D+00  0.6899906659D-01
      0.1881288540D+01 -0.1608541517D+00  0.3164239610D+00
      0.5442492580D+00  0.1143456438D+01  0.7443082909D+00
 Atom C8       Shell    25 SP   1    bf   72 -    75          4.020634289351         -0.160230540212          0.792903952001
      0.1687144782D+00  0.1000000000D+01  0.1000000000D+01
 Atom C8       Shell    26 D   1     bf   76 -    81          4.020634289351         -0.160230540212          0.792903952001
      0.8000000000D+00  0.1000000000D+01
 Atom H9       Shell    27 S   3     bf   82 -    82          4.303212313447          1.738127672677          0.000000000000
      0.1873113696D+02  0.3349460434D-01
      0.2825394365D+01  0.2347269535D+00
      0.6401216923D+00  0.8137573261D+00
 Atom H9       Shell    28 S   1     bf   83 -    83          4.303212313447          1.738127672677          0.000000000000
      0.1612777588D+00  0.1000000000D+01
 Atom H10      Shell    29 S   3     bf   84 -    84          3.751411507857          0.090179658582          2.829091872624
      0.1873113696D+02  0.3349460434D-01
      0.2825394365D+01  0.2347269535D+00
      0.6401216923D+00  0.8137573261D+00
 Atom H10      Shell    30 S   1     bf   85 -    85          3.751411507857          0.090179658582          2.829091872624
      0.1612777588D+00  0.1000000000D+01
 Atom C11      Shell    31 S   6     bf   86 -    86          1.596059252534         -1.271161983322         -0.354621527446
      0.3047524880D+04  0.1834737132D-02
      0.4573695180D+03  0.1403732281D-01
      0.1039486850D+03  0.6884262226D-01
      0.2921015530D+02  0.2321844432D+00
      0.9286662960D+01  0.4679413484D+00
      0.3163926960D+01  0.3623119853D+00
 Atom C11      Shell    32 SP   3    bf   87 -    90          1.596059252534         -1.271161983322         -0.354621527446
      0.7868272350D+01 -0.1193324198D+00  0.6899906659D-01
      0.1881288540D+01 -0.1608541517D+00  0.3164239610D+00
      0.5442492580D+00  0.1143456438D+01  0.7443082909D+00
 Atom C11      Shell    33 SP   1    bf   91 -    94          1.596059252534         -1.271161983322         -0.354621527446
      0.1687144782D+00  0.1000000000D+01  0.1000000000D+01
 Atom C11      Shell    34 D   1     bf   95 -   100          1.596059252534         -1.271161983322         -0.354621527446
      0.8000000000D+00  0.1000000000D+01
 Atom H12      Shell    35 S   3     bf  101 -   101          1.126409736331         -3.082921663136          0.550593535153
      0.1873113696D+02  0.3349460434D-01
      0.2825394365D+01  0.2347269535D+00
      0.6401216923D+00  0.8137573261D+00
 Atom H12      Shell    36 S   1     bf  102 -   102          1.126409736331         -3.082921663136          0.550593535153
      0.1612777588D+00  0.1000000000D+01
 Atom H13      Shell    37 S   3     bf  103 -   103          0.000000000000          0.000000000000          0.000000000000
      0.1873113696D+02  0.3349460434D-01
      0.2825394365D+01  0.2347269535D+00
      0.6401216923D+00  0.8137573261D+00
 Atom H13      Shell    38 S   1     bf  104 -   104          0.000000000000          0.000000000000          0.000000000000
      0.1612777588D+00  0.1000000000D+01
 Atom C14      Shell    39 S   6     bf  105 -   105          8.709054387055         -2.215747600174         -3.856106360735
      0.3047524880D+04  0.1834737132D-02
      0.4573695180D+03  0.1403732281D-01
      0.1039486850D+03  0.6884262226D-01
      0.2921015530D+02  0.2321844432D+00
      0.9286662960D+01  0.4679413484D+00
      0.3163926960D+01  0.3623119853D+00
 Atom C14      Shell    40 SP   3    bf  106 -   109          8.709054387055         -2.215747600174         -3.856106360735
      0.7868272350D+01 -0.1193324198D+00  0.6899906659D-01
      0.1881288540D+01 -0.1608541517D+00  0.3164239610D+00
      0.5442492580D+00  0.1143456438D+01  0.7443082909D+00
 Atom C14      Shell    41 SP   1    bf  110 -   113          8.709054387055         -2.215747600174         -3.856106360735
      0.1687144782D+00  0.1000000000D+01  0.1000000000D+01
 Atom C14      Shell    42 D   1     bf  114 -   119          8.709054387055         -2.215747600174         -3.856106360735
      0.8000000000D+00  0.1000000000D+01
 Atom H15      Shell    43 S   3     bf  120 -   120          8.678659521707         -2.680173176352         -5.863696866817
      0.1873113696D+02  0.3349460434D-01
      0.2825394365D+01  0.2347269535D+00
      0.6401216923D+00  0.8137573261D+00
 Atom H15      Shell    44 S   1     bf  121 -   121          8.678659521707         -2.680173176352         -5.863696866817
      0.1612777588D+00  0.1000000000D+01
 Atom C16      Shell    45 S   6     bf  122 -   122         11.235062401575         -1.404150156013         -2.856270329607
      0.3047524880D+04  0.1834737132D-02
      0.4573695180D+03  0.1403732281D-01
      0.1039486850D+03  0.6884262226D-01
      0.2921015530D+02  0.2321844432D+00
      0.9286662960D+01  0.4679413484D+00
      0.3163926960D+01  0.3623119853D+00
 Atom C16      Shell    46 SP   3    bf  123 -   126         11.235062401575         -1.404150156013         -2.856270329607
      0.7868272350D+01 -0.1193324198D+00  0.6899906659D-01
      0.1881288540D+01 -0.1608541517D+00  0.3164239610D+00
      0.5442492580D+00  0.1143456438D+01  0.7443082909D+00
 Atom C16      Shell    47 SP   1    bf  127 -   130         11.235062401575         -1.404150156013         -2.856270329607
      0.1687144782D+00  0.1000000000D+01  0.1000000000D+01
 Atom C16      Shell    48 D   1     bf  131 -   136         11.235062401575         -1.404150156013         -2.856270329607
      0.8000000000D+00  0.1000000000D+01
 Atom H17      Shell    49 S   3     bf  137 -   137         11.786412620866          0.394490137919         -3.750340486674
      0.1873113696D+02  0.3349460434D-01
      0.2825394365D+01  0.2347269535D+00
      0.6401216923D+00  0.8137573261D+00
 Atom H17      Shell    50 S   1     bf  138 -   138         11.786412620866          0.394490137919         -3.750340486674
      0.1612777588D+00  0.1000000000D+01
 Atom C18      Shell    51 S   6     bf  139 -   139         11.357309918947         -1.141628286694          0.032368117375
      0.3047524880D+04  0.1834737132D-02
      0.4573695180D+03  0.1403732281D-01
      0.1039486850D+03  0.6884262226D-01
      0.2921015530D+02  0.2321844432D+00
      0.9286662960D+01  0.4679413484D+00
      0.3163926960D+01  0.3623119853D+00
 Atom C18      Shell    52 SP   3    bf  140 -   143         11.357309918947         -1.141628286694          0.032368117375
      0.7868272350D+01 -0.1193324198D+00  0.6899906659D-01
      0.1881288540D+01 -0.1608541517D+00  0.3164239610D+00
      0.5442492580D+00  0.1143456438D+01  0.7443082909D+00
 Atom C18      Shell    53 SP   1    bf  144 -   147         11.357309918947         -1.141628286694          0.032368117375
      0.1687144782D+00  0.1000000000D+01  0.1000000000D+01
 Atom C18      Shell    54 D   1     bf  148 -   153         11.357309918947         -1.141628286694          0.032368117375
      0.8000000000D+00  0.1000000000D+01
 Atom H19      Shell    55 S   3     bf  154 -   154         11.655359716708         -3.044680239145          0.790555929487
      0.1873113696D+02  0.3349460434D-01
      0.2825394365D+01  0.2347269535D+00
      0.6401216923D+00  0.8137573261D+00
 Atom H19      Shell    56 S   1     bf  155 -   155         11.655359716708         -3.044680239145          0.790555929487
      0.1612777588D+00  0.1000000000D+01
 Atom C20      Shell    57 S   6     bf  156 -   156          8.814126202502         -0.071253314368          1.038227367093
      0.3047524880D+04  0.1834737132D-02
      0.4573695180D+03  0.1403732281D-01
      0.1039486850D+03  0.6884262226D-01
      0.2921015530D+02  0.2321844432D+00
      0.9286662960D+01  0.4679413484D+00
      0.3163926960D+01  0.3623119853D+00
 Atom C20      Shell    58 SP   3    bf  157 -   160          8.814126202502         -0.071253314368          1.038227367093
      0.7868272350D+01 -0.1193324198D+00  0.6899906659D-01
      0.1881288540D+01 -0.1608541517D+00  0.3164239610D+00
      0.5442492580D+00  0.1143456438D+01  0.7443082909D+00
 Atom C20      Shell    59 SP   1    bf  161 -   164          8.814126202502         -0.071253314368          1.038227367093
      0.1687144782D+00  0.1000000000D+01  0.1000000000D+01
 Atom C20      Shell    60 D   1     bf  165 -   170          8.814126202502         -0.071253314368          1.038227367093
      0.8000000000D+00  0.1000000000D+01
 Atom H21      Shell    61 S   3     bf  171 -   171          8.529717959749          1.744974301634          0.056863522298
      0.1873113696D+02  0.3349460434D-01
      0.2825394365D+01  0.2347269535D+00
      0.6401216923D+00  0.8137573261D+00
 Atom H21      Shell    62 S   1     bf  172 -   172          8.529717959749          1.744974301634          0.056863522298
      0.1612777588D+00  0.1000000000D+01
 Atom C22      Shell    63 S   6     bf  173 -   173          8.967805780307          0.534643585187          3.891364152827
      0.3047524880D+04  0.1834737132D-02
      0.4573695180D+03  0.1403732281D-01
      0.1039486850D+03  0.6884262226D-01
      0.2921015530D+02  0.2321844432D+00
      0.9286662960D+01  0.4679413484D+00
      0.3163926960D+01  0.3623119853D+00
 Atom C22      Shell    64 SP   3    bf  174 -   177          8.967805780307          0.534643585187          3.891364152827
      0.7868272350D+01 -0.1193324198D+00  0.6899906659D-01
      0.1881288540D+01 -0.1608541517D+00  0.3164239610D+00
      0.5442492580D+00  0.1143456438D+01  0.7443082909D+00
 Atom C22      Shell    65 SP   1    bf  178 -   181          8.967805780307          0.534643585187          3.891364152827
      0.1687144782D+00  0.1000000000D+01  0.1000000000D+01
 Atom C22      Shell    66 D   1     bf  182 -   187          8.967805780307          0.534643585187          3.891364152827
      0.8000000000D+00  0.1000000000D+01
 Atom H23      Shell    67 S   3     bf  188 -   188          9.035528802800         -1.226342214793          4.977508322814
      0.1873113696D+02  0.3349460434D-01
      0.2825394365D+01  0.2347269535D+00
      0.6401216923D+00  0.8137573261D+00
 Atom H23      Shell    68 S   1     bf  189 -   189          9.035528802800         -1.226342214793          4.977508322814
      0.1612777588D+00  0.1000000000D+01
 Atom H24      Shell    69 S   3     bf  190 -   190          7.241132739277          1.508056445073          4.488819324493
      0.1873113696D+02  0.3349460434D-01
      0.2825394365D+01  0.2347269535D+00
      0.6401216923D+00  0.8137573261D+00
 Atom H24      Shell    70 S   1     bf  191 -   191          7.241132739277          1.508056445073          4.488819324493
      0.1612777588D+00  0.1000000000D+01
 Atom C25      Shell    71 S   6     bf  192 -   192         11.251855830800          2.180275475344          4.637013518663
      0.3047524880D+04  0.1834737132D-02
      0.4573695180D+03  0.1403732281D-01
      0.1039486850D+03  0.6884262226D-01
      0.2921015530D+02  0.2321844432D+00
      0.9286662960D+01  0.4679413484D+00
      0.3163926960D+01  0.3623119853D+00
 Atom C25      Shell    72 SP   3    bf  193 -   196         11.251855830800          2.180275475344          4.637013518663
      0.7868272350D+01 -0.1193324198D+00  0.6899906659D-01
      0.1881288540D+01 -0.1608541517D+00  0.3164239610D+00
      0.5442492580D+00  0.1143456438D+01  0.7443082909D+00
 Atom C25      Shell    73 SP   1    bf  197 -   200         11.251855830800          2.180275475344          4.637013518663
      0.1687144782D+00  0.1000000000D+01  0.1000000000D+01
 Atom C25      Shell    74 D   1     bf  201 -   206         11.251855830800          2.180275475344          4.637013518663
      0.8000000000D+00  0.1000000000D+01
 Atom H26      Shell    75 S   3     bf  207 -   207         11.055319191822          4.062424807992          3.778159182870
      0.1873113696D+02  0.3349460434D-01
      0.2825394365D+01  0.2347269535D+00
      0.6401216923D+00  0.8137573261D+00
 Atom H26      Shell    76 S   1     bf  208 -   208         11.055319191822          4.062424807992          3.778159182870
      0.1612777588D+00  0.1000000000D+01
 Atom H27      Shell    77 S   3     bf  209 -   209         11.210822412037          2.463892395279          6.685123570280
      0.1873113696D+02  0.3349460434D-01
      0.2825394365D+01  0.2347269535D+00
      0.6401216923D+00  0.8137573261D+00
 Atom H27      Shell    78 S   1     bf  210 -   210         11.210822412037          2.463892395279          6.685123570280
      0.1612777588D+00  0.1000000000D+01
 Atom C28      Shell    79 S   6     bf  211 -   211         13.770748194951          1.011765966691          3.754683814320
      0.3047524880D+04  0.1834737132D-02
      0.4573695180D+03  0.1403732281D-01
      0.1039486850D+03  0.6884262226D-01
      0.2921015530D+02  0.2321844432D+00
      0.9286662960D+01  0.4679413484D+00
      0.3163926960D+01  0.3623119853D+00
 Atom C28      Shell    80 SP   3    bf  212 -   215         13.770748194951          1.011765966691          3.754683814320
      0.7868272350D+01 -0.1193324198D+00  0.6899906659D-01
      0.1881288540D+01 -0.1608541517D+00  0.3164239610D+00
      0.5442492580D+00  0.1143456438D+01  0.7443082909D+00
 Atom C28      Shell    81 SP   1    bf  216 -   219         13.770748194951          1.011765966691          3.754683814320
      0.1687144782D+00  0.1000000000D+01  0.1000000000D+01
 Atom C28      Shell    82 D   1     bf  220 -   225         13.770748194951          1.011765966691          3.754683814320
      0.8000000000D+00  0.1000000000D+01
 Atom C29      Shell    83 S   6     bf  226 -   226         13.537168879755          0.600982912411          0.851124921272
      0.3047524880D+04  0.1834737132D-02
      0.4573695180D+03  0.1403732281D-01
      0.1039486850D+03  0.6884262226D-01
      0.2921015530D+02  0.2321844432D+00
      0.9286662960D+01  0.4679413484D+00
      0.3163926960D+01  0.3623119853D+00
 Atom C29      Shell    84 SP   3    bf  227 -   230         13.537168879755          0.600982912411          0.851124921272
      0.7868272350D+01 -0.1193324198D+00  0.6899906659D-01
      0.1881288540D+01 -0.1608541517D+00  0.3164239610D+00
      0.5442492580D+00  0.1143456438D+01  0.7443082909D+00
 Atom C29      Shell    85 SP   1    bf  231 -   234         13.537168879755          0.600982912411          0.851124921272
      0.1687144782D+00  0.1000000000D+01  0.1000000000D+01
 Atom C29      Shell    86 D   1     bf  235 -   240         13.537168879755          0.600982912411          0.851124921272
      0.8000000000D+00  0.1000000000D+01
 Atom H30      Shell    87 S   3     bf  241 -   241         13.076745233299          2.483080712227          0.075219755035
      0.1873113696D+02  0.3349460434D-01
      0.2825394365D+01  0.2347269535D+00
      0.6401216923D+00  0.8137573261D+00
 Atom H30      Shell    88 S   1     bf  242 -   242         13.076745233299          2.483080712227          0.075219755035
      0.1612777588D+00  0.1000000000D+01
 Atom C31      Shell    89 S   6     bf  243 -   243         16.248259657497          0.000000000000          0.000000000000
      0.3047524880D+04  0.1834737132D-02
      0.4573695180D+03  0.1403732281D-01
      0.1039486850D+03  0.6884262226D-01
      0.2921015530D+02  0.2321844432D+00
      0.9286662960D+01  0.4679413484D+00
      0.3163926960D+01  0.3623119853D+00
 Atom C31      Shell    90 SP   3    bf  244 -   247         16.248259657497          0.000000000000          0.000000000000
      0.7868272350D+01 -0.1193324198D+00  0.6899906659D-01
      0.1881288540D+01 -0.1608541517D+00  0.3164239610D+00
      0.5442492580D+00  0.1143456438D+01  0.7443082909D+00
 Atom C31      Shell    91 SP   1    bf  248 -   251         16.248259657497          0.000000000000          0.000000000000
      0.1687144782D+00  0.1000000000D+01  0.1000000000D+01
 Atom C31      Shell    92 D   1     bf  252 -   257         16.248259657497          0.000000000000          0.000000000000
      0.8000000000D+00  0.1000000000D+01
 Atom H32      Shell    93 S   3     bf  258 -   258         16.555041369492          0.394832726369         -2.003988990428
      0.1873113696D+02  0.3349460434D-01
      0.2825394365D+01  0.2347269535D+00
      0.6401216923D+00  0.8137573261D+00
 Atom H32      Shell    94 S   1     bf  259 -   259         16.555041369492          0.394832726369         -2.003988990428
      0.1612777588D+00  0.1000000000D+01
 Atom H33      Shell    95 S   3     bf  260 -   260         16.667081342185         -2.009064700335          0.261217750417
      0.1873113696D+02  0.3349460434D-01
      0.2825394365D+01  0.2347269535D+00
      0.6401216923D+00  0.8137573261D+00
 Atom H33      Shell    96 S   1     bf  261 -   261         16.667081342185         -2.009064700335          0.261217750417
      0.1612777588D+00  0.1000000000D+01
 Atom C34      Shell    97 S   6     bf  262 -   262         17.907076639315          1.679122618239          1.741573588280
      0.3047524880D+04  0.1834737132D-02
      0.4573695180D+03  0.1403732281D-01
      0.1039486850D+03  0.6884262226D-01
      0.2921015530D+02  0.2321844432D+00
      0.9286662960D+01  0.4679413484D+00
      0.3163926960D+01  0.3623119853D+00
 Atom C34      Shell    98 SP   3    bf  263 -   266         17.907076639315          1.679122618239          1.741573588280
      0.7868272350D+01 -0.1193324198D+00  0.6899906659D-01
      0.1881288540D+01 -0.1608541517D+00  0.3164239610D+00
      0.5442492580D+00  0.1143456438D+01  0.7443082909D+00
 Atom C34      Shell    99 SP   1    bf  267 -   270         17.907076639315          1.679122618239          1.741573588280
      0.1687144782D+00  0.1000000000D+01  0.1000000000D+01
 Atom C34      Shell   100 D   1     bf  271 -   276         17.907076639315          1.679122618239          1.741573588280
      0.8000000000D+00  0.1000000000D+01
 Atom H35      Shell   101 S   3     bf  277 -   277         19.433763384106          0.569097695652          2.597308024021
      0.1873113696D+02  0.3349460434D-01
      0.2825394365D+01  0.2347269535D+00
      0.6401216923D+00  0.8137573261D+00
 Atom H35      Shell   102 S   1     bf  278 -   278         19.433763384106          0.569097695652          2.597308024021
      0.1612777588D+00  0.1000000000D+01
 Atom H36      Shell   103 S   3     bf  279 -   279         18.821089699872          3.192720477327          0.669377430188
      0.1873113696D+02  0.3349460434D-01
      0.2825394365D+01  0.2347269535D+00
      0.6401216923D+00  0.8137573261D+00
 Atom H36      Shell   104 S   1     bf  280 -   280         18.821089699872          3.192720477327          0.669377430188
      0.1612777588D+00  0.1000000000D+01
 Atom C37      Shell   105 S   6     bf  281 -   281         16.140181514540          2.791902534761          3.840130049090
      0.3047524880D+04  0.1834737132D-02
      0.4573695180D+03  0.1403732281D-01
      0.1039486850D+03  0.6884262226D-01
      0.2921015530D+02  0.2321844432D+00
      0.9286662960D+01  0.4679413484D+00
      0.3163926960D+01  0.3623119853D+00
 Atom C37      Shell   106 SP   3    bf  282 -   285         16.140181514540          2.791902534761          3.840130049090
      0.7868272350D+01 -0.1193324198D+00  0.6899906659D-01
      0.1881288540D+01 -0.1608541517D+00  0.3164239610D+00
      0.5442492580D+00  0.1143456438D+01  0.7443082909D+00
 Atom C37      Shell   107 SP   1    bf  286 -   289         16.140181514540          2.791902534761          3.840130049090
      0.1687144782D+00  0.1000000000D+01  0.1000000000D+01
 Atom C37      Shell   108 D   1     bf  290 -   295         16.140181514540          2.791902534761          3.840130049090
      0.8000000000D+00  0.1000000000D+01
 Atom H38      Shell   109 S   3     bf  296 -   296         15.478182406654          4.659332828354          3.199359860019
      0.1873113696D+02  0.3349460434D-01
      0.2825394365D+01  0.2347269535D+00
      0.6401216923D+00  0.8137573261D+00
 Atom H38      Shell   110 S   1     bf  297 -   297         15.478182406654          4.659332828354          3.199359860019
      0.1612777588D+00  0.1000000000D+01
 Atom C39      Shell   111 S   6     bf  298 -   298         14.318048561064         -1.475331112767          5.187076758868
      0.3047524880D+04  0.1834737132D-02
      0.4573695180D+03  0.1403732281D-01
      0.1039486850D+03  0.6884262226D-01
[...]
 **** Fit       0.001043
 **** Fit       0.000874
 **** Fit      -0.000890
 **** Fit      -0.000915
 **** Fit      -0.001002
 **** Fit      -0.001210
 **** Fit      -0.001615
 **** Fit      -0.002279
 **** Fit      -0.003164
 **** Fit      -0.004056
 **** Fit      -0.004592
 **** Fit      -0.004432
 **** Fit      -0.003458
 **** Fit      -0.001913
 **** Fit      -0.000325
 **** Fit       0.000823
 **** Fit       0.001388
 **** Fit       0.001515
 **** Fit       0.001411
 **** Fit       0.001221
 **** Fit       0.001017
 **** Fit       0.000827
 **** Fit      -0.001148
 **** Fit      -0.001256
 **** Fit      -0.001439
 **** Fit      -0.001739
 **** Fit      -0.002197
 **** Fit      -0.002828
 **** Fit      -0.003562
 **** Fit      -0.004213
 **** Fit      -0.004511
 **** Fit      -0.004204
 **** Fit      -0.003210
 **** Fit      -0.001742
 **** Fit      -0.000263
 **** Fit       0.000801
 **** Fit       0.001319
 **** Fit       0.001423
 **** Fit       0.001310
 **** Fit       0.001118
 **** Fit       0.000917
 **** Fit       0.000735
 **** Fit      -0.001525
 **** Fit      -0.001769
 **** Fit      -0.002111
 **** Fit      -0.002568
 **** Fit      -0.003120
 **** Fit      -0.003689
 **** Fit      -0.004134
 **** Fit      -0.004266
 **** Fit      -0.003920
 **** Fit      -0.003046
 **** Fit      -0.001805
 **** Fit      -0.000545
 **** Fit       0.000405
 **** Fit       0.000920
 **** Fit       0.001081
 **** Fit       0.001036
 **** Fit       0.000901
 **** Fit       0.000746
 **** Fit      -0.001696
 **** Fit      -0.001960
 **** Fit      -0.002299
 **** Fit      -0.002711
 **** Fit      -0.003162
 **** Fit      -0.003585
 **** Fit      -0.003878
 **** Fit      -0.003918
 **** Fit      -0.003605
 **** Fit      -0.002912
 **** Fit      -0.001948
 **** Fit      -0.000943
 **** Fit      -0.000130
 **** Fit       0.000381
 **** Fit       0.000616
 **** Fit       0.000665
 **** Fit       0.000617
 **** Fit       0.000529
 **** Fit      -0.002022
 **** Fit      -0.002328
 **** Fit      -0.002673
 **** Fit      -0.003026
 **** Fit      -0.003333
 **** Fit      -0.003524
 **** Fit      -0.003522
 **** Fit      -0.003268
 **** Fit      -0.002749
 **** Fit      -0.002035
 **** Fit      -0.001267
 **** Fit      -0.000599
 **** Fit      -0.000121
 **** Fit       0.000159
 **** Fit       0.000288
 **** Fit       0.000319
 **** Fit      -0.002520
 **** Fit      -0.002788
 **** Fit      -0.003008
 **** Fit      -0.003132
 **** Fit      -0.003114
 **** Fit      -0.002918
 **** Fit      -0.002539
 **** Fit      -0.002020
 **** Fit      -0.001448
 **** Fit      -0.000918
 **** Fit      -0.000498
 **** Fit      -0.000209
 **** Fit      -0.000036
 **** Fit       0.000053
 **** Fit      -0.002719
 **** Fit      -0.002571
 **** Fit      -0.002296
 **** Fit      -0.001921
 **** Fit      -0.001498
 **** Fit      -0.001087
 **** Fit      -0.000736
 **** Fit      -0.000467
 **** Fit      -0.000280
 **** Fit      -0.002042
 **** Fit      -0.001770
 **** Fit      -0.001459
 **** Fit      -0.001144
 **** Fit      -0.000860
 **** Fit      -0.001273
 **** Fit      -0.001522
 **** Fit      -0.001754
 **** Fit      -0.000824
 **** Fit      -0.001040
 **** Fit      -0.001310
 **** Fit      -0.001604
 **** Fit      -0.001876
 **** Fit      -0.002073
 **** Fit      -0.002159
 **** Fit      -0.000814
 **** Fit      -0.001065
 **** Fit      -0.001377
 **** Fit      -0.001713
 **** Fit      -0.002015
 **** Fit      -0.002222
 **** Fit      -0.002287
 **** Fit      -0.002202
 **** Fit      -0.001991
 **** Fit      -0.001708
 **** Fit      -0.001407
 **** Fit      -0.001131
 **** Fit      -0.000631
 **** Fit      -0.000841
 **** Fit      -0.001130
 **** Fit      -0.001480
 **** Fit      -0.001848
 **** Fit      -0.002166
 **** Fit      -0.002362
 **** Fit      -0.002387
 **** Fit      -0.002237
 **** Fit      -0.001949
 **** Fit      -0.001592
 **** Fit      -0.001237
 **** Fit      -0.000933
 **** Fit      -0.000701
 **** Fit      -0.000658
 **** Fit      -0.000907
 **** Fit      -0.001235
 **** Fit      -0.001617
 **** Fit      -0.002001
 **** Fit      -0.002312
 **** Fit      -0.002475
 **** Fit      -0.002442
 **** Fit      -0.002213
 **** Fit      -0.001841
 **** Fit      -0.001413
 **** Fit      -0.001010
 **** Fit      -0.000688
 **** Fit      -0.000462
 **** Fit      -0.000322
 **** Fit      -0.000710
 **** Fit      -0.001002
 **** Fit      -0.001369
 **** Fit      -0.001774
 **** Fit      -0.002156
 **** Fit      -0.002438
 **** Fit      -0.002547
 **** Fit      -0.002440
 **** Fit      -0.002129
 **** Fit      -0.001680
 **** Fit      -0.001191
 **** Fit      -0.000754
 **** Fit      -0.000425
 **** Fit      -0.000213
 **** Fit      -0.000101
 **** Fit      -0.000771
 **** Fit      -0.001111
 **** Fit      -0.001517
 **** Fit      -0.001938
 **** Fit      -0.002303
 **** Fit      -0.002537
 **** Fit      -0.002575
 **** Fit      -0.002388
 **** Fit      -0.002000
 **** Fit      -0.001489
 **** Fit      -0.000959
 **** Fit      -0.000505
 **** Fit      -0.000179
 **** Fit       0.000014
 **** Fit       0.000100
 **** Fit      -0.000358
 **** Fit      -0.000538
 **** Fit      -0.000831
 **** Fit      -0.001223
 **** Fit      -0.001672
 **** Fit      -0.002106
 **** Fit      -0.002446
 **** Fit      -0.002618
 **** Fit      -0.002574
 **** Fit      -0.002304
 **** Fit      -0.001850
 **** Fit      -0.001295
 **** Fit      -0.000746
 **** Fit      -0.000291
 **** Fit       0.000024
 **** Fit       0.000198
 **** Fit       0.000263
 **** Fit      -0.000257
 **** Fit      -0.000343
 **** Fit      -0.000547
 **** Fit      -0.000886
 **** Fit      -0.001337
 **** Fit      -0.001836
 **** Fit      -0.002291
 **** Fit      -0.002604
 **** Fit      -0.002706
 **** Fit      -0.002568
 **** Fit      -0.002210
 **** Fit      -0.001694
 **** Fit      -0.001110
 **** Fit      -0.000559
 **** Fit      -0.000118
 **** Fit       0.000178
 **** Fit       0.000334
 **** Fit       0.000382
 **** Fit      -0.000260
 **** Fit      -0.000253
 **** Fit      -0.000341
 **** Fit      -0.000567
 **** Fit      -0.000950
 **** Fit      -0.001464
 **** Fit      -0.002025
 **** Fit      -0.002508
 **** Fit      -0.002795
 **** Fit      -0.002817
 **** Fit      -0.002572
 **** Fit      -0.002113
 **** Fit      -0.001530
 **** Fit      -0.000922
 **** Fit      -0.000382
 **** Fit       0.000032
 **** Fit       0.000299
 **** Fit       0.000432
 **** Fit      -0.000302
 **** Fit      -0.000293
 **** Fit      -0.000384
 **** Fit      -0.000628
 **** Fit      -0.001053
 **** Fit      -0.001629
 **** Fit      -0.002252
 **** Fit      -0.002762
 **** Fit      -0.003016
 **** Fit      -0.002945
 **** Fit      -0.002572
 **** Fit      -0.001994
 **** Fit      -0.001335
 **** Fit      -0.000708
 **** Fit      -0.000190
 **** Fit       0.000182
 **** Fit       0.000406
 **** Fit      -0.000456
 **** Fit      -0.000401
 **** Fit      -0.000402
 **** Fit      -0.000507
 **** Fit      -0.000772
 **** Fit      -0.001232
 **** Fit      -0.001856
 **** Fit      -0.002520
 **** Fit      -0.003035
 **** Fit      -0.003234
 **** Fit      -0.003048
 **** Fit      -0.002530
 **** Fit      -0.001821
 **** Fit      -0.001085
 **** Fit      -0.000447
 **** Fit       0.000032
 **** Fit       0.000345
 **** Fit       0.000513
 **** Fit      -0.000592
 **** Fit      -0.000565
 **** Fit      -0.000594
 **** Fit      -0.000729
 **** Fit      -0.001023
 **** Fit      -0.001509
 **** Fit      -0.002150
 **** Fit      -0.002811
 **** Fit      -0.003286
 **** Fit      -0.003397
 **** Fit      -0.003078
 **** Fit      -0.002411
 **** Fit      -0.001579
 **** Fit      -0.000784
 **** Fit      -0.000155
 **** Fit       0.000269
 **** Fit       0.000510
 **** Fit       0.000613
 **** Fit      -0.000766
 **** Fit      -0.000782
 **** Fit      -0.000857
 **** Fit      -0.001036
 **** Fit      -0.001362
 **** Fit      -0.001858
 **** Fit      -0.002476
 **** Fit      -0.003077
 **** Fit      -0.003463
 **** Fit      -0.003460
 **** Fit      -0.003014
 **** Fit      -0.002225
 **** Fit      -0.001309
 **** Fit      -0.000487
 **** Fit       0.000112
 **** Fit       0.000471
 **** Fit       0.000640
 **** Fit       0.000682
 **** Fit       0.000650
 **** Fit      -0.001024
 **** Fit      -0.001151
 **** Fit      -0.001375
 **** Fit      -0.001726
 **** Fit      -0.002207
 **** Fit      -0.002762
 **** Fit      -0.003260
 **** Fit      -0.003527
 **** Fit      -0.003414
 **** Fit      -0.002880
 **** Fit      -0.002033
 **** Fit      -0.001094
 **** Fit      -0.000286
 **** Fit       0.000271
 **** Fit       0.000575
 **** Fit       0.000692
 **** Fit       0.000694
 **** Fit       0.000635
 **** Fit      -0.001252
 **** Fit      -0.001425
 **** Fit      -0.001681
 **** Fit      -0.002036
 **** Fit      -0.002476
 **** Fit      -0.002942
 **** Fit      -0.003320
 **** Fit      -0.003471
 **** Fit      -0.003281
 **** Fit      -0.002723
 **** Fit      -0.001898
 **** Fit      -0.001006
 **** Fit      -0.000249
 **** Fit       0.000266
 **** Fit       0.000541
 **** Fit       0.000638
 **** Fit       0.000630
 **** Fit       0.000567
 **** Fit      -0.001635
 **** Fit      -0.001902
 **** Fit      -0.002237
 **** Fit      -0.002617
 **** Fit      -0.002986
 **** Fit      -0.003254
 **** Fit      -0.003316
 **** Fit      -0.003094
 **** Fit      -0.002572
 **** Fit      -0.001835
 **** Fit      -0.001044
 **** Fit      -0.000365
 **** Fit       0.000111
 **** Fit       0.000378
 **** Fit       0.000486
 **** Fit       0.000495
 **** Fit      -0.002018
 **** Fit      -0.002315
 **** Fit      -0.002628
 **** Fit      -0.002908
 **** Fit      -0.003088
 **** Fit      -0.003095
 **** Fit      -0.002877
 **** Fit      -0.002429
 **** Fit      -0.001814
 **** Fit      -0.001151
 **** Fit      -0.000563
 **** Fit      -0.000129
 **** Fit       0.000139
 **** Fit       0.000271
 **** Fit       0.000313
 **** Fit      -0.002287
 **** Fit      -0.002536
 **** Fit      -0.002743
 **** Fit      -0.002860
 **** Fit      -0.002839
 **** Fit      -0.002646
 **** Fit      -0.002282
 **** Fit      -0.001792
 **** Fit      -0.001256
 **** Fit      -0.000765
 **** Fit      -0.000378
 **** Fit      -0.000114
 **** Fit       0.000041
 **** Fit      -0.002567
 **** Fit      -0.002407
 **** Fit      -0.002121
 **** Fit      -0.001741
 **** Fit      -0.001320
 **** Fit      -0.000920
 **** Fit      -0.000585
 **** Fit      -0.000335
 **** Fit      -0.001947
 **** Fit      -0.001657
 **** Fit      -0.001331
 **** Fit      -0.001010
 **** Fit      -0.000727
 **** Fit      -0.001740
 **** Fit      -0.001810
 **** Fit      -0.001565
 **** Fit      -0.001277
 **** Fit      -0.000995
 **** Fit      -0.001963
 **** Fit      -0.001755
 **** Fit      -0.001462
 **** Fit      -0.001136
 **** Fit      -0.000829
 **** Fit      -0.000576
 **** Fit      -0.001933
 **** Fit      -0.001675
 **** Fit      -0.001339
 **** Fit      -0.000983
 **** Fit      -0.000660
 **** Fit      -0.000405
 **** Fit      -0.001885
 **** Fit      -0.001579
 **** Fit      -0.001208
 **** Fit      -0.000832
 **** Fit      -0.000502
 **** Fit      -0.000251
 **** Fit      -0.000773
 **** Fit      -0.001025
 **** Fit      -0.001336
 **** Fit      -0.001665
 **** Fit      -0.001952
 **** Fit      -0.001475
 **** Fit      -0.001075
 **** Fit      -0.000689
 **** Fit      -0.000362
 **** Fit      -0.000635
 **** Fit      -0.000827
 **** Fit      -0.001108
 **** Fit      -0.001452
 **** Fit      -0.001805
 **** Fit      -0.002097
 **** Fit      -0.002260
 **** Fit      -0.002256
 **** Fit      -0.002080
 **** Fit      -0.001765
 **** Fit      -0.001364
 **** Fit      -0.000588
 **** Fit      -0.000704
 **** Fit      -0.000914
 **** Fit      -0.001221
 **** Fit      -0.001594
 **** Fit      -0.001969
 **** Fit      -0.002259
 **** Fit      -0.002392
 **** Fit      -0.002327
 **** Fit      -0.002076
 **** Fit      -0.001690
 **** Fit      -0.001239
 **** Fit      -0.000795
 **** Fit      -0.000409
 **** Fit      -0.000688
 **** Fit      -0.000818
 **** Fit      -0.001047
 **** Fit      -0.001374
 **** Fit      -0.001767
 **** Fit      -0.002150
 **** Fit      -0.002428
 **** Fit      -0.002517
 **** Fit      -0.002384
 **** Fit      -0.002052
 **** Fit      -0.001593
 **** Fit      -0.001095
 **** Fit      -0.000636
 **** Fit      -0.000262
 **** Fit       0.000008
 **** Fit      -0.000832
 **** Fit      -0.000982
 **** Fit      -0.001228
 **** Fit      -0.001568
 **** Fit      -0.001963
 **** Fit      -0.002334
 **** Fit      -0.002578
 **** Fit      -0.002612
 **** Fit      -0.002405
 **** Fit      -0.001994
 **** Fit      -0.001470
 **** Fit      -0.000936
 **** Fit      -0.000472
 **** Fit      -0.000119
 **** Fit       0.000117
 **** Fit      -0.001011
 **** Fit      -0.001183
 **** Fit      -0.001442
 **** Fit      -0.001781
 **** Fit      -0.002158
 **** Fit      -0.002492
 **** Fit      -0.002684
 **** Fit      -0.002655
 **** Fit      -0.002380
 **** Fit      -0.001907
 **** Fit      -0.001338
 **** Fit      -0.000785
 **** Fit      -0.000329
 **** Fit      -0.000003
 **** Fit       0.000199
 **** Fit      -0.001203
 **** Fit      -0.001394
 **** Fit      -0.001657
 **** Fit      -0.001980
 **** Fit      -0.002320
 **** Fit      -0.002598
 **** Fit      -0.002727
 **** Fit      -0.002638
 **** Fit      -0.002314
 **** Fit      -0.001809
 **** Fit      -0.001226
 **** Fit      -0.000678
 **** Fit      -0.000241
 **** Fit       0.000058
 **** Fit       0.000232
 **** Fit       0.000313
 **** Fit      -0.001580
 **** Fit      -0.001836
 **** Fit      -0.002130
 **** Fit      -0.002418
 **** Fit      -0.002633
 **** Fit      -0.002701
 **** Fit      -0.002567
 **** Fit      -0.002224
 **** Fit      -0.001723
 **** Fit      -0.001160
 **** Fit      -0.000639
 **** Fit      -0.000230
 **** Fit       0.000047
 **** Fit       0.000204
 **** Fit      -0.001953
 **** Fit      -0.002208
 **** Fit      -0.002440
 **** Fit      -0.002595
 **** Fit      -0.002614
 **** Fit      -0.002458
 **** Fit      -0.002125
 **** Fit      -0.001660
 **** Fit      -0.001146
 **** Fit      -0.000670
 **** Fit      -0.000292
 **** Fit      -0.000033
 **** Fit       0.000119
 **** Fit      -0.002391
 **** Fit      -0.002495
 **** Fit      -0.002482
 **** Fit      -0.002324
 **** Fit      -0.002023
 **** Fit      -0.001615
 **** Fit      -0.001166
 **** Fit      -0.000746
 **** Fit      -0.000404
 **** Fit      -0.000159
 **** Fit      -0.000005
 **** Fit      -0.002174
 **** Fit      -0.001915
 **** Fit      -0.001572
 **** Fit      -0.001194
 **** Fit      -0.000833
 **** Fit      -0.000529
 **** Fit      -0.000300
 **** Fit      -0.001519
 **** Fit      -0.001209
 **** Fit      -0.000906
 **** Fit      -0.001247
 **** Fit      -0.001489
 **** Fit      -0.001718
 **** Fit      -0.001137
 **** Fit      -0.001363
 **** Fit      -0.001610
 **** Fit      -0.001837
 **** Fit      -0.001989
 **** Fit      -0.001926
 **** Fit      -0.001704
 **** Fit      -0.001397
 **** Fit      -0.001055
 **** Fit      -0.001265
 **** Fit      -0.001495
 **** Fit      -0.001739
 **** Fit      -0.001953
 **** Fit      -0.002080
 **** Fit      -0.002080
 **** Fit      -0.001938
 **** Fit      -0.001671
 **** Fit      -0.001327
 **** Fit      -0.000962
 **** Fit      -0.000625
 **** Fit      -0.001405
 **** Fit      -0.001630
 **** Fit      -0.001862
 **** Fit      -0.002051
 **** Fit      -0.002146
 **** Fit      -0.002108
 **** Fit      -0.001926
 **** Fit      -0.001624
 **** Fit      -0.001255
 **** Fit      -0.000877
 **** Fit      -0.000542
 **** Fit      -0.000276
 **** Fit      -0.001752
 **** Fit      -0.001960
 **** Fit      -0.002117
 **** Fit      -0.002176
 **** Fit      -0.002102
 **** Fit      -0.001891
 **** Fit      -0.001570
 **** Fit      -0.001191
 **** Fit      -0.000814
 **** Fit      -0.000488
 **** Fit      -0.000237
 **** Fit      -0.002065
 **** Fit      -0.001840
 **** Fit      -0.001517
 **** Fit      -0.001146
 **** Fit      -0.000784
 **** Fit      -0.000474
 **** Fit      -0.000237
 **** Fit      -0.002002
 **** Fit      -0.001778
 **** Fit      -0.001471
 **** Fit      -0.001124
 **** Fit      -0.000787
 **** Fit      -0.000498
 **** Fit      -0.001430
 **** Fit      -0.001118
 **** Fit      -0.000814
 -----------------------------------------------------------------
 Leave Link  602 at Fri Apr 28 13:58:23 2017, MaxMem=   33554432 cpu:     101.3
 (Enter /scratch/michal/g09/l9999.exe)

 Test job not archived.
 1\1\GINC-RZEPICHA\SP\RHF\6-31G(d)\C27H46O3\MICHAL\28-Apr-2017\0\\#P HF
 /6-31G* SCF(Conver=6) NoSymm Test Pop=chelpg IOp(6/33=2) GFInput GFPri
 nt\\MEP - Input generated by R.E.D.-III.x MOLECULE\\0,1\C,0,0.99816337
 ,-0.89309506,-1.69175591\H,0,1.15317508,0.07488993,-2.18382302\C,0,2.2
 1090457,-1.79372312,-1.96642503\H,0,2.35175624,-1.9068681,-3.04600267\
 H,0,1.97648396,-2.79553,-1.57114676\C,0,3.4842246,-1.28207263,-1.32027
 084\C,0,3.42299729,-0.91785239,0.16718234\C,0,2.12762803,-0.08479035,0
 .4195867\H,0,2.27716188,0.91977755,0.\H,0,1.98516147,0.04772102,1.4970
 9094\C,0,0.84459818,-0.67266995,-0.18765763\H,0,0.59607036,-1.63141188
 ,0.29136155\H,0,0.,0.,0.\C,0,4.60863309,-1.17252313,-2.0405636\H,0,4.5
 9254882,-1.41828656,-3.10293474\C,0,5.94533896,-0.74304426,-1.51147316
 \H,0,6.23710093,0.20875519,-1.98459471\C,0,6.01002956,-0.60412367,0.01
 712847\H,0,6.16775072,-1.61117539,0.41834418\C,0,4.6642347,-0.03770563
 ,0.54940626\H,0,4.51373234,0.92340063,0.03009088\C,0,4.74555843,0.2829
 212,2.05922122\H,0,4.78139591,-0.64895235,2.63398396\H,0,3.83184241,0.
 7980291,2.37538088\C,0,5.95422566,1.15375209,2.45380187\H,0,5.85022295
 ,2.14974262,1.99931573\H,0,5.93251171,1.3038357,3.53761503\C,0,7.28716
 609,0.53540349,1.9868931\C,0,7.16356124,0.31802646,0.45039591\H,0,6.91
 991554,1.31398972,0.03980458\C,0,8.59820869,0.,0.\H,0,8.76055058,0.208
 93648,-1.0604653\H,0,8.81983958,-1.06315125,0.13823048\C,0,9.47601683,
 0.88855342,0.92160105\H,0,10.28390466,0.30115353,1.37443621\H,0,9.9596
 9171,1.68951491,0.35421928\C,0,8.5410162,1.47741119,2.0321093\H,0,8.19
 070136,2.46561274,1.69302832\C,0,7.57678497,-0.7807116,2.7448828\H,0,6
 .81521963,-1.54304262,2.56254492\H,0,8.53919322,-1.21400288,2.45776237
 \H,0,7.60675919,-0.60577742,3.82537184\C,0,9.28233278,1.70568931,3.375
 51613\H,0,9.69875134,0.73858192,3.69645164\C,0,8.36634005,2.22464393,4
 .49818156\H,0,7.85421134,3.14552889,4.19157099\H,0,8.93804606,2.449983
 84,5.40335583\H,0,7.60249406,1.49611577,4.77878407\C,0,3.36975438,-2.2
 3075608,0.99300098\H,0,3.17844022,-2.02726832,2.05110916\H,0,2.5718846
 8,-2.89157354,0.64317978\H,0,4.30833036,-2.78646696,0.91158041\O,0,6.9
 927236,-1.59524355,-2.04069786\O,0,6.82743924,-2.94255272,-1.50798356\
 H,0,6.42768601,-3.39475076,-2.26891545\O,0,-0.19129676,-1.40642082,-2.
 29721849\H,0,-0.40775461,-2.2546942,-1.88518153\C,0,10.47695365,2.6702
 2374,3.16919448\H,0,11.04512048,2.35935877,2.28528334\H,0,10.08521231,
 3.67351533,2.940778\C,0,11.46207382,2.76450767,4.34576339\H,0,10.96098
 374,3.16427635,5.23692563\H,0,11.79597155,1.75149672,4.60743954\C,0,12
 .67564173,3.65107836,4.02691191\H,0,12.31134803,4.63158298,3.68783977\
 H,0,13.22757793,3.22236057,3.17636008\C,0,13.65813471,3.87515308,5.194
 45925\H,0,13.08014096,4.27274937,6.04320186\C,0,14.33471518,2.57342218
 ,5.65396774\H,0,14.90328292,2.12022891,4.83134295\H,0,15.03542033,2.76
 50231,6.47466584\H,0,13.60954092,1.83314858,6.00630614\C,0,14.71480242
 ,4.9251754,4.81597534\H,0,15.32171184,4.5806794,3.96877029\H,0,15.3953
 3839,5.12457808,5.65164042\H,0,14.2497437,5.87483793,4.52746782\\Versi
 on=EM64L-G09RevC.01\HF=-1273.685045\RMSD=5.108e-07\Dipole=-0.501129,-0
 .2137033,0.4628602\Quadrupole=-14.927783,10.5984422,4.3293408,3.698748
 7,-0.7251809,1.5349491\PG=C01 [X(C27H46O3)]\\@


 MYSTERY IS THE WISDOM OF BLOCKHEADS... HORACE WALPOLE 
 Job cpu time:  0 days  0 hours 38 minutes 31.2 seconds.
 File lengths (MBytes):  RWF=    159 Int=      0 D2E=      0 Chk=     11 Scr=      1
 Normal termination of Gaussian 09 at Fri Apr 28 13:58:23 2017.
