 Entering Gaussian System, Link 0=/scratch/michal/g09//g09
 Input=JOB2-gau_m1-5-3.com
 Output=JOB2-gau_m1-5-3.log
 Initial command:
 /scratch/michal/g09/l1.exe /scratch/michal/gauss_scratch/Gau-38338.inp -scrdir=/scratch/michal/gauss_scratch/
 Entering Link 1 = /scratch/michal/g09/l1.exe PID=     38340.
  
 Copyright (c) 1988,1990,1992,1993,1995,1998,2003,2009,2011,
            Gaussian, Inc.  All Rights Reserved.
  
 This is part of the Gaussian(R) 09 program.  It is based on
 the Gaussian(R) 03 system (copyright 2003, Gaussian, Inc.),
 the Gaussian(R) 98 system (copyright 1998, Gaussian, Inc.),
 the Gaussian(R) 94 system (copyright 1995, Gaussian, Inc.),
 the Gaussian 92(TM) system (copyright 1992, Gaussian, Inc.),
 the Gaussian 90(TM) system (copyright 1990, Gaussian, Inc.),
 the Gaussian 88(TM) system (copyright 1988, Gaussian, Inc.),
 the Gaussian 86(TM) system (copyright 1986, Carnegie Mellon
 University), and the Gaussian 82(TM) system (copyright 1983,
 Carnegie Mellon University). Gaussian is a federally registered
 trademark of Gaussian, Inc.
  
 This software contains proprietary and confidential information,
 including trade secrets, belonging to Gaussian, Inc.
  
 This software is provided under written license and may be
 used, copied, transmitted, or stored only in accord with that
 written license.
  
 The following legend is applicable only to US Government
 contracts under FAR:
  
                    RESTRICTED RIGHTS LEGEND
  
 Use, reproduction and disclosure by the US Government is
 subject to restrictions as set forth in subparagraphs (a)
 and (c) of the Commercial Computer Software - Restricted
 Rights clause in FAR 52.227-19.
  
 Gaussian, Inc.
 340 Quinnipiac St., Bldg. 40, Wallingford CT 06492
  
  
 ---------------------------------------------------------------
 Warning -- This program may not be used in any manner that
 competes with the business of Gaussian, Inc. or will provide
 assistance to any competitor of Gaussian, Inc.  The licensee
 of this program is prohibited from giving any competitor of
 Gaussian, Inc. access to this program.  By using this program,
 the user acknowledges that Gaussian, Inc. is engaged in the
 business of creating and licensing software in the field of
 computational chemistry and represents and warrants to the
 licensee that it is not a competitor of Gaussian, Inc. and that
 it will not use this program in any manner prohibited above.
 ---------------------------------------------------------------
  

 Cite this work as:
 Gaussian 09, Revision C.01,
 M. J. Frisch, G. W. Trucks, H. B. Schlegel, G. E. Scuseria, 
 M. A. Robb, J. R. Cheeseman, G. Scalmani, V. Barone, B. Mennucci, 
 G. A. Petersson, H. Nakatsuji, M. Caricato, X. Li, H. P. Hratchian, 
 A. F. Izmaylov, J. Bloino, G. Zheng, J. L. Sonnenberg, M. Hada, 
 M. Ehara, K. Toyota, R. Fukuda, J. Hasegawa, M. Ishida, T. Nakajima, 
 Y. Honda, O. Kitao, H. Nakai, T. Vreven, J. A. Montgomery, Jr., 
 J. E. Peralta, F. Ogliaro, M. Bearpark, J. J. Heyd, E. Brothers, 
 K. N. Kudin, V. N. Staroverov, T. Keith, R. Kobayashi, J. Normand, 
 K. Raghavachari, A. Rendell, J. C. Burant, S. S. Iyengar, J. Tomasi, 
 M. Cossi, N. Rega, J. M. Millam, M. Klene, J. E. Knox, J. B. Cross, 
 V. Bakken, C. Adamo, J. Jaramillo, R. Gomperts, R. E. Stratmann, 
 O. Yazyev, A. J. Austin, R. Cammi, C. Pomelli, J. W. Ochterski, 
 R. L. Martin, K. Morokuma, V. G. Zakrzewski, G. A. Voth, 
 P. Salvador, J. J. Dannenberg, S. Dapprich, A. D. Daniels, 
 O. Farkas, J. B. Foresman, J. V. Ortiz, J. Cioslowski, 
 and D. J. Fox, Gaussian, Inc., Wallingford CT, 2010.
 
 ******************************************
 Gaussian 09:  EM64L-G09RevC.01 23-Sep-2011
                28-Apr-2017 
 ******************************************
 %Mem=256MB
 %NProc=48
 Will use up to   48 processors via shared memory.
 ----------------------------------------------------------------------
 #P HF/6-31G* SCF(Conver=6) NoSymm Test Pop=chelpg IOp(6/33=2) GFInput 
 GFPrint
 ----------------------------------------------------------------------
 1/38=1/1;
 2/12=2,15=1,17=6,18=5,40=1/2;
 3/5=1,6=6,7=1,11=9,16=1,24=110,25=1,30=1/1,2,3;
 4//1;
 5/5=2,6=6,38=5/2;
 6/7=2,8=2,9=2,10=2,15=8,20=3,28=1,33=2/1,2;
 99/5=1,9=1/99;
 Leave Link    1 at Fri Apr 28 12:21:36 2017, MaxMem=   33554432 cpu:       8.3
 (Enter /scratch/michal/g09/l101.exe)
 ----------------------------------------------
 MEP - Input generated by R.E.D.-III.x MOLECULE
 ----------------------------------------------
 Charge =  0 Multiplicity = 1
 Symbolic Z-Matrix:
 C                    -1.00451   1.97805   1.69201 
 H                    -0.99039   0.99776   2.18391 
 C                     0.32516   2.69481   1.96678 
 H                     0.48076   2.78656   3.04636 
 H                     0.23737   3.71989   1.5714 
 C                     1.51158   2.00515   1.32072 
 C                     1.39871   1.65341  -0.16674 
 C                    -0.00317   1.01571  -0.4194 
 H                     0.        0.        0. 
 H                    -0.16316   0.90534  -1.49694 
 C                    -1.1881    1.78232   0.18787 
 H                    -1.29571   2.76702  -0.29092 
 H                    -2.12085   1.23851   0. 
 C                     2.60845   1.73484   2.04109 
 H                     2.62785   1.98036   3.10346 
 C                     3.86932   1.11707   1.51217 
 H                     4.02064   0.13315   1.98535 
 C                     3.91345   0.97011  -0.01643 
 H                     4.21466   1.94383  -0.41781 
 C                     2.50015   0.60349  -0.54872 
 H                     2.21258  -0.32577  -0.02926 
 C                     2.53445   0.27429  -2.05842 
 H                     2.70537   1.19098  -2.63325 
 H                     1.55582  -0.10294  -2.37488 
 C                     3.60428  -0.76253  -2.45222 
 H                     3.35726  -1.73261  -1.99689 
 H                     3.5612   -0.90877  -3.53589 
 C                     5.01265  -0.34295  -1.98568 
 C                     4.92222  -0.10875  -0.44936 
 H                     4.53814  -1.05901  -0.03778 
 C                     6.38797   0.        0. 
 H                     6.51921  -0.22861   1.0607 
 H                     6.76025   1.01998  -0.13997 
 C                     7.12799  -1.00713  -0.92068 
 H                     8.01214  -0.54332  -1.37454 
 H                     7.4909   -1.86874  -0.35209 
 C                     6.1172   -1.45624  -2.03019 
 H                     5.62788  -2.38295  -1.6896 
 C                     5.48933   0.91698  -2.74472 
 H                     4.84665   1.78189  -2.5621 
 H                     6.50469   1.20627  -2.45876 
 H                     5.49258   0.73918  -3.82515 
 C                     6.81653  -1.79113  -3.3738 
 H                     7.37025  -0.89573  -3.69525 
 C                     5.83294  -2.17027  -4.49534 
 H                     5.18691  -3.00127  -4.18507 
 H                     6.36394  -2.48419  -5.39893 
 H                     5.18869  -1.33555  -4.78026 
 C                     1.53531   2.9602   -0.99267 
 H                     1.31728   2.78617  -2.05087 
 H                     0.84057   3.72895  -0.64334 
 H                     2.544     3.37518  -0.91079 
 O                     5.02857   1.80933   2.04158 
 O                     5.05903   3.16658   1.50945 
 H                     4.7268    3.67118   2.26992 
 O                    -2.10777   2.65705   2.29754 
 H                    -2.20003   3.52767   1.88558 
 C                     7.85628  -2.92132  -3.16807 
 H                     8.45238  -2.70846  -2.2737 
 H                     7.31954  -3.85963  -2.95877 
 C                     8.83062  -3.14338  -4.33632 
 H                     8.2786   -3.41645  -5.24236 
 H                     9.34337  -2.19592  -4.56047 
 C                     9.88085  -4.22231  -4.03123 
 H                     9.37364  -5.18155  -3.84481 
 H                     10.38815  -3.96075  -3.09155 
 C                     10.95308  -4.43143  -5.12007 
 H                     11.41878  -3.45376  -5.31938 
 C                     12.05346  -5.37948  -4.61723 
 H                     11.64263  -6.37372  -4.39916 
 H                     12.84412  -5.50462  -5.36585 
 H                     12.51728  -5.00251  -3.69851 
 C                     10.36147  -4.9494   -6.44121 
 H                     9.85917  -5.91388  -6.28988 
 H                     11.14788  -5.09965  -7.18969 
 H                     9.63042  -4.25509  -6.86726 
 
 NAtoms=     76 NQM=        0 NQMF=       0 NMMI=     76 NMMIF=      0
                NMic=       0 NMicF=      0.
                    Isotopes and Nuclear Properties:
 (Nuclear quadrupole moments (NQMom) in fm**2, nuclear magnetic moments (NMagM)
  in nuclear magnetons)

  Atom         1           2           3           4           5           6           7           8           9          10
 IAtWgt=          12           1          12           1           1          12          12          12           1           1
 AtmWgt=  12.0000000   1.0078250  12.0000000   1.0078250   1.0078250  12.0000000  12.0000000  12.0000000   1.0078250   1.0078250
 NucSpn=           0           1           0           1           1           0           0           0           1           1
 AtZEff=   0.0000000   0.0000000   0.0000000   0.0000000   0.0000000   0.0000000   0.0000000   0.0000000   0.0000000   0.0000000
 NQMom=    0.0000000   0.0000000   0.0000000   0.0000000   0.0000000   0.0000000   0.0000000   0.0000000   0.0000000   0.0000000
 NMagM=    0.0000000   2.7928460   0.0000000   2.7928460   2.7928460   0.0000000   0.0000000   0.0000000   2.7928460   2.7928460

  Atom        11          12          13          14          15          16          17          18          19          20
 IAtWgt=          12           1           1          12           1          12           1          12           1          12
 AtmWgt=  12.0000000   1.0078250   1.0078250  12.0000000   1.0078250  12.0000000   1.0078250  12.0000000   1.0078250  12.0000000
 NucSpn=           0           1           1           0           1           0           1           0           1           0
 AtZEff=   0.0000000   0.0000000   0.0000000   0.0000000   0.0000000   0.0000000   0.0000000   0.0000000   0.0000000   0.0000000
 NQMom=    0.0000000   0.0000000   0.0000000   0.0000000   0.0000000   0.0000000   0.0000000   0.0000000   0.0000000   0.0000000
 NMagM=    0.0000000   2.7928460   2.7928460   0.0000000   2.7928460   0.0000000   2.7928460   0.0000000   2.7928460   0.0000000

  Atom        21          22          23          24          25          26          27          28          29          30
 IAtWgt=           1          12           1           1          12           1           1          12          12           1
 AtmWgt=   1.0078250  12.0000000   1.0078250   1.0078250  12.0000000   1.0078250   1.0078250  12.0000000  12.0000000   1.0078250
 NucSpn=           1           0           1           1           0           1           1           0           0           1
 AtZEff=   0.0000000   0.0000000   0.0000000   0.0000000   0.0000000   0.0000000   0.0000000   0.0000000   0.0000000   0.0000000
 NQMom=    0.0000000   0.0000000   0.0000000   0.0000000   0.0000000   0.0000000   0.0000000   0.0000000   0.0000000   0.0000000
 NMagM=    2.7928460   0.0000000   2.7928460   2.7928460   0.0000000   2.7928460   2.7928460   0.0000000   0.0000000   2.7928460

  Atom        31          32          33          34          35          36          37          38          39          40
 IAtWgt=          12           1           1          12           1           1          12           1          12           1
 AtmWgt=  12.0000000   1.0078250   1.0078250  12.0000000   1.0078250   1.0078250  12.0000000   1.0078250  12.0000000   1.0078250
 NucSpn=           0           1           1           0           1           1           0           1           0           1
 AtZEff=   0.0000000   0.0000000   0.0000000   0.0000000   0.0000000   0.0000000   0.0000000   0.0000000   0.0000000   0.0000000
 NQMom=    0.0000000   0.0000000   0.0000000   0.0000000   0.0000000   0.0000000   0.0000000   0.0000000   0.0000000   0.0000000
 NMagM=    0.0000000   2.7928460   2.7928460   0.0000000   2.7928460   2.7928460   0.0000000   2.7928460   0.0000000   2.7928460

  Atom        41          42          43          44          45          46          47          48          49          50
 IAtWgt=           1           1          12           1          12           1           1           1          12           1
 AtmWgt=   1.0078250   1.0078250  12.0000000   1.0078250  12.0000000   1.0078250   1.0078250   1.0078250  12.0000000   1.0078250
 NucSpn=           1           1           0           1           0           1           1           1           0           1
 AtZEff=   0.0000000   0.0000000   0.0000000   0.0000000   0.0000000   0.0000000   0.0000000   0.0000000   0.0000000   0.0000000
 NQMom=    0.0000000   0.0000000   0.0000000   0.0000000   0.0000000   0.0000000   0.0000000   0.0000000   0.0000000   0.0000000
 NMagM=    2.7928460   2.7928460   0.0000000   2.7928460   0.0000000   2.7928460   2.7928460   2.7928460   0.0000000   2.7928460

  Atom        51          52          53          54          55          56          57          58          59          60
 IAtWgt=           1           1          16          16           1          16           1          12           1           1
 AtmWgt=   1.0078250   1.0078250  15.9949146  15.9949146   1.0078250  15.9949146   1.0078250  12.0000000   1.0078250   1.0078250
 NucSpn=           1           1           0           0           1           0           1           0           1           1
 AtZEff=   0.0000000   0.0000000   0.0000000   0.0000000   0.0000000   0.0000000   0.0000000   0.0000000   0.0000000   0.0000000
 NQMom=    0.0000000   0.0000000   0.0000000   0.0000000   0.0000000   0.0000000   0.0000000   0.0000000   0.0000000   0.0000000
 NMagM=    2.7928460   2.7928460   0.0000000   0.0000000   2.7928460   0.0000000   2.7928460   0.0000000   2.7928460   2.7928460

  Atom        61          62          63          64          65          66          67          68          69          70
 IAtWgt=          12           1           1          12           1           1          12           1          12           1
 AtmWgt=  12.0000000   1.0078250   1.0078250  12.0000000   1.0078250   1.0078250  12.0000000   1.0078250  12.0000000   1.0078250
 NucSpn=           0           1           1           0           1           1           0           1           0           1
 AtZEff=   0.0000000   0.0000000   0.0000000   0.0000000   0.0000000   0.0000000   0.0000000   0.0000000   0.0000000   0.0000000
 NQMom=    0.0000000   0.0000000   0.0000000   0.0000000   0.0000000   0.0000000   0.0000000   0.0000000   0.0000000   0.0000000
 NMagM=    0.0000000   2.7928460   2.7928460   0.0000000   2.7928460   2.7928460   0.0000000   2.7928460   0.0000000   2.7928460

  Atom        71          72          73          74          75          76
 IAtWgt=           1           1          12           1           1           1
 AtmWgt=   1.0078250   1.0078250  12.0000000   1.0078250   1.0078250   1.0078250
 NucSpn=           1           1           0           1           1           1
 AtZEff=   0.0000000   0.0000000   0.0000000   0.0000000   0.0000000   0.0000000
 NQMom=    0.0000000   0.0000000   0.0000000   0.0000000   0.0000000   0.0000000
 NMagM=    2.7928460   2.7928460   0.0000000   2.7928460   2.7928460   2.7928460
 Leave Link  101 at Fri Apr 28 12:21:36 2017, MaxMem=   33554432 cpu:      12.2
 (Enter /scratch/michal/g09/l202.exe)
 Symmetry turned off by external request.
 Stoichiometry    C27H46O3
 Framework group  C1[X(C27H46O3)]
 Deg. of freedom   222
 Full point group                 C1      NOp   1
                          Input orientation:                          
 ---------------------------------------------------------------------
 Center     Atomic      Atomic             Coordinates (Angstroms)
 Number     Number       Type             X           Y           Z
 ---------------------------------------------------------------------
      1          6           0       -1.004513    1.978053    1.692006
      2          1           0       -0.990393    0.997759    2.183915
      3          6           0        0.325161    2.694814    1.966778
      4          1           0        0.480757    2.786565    3.046360
      5          1           0        0.237371    3.719888    1.571401
      6          6           0        1.511579    2.005154    1.320725
      7          6           0        1.398710    1.653406   -0.166743
      8          6           0       -0.003173    1.015710   -0.419396
      9          1           0        0.000000    0.000000    0.000000
     10          1           0       -0.163157    0.905336   -1.496935
     11          6           0       -1.188096    1.782317    0.187870
     12          1           0       -1.295712    2.767018   -0.290924
     13          1           0       -2.120845    1.238508    0.000000
     14          6           0        2.608449    1.734838    2.041090
     15          1           0        2.627847    1.980362    3.103464
     16          6           0        3.869318    1.117066    1.512168
     17          1           0        4.020645    0.133153    1.985352
     18          6           0        3.913453    0.970108   -0.016425
     19          1           0        4.214659    1.943831   -0.417815
     20          6           0        2.500147    0.603485   -0.548724
     21          1           0        2.212579   -0.325773   -0.029258
     22          6           0        2.534445    0.274294   -2.058419
     23          1           0        2.705367    1.190980   -2.633250
     24          1           0        1.555824   -0.102937   -2.374877
     25          6           0        3.604280   -0.762534   -2.452223
     26          1           0        3.357261   -1.732608   -1.996885
     27          1           0        3.561200   -0.908770   -3.535892
     28          6           0        5.012653   -0.342953   -1.985684
     29          6           0        4.922216   -0.108752   -0.449363
     30          1           0        4.538136   -1.059006   -0.037778
     31          6           0        6.387966    0.000000    0.000000
     32          1           0        6.519211   -0.228609    1.060703
     33          1           0        6.760255    1.019977   -0.139971
     34          6           0        7.127991   -1.007133   -0.920685
     35          1           0        8.012138   -0.543317   -1.374541
     36          1           0        7.490898   -1.868737   -0.352085
     37          6           0        6.117203   -1.456235   -2.030194
     38          1           0        5.627885   -2.382946   -1.689605
     39          6           0        5.489334    0.916985   -2.744719
     40          1           0        4.846646    1.781893   -2.562105
     41          1           0        6.504693    1.206269   -2.458762
     42          1           0        5.492585    0.739180   -3.825150
     43          6           0        6.816529   -1.791130   -3.373804
     44          1           0        7.370254   -0.895731   -3.695247
     45          6           0        5.832935   -2.170268   -4.495340
     46          1           0        5.186905   -3.001265   -4.185069
     47          1           0        6.363939   -2.484191   -5.398927
     48          1           0        5.188690   -1.335546   -4.780258
     49          6           0        1.535309    2.960197   -0.992668
     50          1           0        1.317283    2.786166   -2.050870
     51          1           0        0.840575    3.728952   -0.643341
     52          1           0        2.544005    3.375179   -0.910790
     53          8           0        5.028567    1.809327    2.041585
     54          8           0        5.059029    3.166577    1.509447
     55          1           0        4.726804    3.671182    2.269918
     56          8           0       -2.107774    2.657051    2.297538
     57          1           0       -2.200035    3.527669    1.885581
     58          6           0        7.856282   -2.921317   -3.168065
     59          1           0        8.452384   -2.708461   -2.273698
     60          1           0        7.319543   -3.859625   -2.958774
     61          6           0        8.830620   -3.143385   -4.336320
     62          1           0        8.278600   -3.416446   -5.242358
     63          1           0        9.343367   -2.195925   -4.560466
     64          6           0        9.880846   -4.222311   -4.031226
     65          1           0        9.373639   -5.181546   -3.844815
     66          1           0       10.388154   -3.960754   -3.091549
     67          6           0       10.953078   -4.431430   -5.120065
     68          1           0       11.418783   -3.453762   -5.319383
     69          6           0       12.053458   -5.379485   -4.617233
     70          1           0       11.642632   -6.373716   -4.399157
     71          1           0       12.844125   -5.504620   -5.365849
     72          1           0       12.517281   -5.002510   -3.698510
     73          6           0       10.361471   -4.949401   -6.441205
     74          1           0        9.859167   -5.913878   -6.289876
     75          1           0       11.147880   -5.099646   -7.189690
     76          1           0        9.630421   -4.255091   -6.867261
 ---------------------------------------------------------------------
 Rotational constants (GHZ):      0.4156372      0.0503978      0.0471128
 Leave Link  202 at Fri Apr 28 12:21:36 2017, MaxMem=   33554432 cpu:       0.3
 (Enter /scratch/michal/g09/l301.exe)
 Standard basis: 6-31G(d) (6D, 7F)
 Ernie: Thresh=  0.10000D-02 Tol=  0.10000D-05 Strict=F.
 AO basis set in the form of general basis input (Overlap normalization):
      1 0
 S   6 1.00       0.000000000000
      0.3047524880D+04  0.1834737132D-02
      0.4573695180D+03  0.1403732281D-01
      0.1039486850D+03  0.6884262226D-01
      0.2921015530D+02  0.2321844432D+00
      0.9286662960D+01  0.4679413484D+00
      0.3163926960D+01  0.3623119853D+00
 SP   3 1.00       0.000000000000
      0.7868272350D+01 -0.1193324198D+00  0.6899906659D-01
      0.1881288540D+01 -0.1608541517D+00  0.3164239610D+00
      0.5442492580D+00  0.1143456438D+01  0.7443082909D+00
 SP   1 1.00       0.000000000000
      0.1687144782D+00  0.1000000000D+01  0.1000000000D+01
 D   1 1.00       0.000000000000
      0.8000000000D+00  0.1000000000D+01
 ****
      2 0
 S   3 1.00       0.000000000000
      0.1873113696D+02  0.3349460434D-01
      0.2825394365D+01  0.2347269535D+00
      0.6401216923D+00  0.8137573261D+00
 S   1 1.00       0.000000000000
      0.1612777588D+00  0.1000000000D+01
 ****
      3 0
 S   6 1.00       0.000000000000
      0.3047524880D+04  0.1834737132D-02
      0.4573695180D+03  0.1403732281D-01
      0.1039486850D+03  0.6884262226D-01
      0.2921015530D+02  0.2321844432D+00
      0.9286662960D+01  0.4679413484D+00
      0.3163926960D+01  0.3623119853D+00
 SP   3 1.00       0.000000000000
      0.7868272350D+01 -0.1193324198D+00  0.6899906659D-01
      0.1881288540D+01 -0.1608541517D+00  0.3164239610D+00
      0.5442492580D+00  0.1143456438D+01  0.7443082909D+00
 SP   1 1.00       0.000000000000
      0.1687144782D+00  0.1000000000D+01  0.1000000000D+01
 D   1 1.00       0.000000000000
      0.8000000000D+00  0.1000000000D+01
 ****
      4 0
 S   3 1.00       0.000000000000
      0.1873113696D+02  0.3349460434D-01
      0.2825394365D+01  0.2347269535D+00
      0.6401216923D+00  0.8137573261D+00
 S   1 1.00       0.000000000000
      0.1612777588D+00  0.1000000000D+01
 ****
      5 0
 S   3 1.00       0.000000000000
      0.1873113696D+02  0.3349460434D-01
      0.2825394365D+01  0.2347269535D+00
      0.6401216923D+00  0.8137573261D+00
 S   1 1.00       0.000000000000
      0.1612777588D+00  0.1000000000D+01
 ****
      6 0
 S   6 1.00       0.000000000000
      0.3047524880D+04  0.1834737132D-02
      0.4573695180D+03  0.1403732281D-01
      0.1039486850D+03  0.6884262226D-01
      0.2921015530D+02  0.2321844432D+00
      0.9286662960D+01  0.4679413484D+00
      0.3163926960D+01  0.3623119853D+00
 SP   3 1.00       0.000000000000
      0.7868272350D+01 -0.1193324198D+00  0.6899906659D-01
      0.1881288540D+01 -0.1608541517D+00  0.3164239610D+00
      0.5442492580D+00  0.1143456438D+01  0.7443082909D+00
 SP   1 1.00       0.000000000000
      0.1687144782D+00  0.1000000000D+01  0.1000000000D+01
 D   1 1.00       0.000000000000
      0.8000000000D+00  0.1000000000D+01
 ****
      7 0
 S   6 1.00       0.000000000000
      0.3047524880D+04  0.1834737132D-02
      0.4573695180D+03  0.1403732281D-01
      0.1039486850D+03  0.6884262226D-01
      0.2921015530D+02  0.2321844432D+00
      0.9286662960D+01  0.4679413484D+00
      0.3163926960D+01  0.3623119853D+00
 SP   3 1.00       0.000000000000
      0.7868272350D+01 -0.1193324198D+00  0.6899906659D-01
      0.1881288540D+01 -0.1608541517D+00  0.3164239610D+00
      0.5442492580D+00  0.1143456438D+01  0.7443082909D+00
 SP   1 1.00       0.000000000000
      0.1687144782D+00  0.1000000000D+01  0.1000000000D+01
 D   1 1.00       0.000000000000
      0.8000000000D+00  0.1000000000D+01
 ****
      8 0
 S   6 1.00       0.000000000000
      0.3047524880D+04  0.1834737132D-02
      0.4573695180D+03  0.1403732281D-01
      0.1039486850D+03  0.6884262226D-01
      0.2921015530D+02  0.2321844432D+00
      0.9286662960D+01  0.4679413484D+00
      0.3163926960D+01  0.3623119853D+00
 SP   3 1.00       0.000000000000
      0.7868272350D+01 -0.1193324198D+00  0.6899906659D-01
      0.1881288540D+01 -0.1608541517D+00  0.3164239610D+00
      0.5442492580D+00  0.1143456438D+01  0.7443082909D+00
 SP   1 1.00       0.000000000000
      0.1687144782D+00  0.1000000000D+01  0.1000000000D+01
 D   1 1.00       0.000000000000
      0.8000000000D+00  0.1000000000D+01
 ****
      9 0
 S   3 1.00       0.000000000000
      0.1873113696D+02  0.3349460434D-01
      0.2825394365D+01  0.2347269535D+00
      0.6401216923D+00  0.8137573261D+00
 S   1 1.00       0.000000000000
      0.1612777588D+00  0.1000000000D+01
 ****
     10 0
 S   3 1.00       0.000000000000
      0.1873113696D+02  0.3349460434D-01
      0.2825394365D+01  0.2347269535D+00
      0.6401216923D+00  0.8137573261D+00
 S   1 1.00       0.000000000000
      0.1612777588D+00  0.1000000000D+01
 ****
     11 0
 S   6 1.00       0.000000000000
      0.3047524880D+04  0.1834737132D-02
      0.4573695180D+03  0.1403732281D-01
      0.1039486850D+03  0.6884262226D-01
      0.2921015530D+02  0.2321844432D+00
      0.9286662960D+01  0.4679413484D+00
      0.3163926960D+01  0.3623119853D+00
 SP   3 1.00       0.000000000000
      0.7868272350D+01 -0.1193324198D+00  0.6899906659D-01
      0.1881288540D+01 -0.1608541517D+00  0.3164239610D+00
      0.5442492580D+00  0.1143456438D+01  0.7443082909D+00
 SP   1 1.00       0.000000000000
      0.1687144782D+00  0.1000000000D+01  0.1000000000D+01
 D   1 1.00       0.000000000000
      0.8000000000D+00  0.1000000000D+01
 ****
     12 0
 S   3 1.00       0.000000000000
      0.1873113696D+02  0.3349460434D-01
      0.2825394365D+01  0.2347269535D+00
      0.6401216923D+00  0.8137573261D+00
 S   1 1.00       0.000000000000
      0.1612777588D+00  0.1000000000D+01
 ****
     13 0
 S   3 1.00       0.000000000000
      0.1873113696D+02  0.3349460434D-01
      0.2825394365D+01  0.2347269535D+00
      0.6401216923D+00  0.8137573261D+00
 S   1 1.00       0.000000000000
      0.1612777588D+00  0.1000000000D+01
 ****
     14 0
 S   6 1.00       0.000000000000
      0.3047524880D+04  0.1834737132D-02
      0.4573695180D+03  0.1403732281D-01
      0.1039486850D+03  0.6884262226D-01
      0.2921015530D+02  0.2321844432D+00
      0.9286662960D+01  0.4679413484D+00
      0.3163926960D+01  0.3623119853D+00
 SP   3 1.00       0.000000000000
      0.7868272350D+01 -0.1193324198D+00  0.6899906659D-01
      0.1881288540D+01 -0.1608541517D+00  0.3164239610D+00
      0.5442492580D+00  0.1143456438D+01  0.7443082909D+00
 SP   1 1.00       0.000000000000
      0.1687144782D+00  0.1000000000D+01  0.1000000000D+01
 D   1 1.00       0.000000000000
      0.8000000000D+00  0.1000000000D+01
 ****
     15 0
 S   3 1.00       0.000000000000
      0.1873113696D+02  0.3349460434D-01
      0.2825394365D+01  0.2347269535D+00
      0.6401216923D+00  0.8137573261D+00
 S   1 1.00       0.000000000000
      0.1612777588D+00  0.1000000000D+01
 ****
     16 0
 S   6 1.00       0.000000000000
      0.3047524880D+04  0.1834737132D-02
      0.4573695180D+03  0.1403732281D-01
      0.1039486850D+03  0.6884262226D-01
      0.2921015530D+02  0.2321844432D+00
      0.9286662960D+01  0.4679413484D+00
      0.3163926960D+01  0.3623119853D+00
 SP   3 1.00       0.000000000000
      0.7868272350D+01 -0.1193324198D+00  0.6899906659D-01
      0.1881288540D+01 -0.1608541517D+00  0.3164239610D+00
      0.5442492580D+00  0.1143456438D+01  0.7443082909D+00
 SP   1 1.00       0.000000000000
      0.1687144782D+00  0.1000000000D+01  0.1000000000D+01
 D   1 1.00       0.000000000000
      0.8000000000D+00  0.1000000000D+01
 ****
     17 0
 S   3 1.00       0.000000000000
      0.1873113696D+02  0.3349460434D-01
      0.2825394365D+01  0.2347269535D+00
      0.6401216923D+00  0.8137573261D+00
 S   1 1.00       0.000000000000
      0.1612777588D+00  0.1000000000D+01
 ****
     18 0
 S   6 1.00       0.000000000000
      0.3047524880D+04  0.1834737132D-02
      0.4573695180D+03  0.1403732281D-01
      0.1039486850D+03  0.6884262226D-01
      0.2921015530D+02  0.2321844432D+00
      0.9286662960D+01  0.4679413484D+00
      0.3163926960D+01  0.3623119853D+00
 SP   3 1.00       0.000000000000
      0.7868272350D+01 -0.1193324198D+00  0.6899906659D-01
      0.1881288540D+01 -0.1608541517D+00  0.3164239610D+00
      0.5442492580D+00  0.1143456438D+01  0.7443082909D+00
 SP   1 1.00       0.000000000000
      0.1687144782D+00  0.1000000000D+01  0.1000000000D+01
 D   1 1.00       0.000000000000
      0.8000000000D+00  0.1000000000D+01
 ****
     19 0
 S   3 1.00       0.000000000000
      0.1873113696D+02  0.3349460434D-01
      0.2825394365D+01  0.2347269535D+00
      0.6401216923D+00  0.8137573261D+00
 S   1 1.00       0.000000000000
      0.1612777588D+00  0.1000000000D+01
 ****
     20 0
 S   6 1.00       0.000000000000
      0.3047524880D+04  0.1834737132D-02
      0.4573695180D+03  0.1403732281D-01
      0.1039486850D+03  0.6884262226D-01
      0.2921015530D+02  0.2321844432D+00
      0.9286662960D+01  0.4679413484D+00
      0.3163926960D+01  0.3623119853D+00
 SP   3 1.00       0.000000000000
      0.7868272350D+01 -0.1193324198D+00  0.6899906659D-01
      0.1881288540D+01 -0.1608541517D+00  0.3164239610D+00
      0.5442492580D+00  0.1143456438D+01  0.7443082909D+00
 SP   1 1.00       0.000000000000
      0.1687144782D+00  0.1000000000D+01  0.1000000000D+01
 D   1 1.00       0.000000000000
      0.8000000000D+00  0.1000000000D+01
 ****
     21 0
 S   3 1.00       0.000000000000
      0.1873113696D+02  0.3349460434D-01
      0.2825394365D+01  0.2347269535D+00
      0.6401216923D+00  0.8137573261D+00
 S   1 1.00       0.000000000000
      0.1612777588D+00  0.1000000000D+01
 ****
     22 0
 S   6 1.00       0.000000000000
      0.3047524880D+04  0.1834737132D-02
      0.4573695180D+03  0.1403732281D-01
      0.1039486850D+03  0.6884262226D-01
      0.2921015530D+02  0.2321844432D+00
      0.9286662960D+01  0.4679413484D+00
      0.3163926960D+01  0.3623119853D+00
 SP   3 1.00       0.000000000000
      0.7868272350D+01 -0.1193324198D+00  0.6899906659D-01
      0.1881288540D+01 -0.1608541517D+00  0.3164239610D+00
      0.5442492580D+00  0.1143456438D+01  0.7443082909D+00
 SP   1 1.00       0.000000000000
      0.1687144782D+00  0.1000000000D+01  0.1000000000D+01
 D   1 1.00       0.000000000000
      0.8000000000D+00  0.1000000000D+01
 ****
     23 0
 S   3 1.00       0.000000000000
      0.1873113696D+02  0.3349460434D-01
      0.2825394365D+01  0.2347269535D+00
      0.6401216923D+00  0.8137573261D+00
 S   1 1.00       0.000000000000
      0.1612777588D+00  0.1000000000D+01
 ****
     24 0
 S   3 1.00       0.000000000000
      0.1873113696D+02  0.3349460434D-01
      0.2825394365D+01  0.2347269535D+00
      0.6401216923D+00  0.8137573261D+00
 S   1 1.00       0.000000000000
      0.1612777588D+00  0.1000000000D+01
 ****
     25 0
 S   6 1.00       0.000000000000
      0.3047524880D+04  0.1834737132D-02
      0.4573695180D+03  0.1403732281D-01
      0.1039486850D+03  0.6884262226D-01
      0.2921015530D+02  0.2321844432D+00
      0.9286662960D+01  0.4679413484D+00
      0.3163926960D+01  0.3623119853D+00
 SP   3 1.00       0.000000000000
      0.7868272350D+01 -0.1193324198D+00  0.6899906659D-01
      0.1881288540D+01 -0.1608541517D+00  0.3164239610D+00
      0.5442492580D+00  0.1143456438D+01  0.7443082909D+00
 SP   1 1.00       0.000000000000
      0.1687144782D+00  0.1000000000D+01  0.1000000000D+01
 D   1 1.00       0.000000000000
      0.8000000000D+00  0.1000000000D+01
 ****
     26 0
 S   3 1.00       0.000000000000
      0.1873113696D+02  0.3349460434D-01
      0.2825394365D+01  0.2347269535D+00
      0.6401216923D+00  0.8137573261D+00
 S   1 1.00       0.000000000000
      0.1612777588D+00  0.1000000000D+01
 ****
     27 0
 S   3 1.00       0.000000000000
      0.1873113696D+02  0.3349460434D-01
      0.2825394365D+01  0.2347269535D+00
      0.6401216923D+00  0.8137573261D+00
 S   1 1.00       0.000000000000
      0.1612777588D+00  0.1000000000D+01
 ****
     28 0
 S   6 1.00       0.000000000000
      0.3047524880D+04  0.1834737132D-02
      0.4573695180D+03  0.1403732281D-01
      0.1039486850D+03  0.6884262226D-01
      0.2921015530D+02  0.2321844432D+00
      0.9286662960D+01  0.4679413484D+00
      0.3163926960D+01  0.3623119853D+00
 SP   3 1.00       0.000000000000
      0.7868272350D+01 -0.1193324198D+00  0.6899906659D-01
      0.1881288540D+01 -0.1608541517D+00  0.3164239610D+00
      0.5442492580D+00  0.1143456438D+01  0.7443082909D+00
 SP   1 1.00       0.000000000000
      0.1687144782D+00  0.1000000000D+01  0.1000000000D+01
 D   1 1.00       0.000000000000
      0.8000000000D+00  0.1000000000D+01
 ****
     29 0
 S   6 1.00       0.000000000000
      0.3047524880D+04  0.1834737132D-02
      0.4573695180D+03  0.1403732281D-01
      0.1039486850D+03  0.6884262226D-01
      0.2921015530D+02  0.2321844432D+00
      0.9286662960D+01  0.4679413484D+00
      0.3163926960D+01  0.3623119853D+00
 SP   3 1.00       0.000000000000
      0.7868272350D+01 -0.1193324198D+00  0.6899906659D-01
      0.1881288540D+01 -0.1608541517D+00  0.3164239610D+00
      0.5442492580D+00  0.1143456438D+01  0.7443082909D+00
 SP   1 1.00       0.000000000000
      0.1687144782D+00  0.1000000000D+01  0.1000000000D+01
 D   1 1.00       0.000000000000
      0.8000000000D+00  0.1000000000D+01
 ****
     30 0
 S   3 1.00       0.000000000000
      0.1873113696D+02  0.3349460434D-01
      0.2825394365D+01  0.2347269535D+00
      0.6401216923D+00  0.8137573261D+00
 S   1 1.00       0.000000000000
      0.1612777588D+00  0.1000000000D+01
 ****
     31 0
 S   6 1.00       0.000000000000
      0.3047524880D+04  0.1834737132D-02
      0.4573695180D+03  0.1403732281D-01
      0.1039486850D+03  0.6884262226D-01
      0.2921015530D+02  0.2321844432D+00
      0.9286662960D+01  0.4679413484D+00
      0.3163926960D+01  0.3623119853D+00
 SP   3 1.00       0.000000000000
      0.7868272350D+01 -0.1193324198D+00  0.6899906659D-01
      0.1881288540D+01 -0.1608541517D+00  0.3164239610D+00
      0.5442492580D+00  0.1143456438D+01  0.7443082909D+00
 SP   1 1.00       0.000000000000
      0.1687144782D+00  0.1000000000D+01  0.1000000000D+01
 D   1 1.00       0.000000000000
      0.8000000000D+00  0.1000000000D+01
 ****
     32 0
 S   3 1.00       0.000000000000
      0.1873113696D+02  0.3349460434D-01
      0.2825394365D+01  0.2347269535D+00
      0.6401216923D+00  0.8137573261D+00
 S   1 1.00       0.000000000000
      0.1612777588D+00  0.1000000000D+01
 ****
     33 0
 S   3 1.00       0.000000000000
      0.1873113696D+02  0.3349460434D-01
      0.2825394365D+01  0.2347269535D+00
      0.6401216923D+00  0.8137573261D+00
 S   1 1.00       0.000000000000
      0.1612777588D+00  0.1000000000D+01
 ****
     34 0
 S   6 1.00       0.000000000000
      0.3047524880D+04  0.1834737132D-02
      0.4573695180D+03  0.1403732281D-01
      0.1039486850D+03  0.6884262226D-01
      0.2921015530D+02  0.2321844432D+00
      0.9286662960D+01  0.4679413484D+00
      0.3163926960D+01  0.3623119853D+00
 SP   3 1.00       0.000000000000
      0.7868272350D+01 -0.1193324198D+00  0.6899906659D-01
      0.1881288540D+01 -0.1608541517D+00  0.3164239610D+00
      0.5442492580D+00  0.1143456438D+01  0.7443082909D+00
 SP   1 1.00       0.000000000000
      0.1687144782D+00  0.1000000000D+01  0.1000000000D+01
 D   1 1.00       0.000000000000
      0.8000000000D+00  0.1000000000D+01
 ****
     35 0
 S   3 1.00       0.000000000000
      0.1873113696D+02  0.3349460434D-01
      0.2825394365D+01  0.2347269535D+00
      0.6401216923D+00  0.8137573261D+00
 S   1 1.00       0.000000000000
      0.1612777588D+00  0.1000000000D+01
 ****
     36 0
 S   3 1.00       0.000000000000
      0.1873113696D+02  0.3349460434D-01
      0.2825394365D+01  0.2347269535D+00
      0.6401216923D+00  0.8137573261D+00
 S   1 1.00       0.000000000000
      0.1612777588D+00  0.1000000000D+01
 ****
     37 0
 S   6 1.00       0.000000000000
      0.3047524880D+04  0.1834737132D-02
      0.4573695180D+03  0.1403732281D-01
      0.1039486850D+03  0.6884262226D-01
      0.2921015530D+02  0.2321844432D+00
      0.9286662960D+01  0.4679413484D+00
      0.3163926960D+01  0.3623119853D+00
 SP   3 1.00       0.000000000000
      0.7868272350D+01 -0.1193324198D+00  0.6899906659D-01
      0.1881288540D+01 -0.1608541517D+00  0.3164239610D+00
      0.5442492580D+00  0.1143456438D+01  0.7443082909D+00
 SP   1 1.00       0.000000000000
      0.1687144782D+00  0.1000000000D+01  0.1000000000D+01
 D   1 1.00       0.000000000000
      0.8000000000D+00  0.1000000000D+01
 ****
     38 0
 S   3 1.00       0.000000000000
      0.1873113696D+02  0.3349460434D-01
      0.2825394365D+01  0.2347269535D+00
      0.6401216923D+00  0.8137573261D+00
 S   1 1.00       0.000000000000
      0.1612777588D+00  0.1000000000D+01
 ****
     39 0
 S   6 1.00       0.000000000000
      0.3047524880D+04  0.1834737132D-02
      0.4573695180D+03  0.1403732281D-01
      0.1039486850D+03  0.6884262226D-01
      0.2921015530D+02  0.2321844432D+00
      0.9286662960D+01  0.4679413484D+00
      0.3163926960D+01  0.3623119853D+00
 SP   3 1.00       0.000000000000
      0.7868272350D+01 -0.1193324198D+00  0.6899906659D-01
      0.1881288540D+01 -0.1608541517D+00  0.3164239610D+00
      0.5442492580D+00  0.1143456438D+01  0.7443082909D+00
 SP   1 1.00       0.000000000000
      0.1687144782D+00  0.1000000000D+01  0.1000000000D+01
 D   1 1.00       0.000000000000
      0.8000000000D+00  0.1000000000D+01
 ****
     40 0
 S   3 1.00       0.000000000000
      0.1873113696D+02  0.3349460434D-01
      0.2825394365D+01  0.2347269535D+00
      0.6401216923D+00  0.8137573261D+00
 S   1 1.00       0.000000000000
      0.1612777588D+00  0.1000000000D+01
 ****
     41 0
 S   3 1.00       0.000000000000
      0.1873113696D+02  0.3349460434D-01
      0.2825394365D+01  0.2347269535D+00
      0.6401216923D+00  0.8137573261D+00
 S   1 1.00       0.000000000000
      0.1612777588D+00  0.1000000000D+01
 ****
     42 0
 S   3 1.00       0.000000000000
      0.1873113696D+02  0.3349460434D-01
      0.2825394365D+01  0.2347269535D+00
      0.6401216923D+00  0.8137573261D+00
 S   1 1.00       0.000000000000
      0.1612777588D+00  0.1000000000D+01
 ****
     43 0
 S   6 1.00       0.000000000000
      0.3047524880D+04  0.1834737132D-02
      0.4573695180D+03  0.1403732281D-01
      0.1039486850D+03  0.6884262226D-01
      0.2921015530D+02  0.2321844432D+00
      0.9286662960D+01  0.4679413484D+00
      0.3163926960D+01  0.3623119853D+00
 SP   3 1.00       0.000000000000
      0.7868272350D+01 -0.1193324198D+00  0.6899906659D-01
      0.1881288540D+01 -0.1608541517D+00  0.3164239610D+00
      0.5442492580D+00  0.1143456438D+01  0.7443082909D+00
 SP   1 1.00       0.000000000000
      0.1687144782D+00  0.1000000000D+01  0.1000000000D+01
 D   1 1.00       0.000000000000
      0.8000000000D+00  0.1000000000D+01
 ****
     44 0
 S   3 1.00       0.000000000000
      0.1873113696D+02  0.3349460434D-01
      0.2825394365D+01  0.2347269535D+00
      0.6401216923D+00  0.8137573261D+00
 S   1 1.00       0.000000000000
      0.1612777588D+00  0.1000000000D+01
 ****
     45 0
 S   6 1.00       0.000000000000
      0.3047524880D+04  0.1834737132D-02
      0.4573695180D+03  0.1403732281D-01
      0.1039486850D+03  0.6884262226D-01
      0.2921015530D+02  0.2321844432D+00
      0.9286662960D+01  0.4679413484D+00
      0.3163926960D+01  0.3623119853D+00
 SP   3 1.00       0.000000000000
      0.7868272350D+01 -0.1193324198D+00  0.6899906659D-01
      0.1881288540D+01 -0.1608541517D+00  0.3164239610D+00
      0.5442492580D+00  0.1143456438D+01  0.7443082909D+00
 SP   1 1.00       0.000000000000
      0.1687144782D+00  0.1000000000D+01  0.1000000000D+01
 D   1 1.00       0.000000000000
      0.8000000000D+00  0.1000000000D+01
 ****
     46 0
 S   3 1.00       0.000000000000
      0.1873113696D+02  0.3349460434D-01
      0.2825394365D+01  0.2347269535D+00
      0.6401216923D+00  0.8137573261D+00
 S   1 1.00       0.000000000000
      0.1612777588D+00  0.1000000000D+01
 ****
     47 0
 S   3 1.00       0.000000000000
      0.1873113696D+02  0.3349460434D-01
      0.2825394365D+01  0.2347269535D+00
      0.6401216923D+00  0.8137573261D+00
 S   1 1.00       0.000000000000
      0.1612777588D+00  0.1000000000D+01
 ****
     48 0
 S   3 1.00       0.000000000000
      0.1873113696D+02  0.3349460434D-01
      0.2825394365D+01  0.2347269535D+00
      0.6401216923D+00  0.8137573261D+00
 S   1 1.00       0.000000000000
      0.1612777588D+00  0.1000000000D+01
 ****
     49 0
 S   6 1.00       0.000000000000
      0.3047524880D+04  0.1834737132D-02
      0.4573695180D+03  0.1403732281D-01
      0.1039486850D+03  0.6884262226D-01
      0.2921015530D+02  0.2321844432D+00
      0.9286662960D+01  0.4679413484D+00
      0.3163926960D+01  0.3623119853D+00
 SP   3 1.00       0.000000000000
      0.7868272350D+01 -0.1193324198D+00  0.6899906659D-01
      0.1881288540D+01 -0.1608541517D+00  0.3164239610D+00
      0.5442492580D+00  0.1143456438D+01  0.7443082909D+00
 SP   1 1.00       0.000000000000
      0.1687144782D+00  0.1000000000D+01  0.1000000000D+01
 D   1 1.00       0.000000000000
      0.8000000000D+00  0.1000000000D+01
 ****
     50 0
 S   3 1.00       0.000000000000
      0.1873113696D+02  0.3349460434D-01
      0.2825394365D+01  0.2347269535D+00
      0.6401216923D+00  0.8137573261D+00
 S   1 1.00       0.000000000000
      0.1612777588D+00  0.1000000000D+01
 ****
     51 0
 S   3 1.00       0.000000000000
      0.1873113696D+02  0.3349460434D-01
      0.2825394365D+01  0.2347269535D+00
      0.6401216923D+00  0.8137573261D+00
 S   1 1.00       0.000000000000
      0.1612777588D+00  0.1000000000D+01
 ****
     52 0
 S   3 1.00       0.000000000000
      0.1873113696D+02  0.3349460434D-01
      0.2825394365D+01  0.2347269535D+00
      0.6401216923D+00  0.8137573261D+00
 S   1 1.00       0.000000000000
      0.1612777588D+00  0.1000000000D+01
 ****
     53 0
 S   6 1.00       0.000000000000
      0.5484671660D+04  0.1831074430D-02
      0.8252349460D+03  0.1395017220D-01
      0.1880469580D+03  0.6844507810D-01
      0.5296450000D+02  0.2327143360D+00
      0.1689757040D+02  0.4701928980D+00
      0.5799635340D+01  0.3585208530D+00
 SP   3 1.00       0.000000000000
      0.1553961625D+02 -0.1107775495D+00  0.7087426823D-01
      0.3599933586D+01 -0.1480262627D+00  0.3397528391D+00
      0.1013761750D+01  0.1130767015D+01  0.7271585773D+00
 SP   1 1.00       0.000000000000
      0.2700058226D+00  0.1000000000D+01  0.1000000000D+01
 D   1 1.00       0.000000000000
      0.8000000000D+00  0.1000000000D+01
 ****
     54 0
 S   6 1.00       0.000000000000
      0.5484671660D+04  0.1831074430D-02
      0.8252349460D+03  0.1395017220D-01
      0.1880469580D+03  0.6844507810D-01
      0.5296450000D+02  0.2327143360D+00
      0.1689757040D+02  0.4701928980D+00
      0.5799635340D+01  0.3585208530D+00
 SP   3 1.00       0.000000000000
      0.1553961625D+02 -0.1107775495D+00  0.7087426823D-01
      0.3599933586D+01 -0.1480262627D+00  0.3397528391D+00
      0.1013761750D+01  0.1130767015D+01  0.7271585773D+00
 SP   1 1.00       0.000000000000
      0.2700058226D+00  0.1000000000D+01  0.1000000000D+01
 D   1 1.00       0.000000000000
      0.8000000000D+00  0.1000000000D+01
 ****
     55 0
 S   3 1.00       0.000000000000
      0.1873113696D+02  0.3349460434D-01
      0.2825394365D+01  0.2347269535D+00
      0.6401216923D+00  0.8137573261D+00
 S   1 1.00       0.000000000000
      0.1612777588D+00  0.1000000000D+01
 ****
     56 0
 S   6 1.00       0.000000000000
      0.5484671660D+04  0.1831074430D-02
      0.8252349460D+03  0.1395017220D-01
      0.1880469580D+03  0.6844507810D-01
      0.5296450000D+02  0.2327143360D+00
      0.1689757040D+02  0.4701928980D+00
      0.5799635340D+01  0.3585208530D+00
 SP   3 1.00       0.000000000000
      0.1553961625D+02 -0.1107775495D+00  0.7087426823D-01
      0.3599933586D+01 -0.1480262627D+00  0.3397528391D+00
      0.1013761750D+01  0.1130767015D+01  0.7271585773D+00
 SP   1 1.00       0.000000000000
      0.2700058226D+00  0.1000000000D+01  0.1000000000D+01
 D   1 1.00       0.000000000000
      0.8000000000D+00  0.1000000000D+01
 ****
     57 0
 S   3 1.00       0.000000000000
      0.1873113696D+02  0.3349460434D-01
      0.2825394365D+01  0.2347269535D+00
      0.6401216923D+00  0.8137573261D+00
 S   1 1.00       0.000000000000
      0.1612777588D+00  0.1000000000D+01
 ****
     58 0
 S   6 1.00       0.000000000000
      0.3047524880D+04  0.1834737132D-02
      0.4573695180D+03  0.1403732281D-01
      0.1039486850D+03  0.6884262226D-01
      0.2921015530D+02  0.2321844432D+00
      0.9286662960D+01  0.4679413484D+00
      0.3163926960D+01  0.3623119853D+00
 SP   3 1.00       0.000000000000
      0.7868272350D+01 -0.1193324198D+00  0.6899906659D-01
      0.1881288540D+01 -0.1608541517D+00  0.3164239610D+00
      0.5442492580D+00  0.1143456438D+01  0.7443082909D+00
 SP   1 1.00       0.000000000000
      0.1687144782D+00  0.1000000000D+01  0.1000000000D+01
 D   1 1.00       0.000000000000
      0.8000000000D+00  0.1000000000D+01
 ****
     59 0
 S   3 1.00       0.000000000000
      0.1873113696D+02  0.3349460434D-01
      0.2825394365D+01  0.2347269535D+00
      0.6401216923D+00  0.8137573261D+00
 S   1 1.00       0.000000000000
      0.1612777588D+00  0.1000000000D+01
 ****
     60 0
 S   3 1.00       0.000000000000
      0.1873113696D+02  0.3349460434D-01
      0.2825394365D+01  0.2347269535D+00
      0.6401216923D+00  0.8137573261D+00
 S   1 1.00       0.000000000000
      0.1612777588D+00  0.1000000000D+01
 ****
     61 0
 S   6 1.00       0.000000000000
      0.3047524880D+04  0.1834737132D-02
      0.4573695180D+03  0.1403732281D-01
      0.1039486850D+03  0.6884262226D-01
      0.2921015530D+02  0.2321844432D+00
      0.9286662960D+01  0.4679413484D+00
      0.3163926960D+01  0.3623119853D+00
 SP   3 1.00       0.000000000000
      0.7868272350D+01 -0.1193324198D+00  0.6899906659D-01
      0.1881288540D+01 -0.1608541517D+00  0.3164239610D+00
      0.5442492580D+00  0.1143456438D+01  0.7443082909D+00
 SP   1 1.00       0.000000000000
      0.1687144782D+00  0.1000000000D+01  0.1000000000D+01
 D   1 1.00       0.000000000000
      0.8000000000D+00  0.1000000000D+01
 ****
     62 0
 S   3 1.00       0.000000000000
      0.1873113696D+02  0.3349460434D-01
      0.2825394365D+01  0.2347269535D+00
      0.6401216923D+00  0.8137573261D+00
 S   1 1.00       0.000000000000
      0.1612777588D+00  0.1000000000D+01
 ****
     63 0
 S   3 1.00       0.000000000000
      0.1873113696D+02  0.3349460434D-01
      0.2825394365D+01  0.2347269535D+00
      0.6401216923D+00  0.8137573261D+00
 S   1 1.00       0.000000000000
      0.1612777588D+00  0.1000000000D+01
 ****
     64 0
 S   6 1.00       0.000000000000
      0.3047524880D+04  0.1834737132D-02
      0.4573695180D+03  0.1403732281D-01
      0.1039486850D+03  0.6884262226D-01
      0.2921015530D+02  0.2321844432D+00
      0.9286662960D+01  0.4679413484D+00
      0.3163926960D+01  0.3623119853D+00
 SP   3 1.00       0.000000000000
      0.7868272350D+01 -0.1193324198D+00  0.6899906659D-01
      0.1881288540D+01 -0.1608541517D+00  0.3164239610D+00
      0.5442492580D+00  0.1143456438D+01  0.7443082909D+00
 SP   1 1.00       0.000000000000
      0.1687144782D+00  0.1000000000D+01  0.1000000000D+01
 D   1 1.00       0.000000000000
      0.8000000000D+00  0.1000000000D+01
 ****
     65 0
 S   3 1.00       0.000000000000
      0.1873113696D+02  0.3349460434D-01
      0.2825394365D+01  0.2347269535D+00
      0.6401216923D+00  0.8137573261D+00
 S   1 1.00       0.000000000000
      0.1612777588D+00  0.1000000000D+01
 ****
     66 0
 S   3 1.00       0.000000000000
      0.1873113696D+02  0.3349460434D-01
      0.2825394365D+01  0.2347269535D+00
      0.6401216923D+00  0.8137573261D+00
 S   1 1.00       0.000000000000
      0.1612777588D+00  0.1000000000D+01
 ****
     67 0
 S   6 1.00       0.000000000000
      0.3047524880D+04  0.1834737132D-02
      0.4573695180D+03  0.1403732281D-01
      0.1039486850D+03  0.6884262226D-01
      0.2921015530D+02  0.2321844432D+00
      0.9286662960D+01  0.4679413484D+00
      0.3163926960D+01  0.3623119853D+00
 SP   3 1.00       0.000000000000
      0.7868272350D+01 -0.1193324198D+00  0.6899906659D-01
      0.1881288540D+01 -0.1608541517D+00  0.3164239610D+00
      0.5442492580D+00  0.1143456438D+01  0.7443082909D+00
 SP   1 1.00       0.000000000000
      0.1687144782D+00  0.1000000000D+01  0.1000000000D+01
 D   1 1.00       0.000000000000
      0.8000000000D+00  0.1000000000D+01
 ****
     68 0
 S   3 1.00       0.000000000000
      0.1873113696D+02  0.3349460434D-01
      0.2825394365D+01  0.2347269535D+00
      0.6401216923D+00  0.8137573261D+00
 S   1 1.00       0.000000000000
      0.1612777588D+00  0.1000000000D+01
 ****
     69 0
 S   6 1.00       0.000000000000
      0.3047524880D+04  0.1834737132D-02
      0.4573695180D+03  0.1403732281D-01
      0.1039486850D+03  0.6884262226D-01
      0.2921015530D+02  0.2321844432D+00
      0.9286662960D+01  0.4679413484D+00
      0.3163926960D+01  0.3623119853D+00
 SP   3 1.00       0.000000000000
      0.7868272350D+01 -0.1193324198D+00  0.6899906659D-01
      0.1881288540D+01 -0.1608541517D+00  0.3164239610D+00
      0.5442492580D+00  0.1143456438D+01  0.7443082909D+00
 SP   1 1.00       0.000000000000
      0.1687144782D+00  0.1000000000D+01  0.1000000000D+01
 D   1 1.00       0.000000000000
      0.8000000000D+00  0.1000000000D+01
 ****
     70 0
 S   3 1.00       0.000000000000
      0.1873113696D+02  0.3349460434D-01
      0.2825394365D+01  0.2347269535D+00
      0.6401216923D+00  0.8137573261D+00
 S   1 1.00       0.000000000000
      0.1612777588D+00  0.1000000000D+01
 ****
     71 0
 S   3 1.00       0.000000000000
      0.1873113696D+02  0.3349460434D-01
      0.2825394365D+01  0.2347269535D+00
      0.6401216923D+00  0.8137573261D+00
 S   1 1.00       0.000000000000
      0.1612777588D+00  0.1000000000D+01
 ****
     72 0
 S   3 1.00       0.000000000000
      0.1873113696D+02  0.3349460434D-01
      0.2825394365D+01  0.2347269535D+00
      0.6401216923D+00  0.8137573261D+00
 S   1 1.00       0.000000000000
      0.1612777588D+00  0.1000000000D+01
 ****
     73 0
 S   6 1.00       0.000000000000
      0.3047524880D+04  0.1834737132D-02
      0.4573695180D+03  0.1403732281D-01
      0.1039486850D+03  0.6884262226D-01
      0.2921015530D+02  0.2321844432D+00
      0.9286662960D+01  0.4679413484D+00
      0.3163926960D+01  0.3623119853D+00
 SP   3 1.00       0.000000000000
      0.7868272350D+01 -0.1193324198D+00  0.6899906659D-01
      0.1881288540D+01 -0.1608541517D+00  0.3164239610D+00
      0.5442492580D+00  0.1143456438D+01  0.7443082909D+00
 SP   1 1.00       0.000000000000
      0.1687144782D+00  0.1000000000D+01  0.1000000000D+01
 D   1 1.00       0.000000000000
      0.8000000000D+00  0.1000000000D+01
 ****
     74 0
 S   3 1.00       0.000000000000
      0.1873113696D+02  0.3349460434D-01
      0.2825394365D+01  0.2347269535D+00
      0.6401216923D+00  0.8137573261D+00
 S   1 1.00       0.000000000000
      0.1612777588D+00  0.1000000000D+01
 ****
     75 0
 S   3 1.00       0.000000000000
      0.1873113696D+02  0.3349460434D-01
      0.2825394365D+01  0.2347269535D+00
      0.6401216923D+00  0.8137573261D+00
 S   1 1.00       0.000000000000
      0.1612777588D+00  0.1000000000D+01
 ****
     76 0
 S   3 1.00       0.000000000000
      0.1873113696D+02  0.3349460434D-01
      0.2825394365D+01  0.2347269535D+00
      0.6401216923D+00  0.8137573261D+00
 S   1 1.00       0.000000000000
      0.1612777588D+00  0.1000000000D+01
 ****

 AO basis set (Overlap normalization):
 Atom C1       Shell     1 S   6     bf    1 -     1         -1.898254183464          3.737979334504          3.197427142617
      0.3047524880D+04  0.1834737132D-02
      0.4573695180D+03  0.1403732281D-01
      0.1039486850D+03  0.6884262226D-01
      0.2921015530D+02  0.2321844432D+00
      0.9286662960D+01  0.4679413484D+00
      0.3163926960D+01  0.3623119853D+00
 Atom C1       Shell     2 SP   3    bf    2 -     5         -1.898254183464          3.737979334504          3.197427142617
      0.7868272350D+01 -0.1193324198D+00  0.6899906659D-01
      0.1881288540D+01 -0.1608541517D+00  0.3164239610D+00
      0.5442492580D+00  0.1143456438D+01  0.7443082909D+00
 Atom C1       Shell     3 SP   1    bf    6 -     9         -1.898254183464          3.737979334504          3.197427142617
      0.1687144782D+00  0.1000000000D+01  0.1000000000D+01
 Atom C1       Shell     4 D   1     bf   10 -    15         -1.898254183464          3.737979334504          3.197427142617
      0.8000000000D+00  0.1000000000D+01
 Atom H2       Shell     5 S   3     bf   16 -    16         -1.871571363852          1.885490916471          4.127001039631
      0.1873113696D+02  0.3349460434D-01
      0.2825394365D+01  0.2347269535D+00
      0.6401216923D+00  0.8137573261D+00
 Atom H2       Shell     6 S   1     bf   17 -    17         -1.871571363852          1.885490916471          4.127001039631
      0.1612777588D+00  0.1000000000D+01
 Atom C3       Shell     7 S   6     bf   18 -    18          0.614464539897          5.092461194957          3.716670990500
      0.3047524880D+04  0.1834737132D-02
      0.4573695180D+03  0.1403732281D-01
      0.1039486850D+03  0.6884262226D-01
      0.2921015530D+02  0.2321844432D+00
      0.9286662960D+01  0.4679413484D+00
      0.3163926960D+01  0.3623119853D+00
 Atom C3       Shell     8 SP   3    bf   19 -    22          0.614464539897          5.092461194957          3.716670990500
      0.7868272350D+01 -0.1193324198D+00  0.6899906659D-01
      0.1881288540D+01 -0.1608541517D+00  0.3164239610D+00
      0.5442492580D+00  0.1143456438D+01  0.7443082909D+00
 Atom C3       Shell     9 SP   1    bf   23 -    26          0.614464539897          5.092461194957          3.716670990500
      0.1687144782D+00  0.1000000000D+01  0.1000000000D+01
 Atom C3       Shell    10 D   1     bf   27 -    32          0.614464539897          5.092461194957          3.716670990500
      0.8000000000D+00  0.1000000000D+01
 Atom H4       Shell    11 S   3     bf   33 -    33          0.908498953084          5.265844663690          5.756786914760
      0.1873113696D+02  0.3349460434D-01
      0.2825394365D+01  0.2347269535D+00
      0.6401216923D+00  0.8137573261D+00
 Atom H4       Shell    12 S   1     bf   34 -    34          0.908498953084          5.265844663690          5.756786914760
      0.1612777588D+00  0.1000000000D+01
 Atom H5       Shell    13 S   3     bf   35 -    35          0.448565237026          7.029569753980          2.969517232586
      0.1873113696D+02  0.3349460434D-01
      0.2825394365D+01  0.2347269535D+00
      0.6401216923D+00  0.8137573261D+00
 Atom H5       Shell    14 S   1     bf   36 -    36          0.448565237026          7.029569753980          2.969517232586
      0.1612777588D+00  0.1000000000D+01
 Atom C6       Shell    15 S   6     bf   37 -    37          2.856469865790          3.789191328445          2.495808225602
      0.3047524880D+04  0.1834737132D-02
      0.4573695180D+03  0.1403732281D-01
      0.1039486850D+03  0.6884262226D-01
      0.2921015530D+02  0.2321844432D+00
      0.9286662960D+01  0.4679413484D+00
      0.3163926960D+01  0.3623119853D+00
 Atom C6       Shell    16 SP   3    bf   38 -    41          2.856469865790          3.789191328445          2.495808225602
      0.7868272350D+01 -0.1193324198D+00  0.6899906659D-01
      0.1881288540D+01 -0.1608541517D+00  0.3164239610D+00
      0.5442492580D+00  0.1143456438D+01  0.7443082909D+00
 Atom C6       Shell    17 SP   1    bf   42 -    45          2.856469865790          3.789191328445          2.495808225602
      0.1687144782D+00  0.1000000000D+01  0.1000000000D+01
 Atom C6       Shell    18 D   1     bf   46 -    51          2.856469865790          3.789191328445          2.495808225602
      0.8000000000D+00  0.1000000000D+01
 Atom C7       Shell    19 S   6     bf   52 -    52          2.643179500733          3.124483921758         -0.315097867583
      0.3047524880D+04  0.1834737132D-02
      0.4573695180D+03  0.1403732281D-01
      0.1039486850D+03  0.6884262226D-01
      0.2921015530D+02  0.2321844432D+00
      0.9286662960D+01  0.4679413484D+00
      0.3163926960D+01  0.3623119853D+00
 Atom C7       Shell    20 SP   3    bf   53 -    56          2.643179500733          3.124483921758         -0.315097867583
      0.7868272350D+01 -0.1193324198D+00  0.6899906659D-01
      0.1881288540D+01 -0.1608541517D+00  0.3164239610D+00
      0.5442492580D+00  0.1143456438D+01  0.7443082909D+00
 Atom C7       Shell    21 SP   1    bf   57 -    60          2.643179500733          3.124483921758         -0.315097867583
      0.1687144782D+00  0.1000000000D+01  0.1000000000D+01
 Atom C7       Shell    22 D   1     bf   61 -    66          2.643179500733          3.124483921758         -0.315097867583
      0.8000000000D+00  0.1000000000D+01
 Atom C8       Shell    23 S   6     bf   67 -    67         -0.005996252198          1.919414070584         -0.792543675714
      0.3047524880D+04  0.1834737132D-02
      0.4573695180D+03  0.1403732281D-01
      0.1039486850D+03  0.6884262226D-01
      0.2921015530D+02  0.2321844432D+00
      0.9286662960D+01  0.4679413484D+00
      0.3163926960D+01  0.3623119853D+00
 Atom C8       Shell    24 SP   3    bf   68 -    71         -0.005996252198          1.919414070584         -0.792543675714
      0.7868272350D+01 -0.1193324198D+00  0.6899906659D-01
      0.1881288540D+01 -0.1608541517D+00  0.3164239610D+00
      0.5442492580D+00  0.1143456438D+01  0.7443082909D+00
 Atom C8       Shell    25 SP   1    bf   72 -    75         -0.005996252198          1.919414070584         -0.792543675714
      0.1687144782D+00  0.1000000000D+01  0.1000000000D+01
 Atom C8       Shell    26 D   1     bf   76 -    81         -0.005996252198          1.919414070584         -0.792543675714
      0.8000000000D+00  0.1000000000D+01
 Atom H9       Shell    27 S   3     bf   82 -    82          0.000000000000          0.000000000000          0.000000000000
      0.1873113696D+02  0.3349460434D-01
      0.2825394365D+01  0.2347269535D+00
      0.6401216923D+00  0.8137573261D+00
 Atom H9       Shell    28 S   1     bf   83 -    83          0.000000000000          0.000000000000          0.000000000000
      0.1612777588D+00  0.1000000000D+01
 Atom H10      Shell    29 S   3     bf   84 -    84         -0.308321404156          1.710836776989         -2.828797755649
      0.1873113696D+02  0.3349460434D-01
      0.2825394365D+01  0.2347269535D+00
      0.6401216923D+00  0.8137573261D+00
 Atom H10      Shell    30 S   1     bf   85 -    85         -0.308321404156          1.710836776989         -2.828797755649
      0.1612777588D+00  0.1000000000D+01
 Atom C11      Shell    31 S   6     bf   86 -    86         -2.245176569803          3.368091578904          0.355023094250
      0.3047524880D+04  0.1834737132D-02
      0.4573695180D+03  0.1403732281D-01
      0.1039486850D+03  0.6884262226D-01
      0.2921015530D+02  0.2321844432D+00
      0.9286662960D+01  0.4679413484D+00
      0.3163926960D+01  0.3623119853D+00
 Atom C11      Shell    32 SP   3    bf   87 -    90         -2.245176569803          3.368091578904          0.355023094250
      0.7868272350D+01 -0.1193324198D+00  0.6899906659D-01
      0.1881288540D+01 -0.1608541517D+00  0.3164239610D+00
      0.5442492580D+00  0.1143456438D+01  0.7443082909D+00
 Atom C11      Shell    33 SP   1    bf   91 -    94         -2.245176569803          3.368091578904          0.355023094250
      0.1687144782D+00  0.1000000000D+01  0.1000000000D+01
 Atom C11      Shell    34 D   1     bf   95 -   100         -2.245176569803          3.368091578904          0.355023094250
      0.8000000000D+00  0.1000000000D+01
 Atom H12      Shell    35 S   3     bf  101 -   101         -2.448540373559          5.228905582258         -0.549766836662
      0.1873113696D+02  0.3349460434D-01
      0.2825394365D+01  0.2347269535D+00
      0.6401216923D+00  0.8137573261D+00
 Atom H12      Shell    36 S   1     bf  102 -   102         -2.448540373559          5.228905582258         -0.549766836662
      0.1612777588D+00  0.1000000000D+01
 Atom H13      Shell    37 S   3     bf  103 -   103         -4.007816220300          2.340441594792          0.000000000000
      0.1873113696D+02  0.3349460434D-01
      0.2825394365D+01  0.2347269535D+00
      0.6401216923D+00  0.8137573261D+00
 Atom H13      Shell    38 S   1     bf  104 -   104         -4.007816220300          2.340441594792          0.000000000000
      0.1612777588D+00  0.1000000000D+01
 Atom C14      Shell    39 S   6     bf  105 -   105          4.929255129771          3.278369536403          3.857100715729
      0.3047524880D+04  0.1834737132D-02
      0.4573695180D+03  0.1403732281D-01
      0.1039486850D+03  0.6884262226D-01
      0.2921015530D+02  0.2321844432D+00
      0.9286662960D+01  0.4679413484D+00
      0.3163926960D+01  0.3623119853D+00
 Atom C14      Shell    40 SP   3    bf  106 -   109          4.929255129771          3.278369536403          3.857100715729
      0.7868272350D+01 -0.1193324198D+00  0.6899906659D-01
      0.1881288540D+01 -0.1608541517D+00  0.3164239610D+00
      0.5442492580D+00  0.1143456438D+01  0.7443082909D+00
 Atom C14      Shell    41 SP   1    bf  110 -   113          4.929255129771          3.278369536403          3.857100715729
      0.1687144782D+00  0.1000000000D+01  0.1000000000D+01
 Atom C14      Shell    42 D   1     bf  114 -   119          4.929255129771          3.278369536403          3.857100715729
      0.8000000000D+00  0.1000000000D+01
 Atom H15      Shell    43 S   3     bf  120 -   120          4.965911016844          3.742342334200          5.864697609085
      0.1873113696D+02  0.3349460434D-01
      0.2825394365D+01  0.2347269535D+00
      0.6401216923D+00  0.8137573261D+00
 Atom H15      Shell    44 S   1     bf  121 -   121          4.965911016844          3.742342334200          5.864697609085
      0.1612777588D+00  0.1000000000D+01
 Atom C16      Shell    45 S   6     bf  122 -   122          7.311950547360          2.110949473762          2.857583519194
      0.3047524880D+04  0.1834737132D-02
      0.4573695180D+03  0.1403732281D-01
      0.1039486850D+03  0.6884262226D-01
      0.2921015530D+02  0.2321844432D+00
      0.9286662960D+01  0.4679413484D+00
      0.3163926960D+01  0.3623119853D+00
 Atom C16      Shell    46 SP   3    bf  123 -   126          7.311950547360          2.110949473762          2.857583519194
      0.7868272350D+01 -0.1193324198D+00  0.6899906659D-01
      0.1881288540D+01 -0.1608541517D+00  0.3164239610D+00
      0.5442492580D+00  0.1143456438D+01  0.7443082909D+00
 Atom C16      Shell    47 SP   1    bf  127 -   130          7.311950547360          2.110949473762          2.857583519194
      0.1687144782D+00  0.1000000000D+01  0.1000000000D+01
 Atom C16      Shell    48 D   1     bf  131 -   136          7.311950547360          2.110949473762          2.857583519194
      0.8000000000D+00  0.1000000000D+01
 Atom H17      Shell    49 S   3     bf  137 -   137          7.597917171666          0.251622533697          3.751771236123
      0.1873113696D+02  0.3349460434D-01
      0.2825394365D+01  0.2347269535D+00
      0.6401216923D+00  0.8137573261D+00
 Atom H17      Shell    50 S   1     bf  138 -   138          7.597917171666          0.251622533697          3.751771236123
      0.1612777588D+00  0.1000000000D+01
 Atom C18      Shell    51 S   6     bf  139 -   139          7.395353855899          1.833238628294         -0.031039564315
      0.3047524880D+04  0.1834737132D-02
      0.4573695180D+03  0.1403732281D-01
      0.1039486850D+03  0.6884262226D-01
      0.2921015530D+02  0.2321844432D+00
      0.9286662960D+01  0.4679413484D+00
      0.3163926960D+01  0.3623119853D+00
 Atom C18      Shell    52 SP   3    bf  140 -   143          7.395353855899          1.833238628294         -0.031039564315
      0.7868272350D+01 -0.1193324198D+00  0.6899906659D-01
      0.1881288540D+01 -0.1608541517D+00  0.3164239610D+00
      0.5442492580D+00  0.1143456438D+01  0.7443082909D+00
 Atom C18      Shell    53 SP   1    bf  144 -   147          7.395353855899          1.833238628294         -0.031039564315
      0.1687144782D+00  0.1000000000D+01  0.1000000000D+01
 Atom C18      Shell    54 D   1     bf  148 -   153          7.395353855899          1.833238628294         -0.031039564315
      0.8000000000D+00  0.1000000000D+01
 Atom H19      Shell    55 S   3     bf  154 -   154          7.964551952700          3.673307312647         -0.789555376191
      0.1873113696D+02  0.3349460434D-01
      0.2825394365D+01  0.2347269535D+00
      0.6401216923D+00  0.8137573261D+00
 Atom H19      Shell    56 S   1     bf  155 -   155          7.964551952700          3.673307312647         -0.789555376191
      0.1612777588D+00  0.1000000000D+01
 Atom C20      Shell    57 S   6     bf  156 -   156          4.724593594387          1.140421828839         -1.036937647905
      0.3047524880D+04  0.1834737132D-02
      0.4573695180D+03  0.1403732281D-01
      0.1039486850D+03  0.6884262226D-01
      0.2921015530D+02  0.2321844432D+00
      0.9286662960D+01  0.4679413484D+00
      0.3163926960D+01  0.3623119853D+00
 Atom C20      Shell    58 SP   3    bf  157 -   160          4.724593594387          1.140421828839         -1.036937647905
      0.7868272350D+01 -0.1193324198D+00  0.6899906659D-01
      0.1881288540D+01 -0.1608541517D+00  0.3164239610D+00
      0.5442492580D+00  0.1143456438D+01  0.7443082909D+00
 Atom C20      Shell    59 SP   1    bf  161 -   164          4.724593594387          1.140421828839         -1.036937647905
      0.1687144782D+00  0.1000000000D+01  0.1000000000D+01
 Atom C20      Shell    60 D   1     bf  165 -   170          4.724593594387          1.140421828839         -1.036937647905
      0.8000000000D+00  0.1000000000D+01
 Atom H21      Shell    61 S   3     bf  171 -   171          4.181169226648         -0.615622072742         -0.055289115867
      0.1873113696D+02  0.3349460434D-01
      0.2825394365D+01  0.2347269535D+00
      0.6401216923D+00  0.8137573261D+00
 Atom H21      Shell    62 S   1     bf  172 -   172          4.181169226648         -0.615622072742         -0.055289115867
      0.1612777588D+00  0.1000000000D+01
 Atom C22      Shell    63 S   6     bf  173 -   173          4.789407118937          0.518339954079         -3.889847647605
      0.3047524880D+04  0.1834737132D-02
      0.4573695180D+03  0.1403732281D-01
      0.1039486850D+03  0.6884262226D-01
      0.2921015530D+02  0.2321844432D+00
      0.9286662960D+01  0.4679413484D+00
      0.3163926960D+01  0.3623119853D+00
 Atom C22      Shell    64 SP   3    bf  174 -   177          4.789407118937          0.518339954079         -3.889847647605
      0.7868272350D+01 -0.1193324198D+00  0.6899906659D-01
      0.1881288540D+01 -0.1608541517D+00  0.3164239610D+00
      0.5442492580D+00  0.1143456438D+01  0.7443082909D+00
 Atom C22      Shell    65 SP   1    bf  178 -   181          4.789407118937          0.518339954079         -3.889847647605
      0.1687144782D+00  0.1000000000D+01  0.1000000000D+01
 Atom C22      Shell    66 D   1     bf  182 -   187          4.789407118937          0.518339954079         -3.889847647605
      0.8000000000D+00  0.1000000000D+01
 Atom H23      Shell    67 S   3     bf  188 -   188          5.112403172481          2.250626747840         -4.976121792955
      0.1873113696D+02  0.3349460434D-01
      0.2825394365D+01  0.2347269535D+00
      0.6401216923D+00  0.8137573261D+00
 Atom H23      Shell    68 S   1     bf  189 -   189          5.112403172481          2.250626747840         -4.976121792955
      0.1612777588D+00  0.1000000000D+01
 Atom H24      Shell    69 S   3     bf  190 -   190          2.940081327662         -0.194522795633         -4.487866260015
      0.1873113696D+02  0.3349460434D-01
      0.2825394365D+01  0.2347269535D+00
      0.6401216923D+00  0.8137573261D+00
 Atom H24      Shell    70 S   1     bf  191 -   191          2.940081327662         -0.194522795633         -4.487866260015
      0.1612777588D+00  0.1000000000D+01
 Atom C25      Shell    71 S   6     bf  192 -   192          6.811102389696         -1.440980559295         -4.634029489921
      0.3047524880D+04  0.1834737132D-02
      0.4573695180D+03  0.1403732281D-01
      0.1039486850D+03  0.6884262226D-01
      0.2921015530D+02  0.2321844432D+00
      0.9286662960D+01  0.4679413484D+00
      0.3163926960D+01  0.3623119853D+00
 Atom C25      Shell    72 SP   3    bf  193 -   196          6.811102389696         -1.440980559295         -4.634029489921
      0.7868272350D+01 -0.1193324198D+00  0.6899906659D-01
      0.1881288540D+01 -0.1608541517D+00  0.3164239610D+00
      0.5442492580D+00  0.1143456438D+01  0.7443082909D+00
 Atom C25      Shell    73 SP   1    bf  197 -   200          6.811102389696         -1.440980559295         -4.634029489921
      0.1687144782D+00  0.1000000000D+01  0.1000000000D+01
 Atom C25      Shell    74 D   1     bf  201 -   206          6.811102389696         -1.440980559295         -4.634029489921
      0.8000000000D+00  0.1000000000D+01
 Atom H26      Shell    75 S   3     bf  207 -   207          6.344303922207         -3.274153784167         -3.773566657039
      0.1873113696D+02  0.3349460434D-01
      0.2825394365D+01  0.2347269535D+00
      0.6401216923D+00  0.8137573261D+00
 Atom H26      Shell    76 S   1     bf  208 -   208          6.344303922207         -3.274153784167         -3.773566657039
      0.1612777588D+00  0.1000000000D+01
 Atom H27      Shell    77 S   3     bf  209 -   209          6.729693479220         -1.717327060289         -6.681867269797
      0.1873113696D+02  0.3349460434D-01
      0.2825394365D+01  0.2347269535D+00
      0.6401216923D+00  0.8137573261D+00
 Atom H27      Shell    78 S   1     bf  210 -   210          6.729693479220         -1.717327060289         -6.681867269797
      0.1612777588D+00  0.1000000000D+01
 Atom C28      Shell    79 S   6     bf  211 -   211          9.472542011695         -0.648087492116         -3.752399040939
      0.3047524880D+04  0.1834737132D-02
      0.4573695180D+03  0.1403732281D-01
      0.1039486850D+03  0.6884262226D-01
      0.2921015530D+02  0.2321844432D+00
      0.9286662960D+01  0.4679413484D+00
      0.3163926960D+01  0.3623119853D+00
 Atom C28      Shell    80 SP   3    bf  212 -   215          9.472542011695         -0.648087492116         -3.752399040939
      0.7868272350D+01 -0.1193324198D+00  0.6899906659D-01
      0.1881288540D+01 -0.1608541517D+00  0.3164239610D+00
      0.5442492580D+00  0.1143456438D+01  0.7443082909D+00
 Atom C28      Shell    81 SP   1    bf  216 -   219          9.472542011695         -0.648087492116         -3.752399040939
      0.1687144782D+00  0.1000000000D+01  0.1000000000D+01
 Atom C28      Shell    82 D   1     bf  220 -   225          9.472542011695         -0.648087492116         -3.752399040939
      0.8000000000D+00  0.1000000000D+01
 Atom C29      Shell    83 S   6     bf  226 -   226          9.301640320291         -0.205511798760         -0.849172323950
      0.3047524880D+04  0.1834737132D-02
      0.4573695180D+03  0.1403732281D-01
      0.1039486850D+03  0.6884262226D-01
      0.2921015530D+02  0.2321844432D+00
      0.9286662960D+01  0.4679413484D+00
      0.3163926960D+01  0.3623119853D+00
 Atom C29      Shell    84 SP   3    bf  227 -   230          9.301640320291         -0.205511798760         -0.849172323950
      0.7868272350D+01 -0.1193324198D+00  0.6899906659D-01
      0.1881288540D+01 -0.1608541517D+00  0.3164239610D+00
      0.5442492580D+00  0.1143456438D+01  0.7443082909D+00
 Atom C29      Shell    85 SP   1    bf  231 -   234          9.301640320291         -0.205511798760         -0.849172323950
      0.1687144782D+00  0.1000000000D+01  0.1000000000D+01
 Atom C29      Shell    86 D   1     bf  235 -   240          9.301640320291         -0.205511798760         -0.849172323950
      0.8000000000D+00  0.1000000000D+01
 Atom H30      Shell    87 S   3     bf  241 -   241          8.575834288275         -2.001232163459         -0.071389695903
      0.1873113696D+02  0.3349460434D-01
      0.2825394365D+01  0.2347269535D+00
      0.6401216923D+00  0.8137573261D+00
 Atom H30      Shell    88 S   1     bf  242 -   242          8.575834288275         -2.001232163459         -0.071389695903
      0.1612777588D+00  0.1000000000D+01
 Atom C31      Shell    89 S   6     bf  243 -   243         12.071506834206          0.000000000000          0.000000000000
      0.3047524880D+04  0.1834737132D-02
      0.4573695180D+03  0.1403732281D-01
      0.1039486850D+03  0.6884262226D-01
      0.2921015530D+02  0.2321844432D+00
      0.9286662960D+01  0.4679413484D+00
      0.3163926960D+01  0.3623119853D+00
 Atom C31      Shell    90 SP   3    bf  244 -   247         12.071506834206          0.000000000000          0.000000000000
      0.7868272350D+01 -0.1193324198D+00  0.6899906659D-01
      0.1881288540D+01 -0.1608541517D+00  0.3164239610D+00
      0.5442492580D+00  0.1143456438D+01  0.7443082909D+00
 Atom C31      Shell    91 SP   1    bf  248 -   251         12.071506834206          0.000000000000          0.000000000000
      0.1687144782D+00  0.1000000000D+01  0.1000000000D+01
 Atom C31      Shell    92 D   1     bf  252 -   257         12.071506834206          0.000000000000          0.000000000000
      0.8000000000D+00  0.1000000000D+01
 Atom H32      Shell    93 S   3     bf  258 -   258         12.319523222420         -0.432007588931          2.004439028707
      0.1873113696D+02  0.3349460434D-01
      0.2825394365D+01  0.2347269535D+00
      0.6401216923D+00  0.8137573261D+00
 Atom H32      Shell    94 S   1     bf  259 -   259         12.319523222420         -0.432007588931          2.004439028707
      0.1612777588D+00  0.1000000000D+01
 Atom H33      Shell    95 S   3     bf  260 -   260         12.775029839272          1.927476568233         -0.264506913238
      0.1873113696D+02  0.3349460434D-01
      0.2825394365D+01  0.2347269535D+00
      0.6401216923D+00  0.8137573261D+00
 Atom H33      Shell    96 S   1     bf  261 -   261         12.775029839272          1.927476568233         -0.264506913238
      0.1612777588D+00  0.1000000000D+01
 Atom C34      Shell    97 S   6     bf  262 -   262         13.469950338550         -1.903205606083         -1.739842164505
      0.3047524880D+04  0.1834737132D-02
      0.4573695180D+03  0.1403732281D-01
      0.1039486850D+03  0.6884262226D-01
      0.2921015530D+02  0.2321844432D+00
      0.9286662960D+01  0.4679413484D+00
      0.3163926960D+01  0.3623119853D+00
 Atom C34      Shell    98 SP   3    bf  263 -   266         13.469950338550         -1.903205606083         -1.739842164505
      0.7868272350D+01 -0.1193324198D+00  0.6899906659D-01
      0.1881288540D+01 -0.1608541517D+00  0.3164239610D+00
      0.5442492580D+00  0.1143456438D+01  0.7443082909D+00
 Atom C34      Shell    99 SP   1    bf  267 -   270         13.469950338550         -1.903205606083         -1.739842164505
      0.1687144782D+00  0.1000000000D+01  0.1000000000D+01
 Atom C34      Shell   100 D   1     bf  271 -   276         13.469950338550         -1.903205606083         -1.739842164505
      0.8000000000D+00  0.1000000000D+01
 Atom H35      Shell   101 S   3     bf  277 -   277         15.140747409263         -1.026720975848         -2.597505292532
      0.1873113696D+02  0.3349460434D-01
      0.2825394365D+01  0.2347269535D+00
      0.6401216923D+00  0.8137573261D+00
 Atom H35      Shell   102 S   1     bf  278 -   278         15.140747409263         -1.026720975848         -2.597505292532
      0.1612777588D+00  0.1000000000D+01
 Atom H36      Shell   103 S   3     bf  279 -   279         14.155745539305         -3.531400199527         -0.665344716826
      0.1873113696D+02  0.3349460434D-01
      0.2825394365D+01  0.2347269535D+00
      0.6401216923D+00  0.8137573261D+00
 Atom H36      Shell   104 S   1     bf  280 -   280         14.155745539305         -3.531400199527         -0.665344716826
      0.1612777588D+00  0.1000000000D+01
 Atom C37      Shell   105 S   6     bf  281 -   281         11.559837972424         -2.751885391815         -3.836511525902
      0.3047524880D+04  0.1834737132D-02
      0.4573695180D+03  0.1403732281D-01
      0.1039486850D+03  0.6884262226D-01
      0.2921015530D+02  0.2321844432D+00
      0.9286662960D+01  0.4679413484D+00
      0.3163926960D+01  0.3623119853D+00
 Atom C37      Shell   106 SP   3    bf  282 -   285         11.559837972424         -2.751885391815         -3.836511525902
      0.7868272350D+01 -0.1193324198D+00  0.6899906659D-01
      0.1881288540D+01 -0.1608541517D+00  0.3164239610D+00
      0.5442492580D+00  0.1143456438D+01  0.7443082909D+00
 Atom C37      Shell   107 SP   1    bf  286 -   289         11.559837972424         -2.751885391815         -3.836511525902
      0.1687144782D+00  0.1000000000D+01  0.1000000000D+01
 Atom C37      Shell   108 D   1     bf  290 -   295         11.559837972424         -2.751885391815         -3.836511525902
      0.8000000000D+00  0.1000000000D+01
 Atom H38      Shell   109 S   3     bf  296 -   296         10.635160866046         -4.503116142038         -3.192890363706
      0.1873113696D+02  0.3349460434D-01
      0.2825394365D+01  0.2347269535D+00
      0.6401216923D+00  0.8137573261D+00
 Atom H38      Shell   110 S   1     bf  297 -   297         10.635160866046         -4.503116142038         -3.192890363706
      0.1612777588D+00  0.1000000000D+01
 Atom C39      Shell   111 S   6     bf  298 -   298         10.373337590684          1.732850404581         -5.186767354009
      0.3047524880D+04  0.1834737132D-02
      0.4573695180D+03  0.1403732281D-01
      0.1039486850D+03  0.6884262226D-01
[...]
 **** Fit      -0.001245
 **** Fit      -0.000723
 **** Fit      -0.000323
 **** Fit      -0.000090
 **** Fit      -0.000010
 **** Fit      -0.000042
 **** Fit      -0.000347
 **** Fit      -0.000585
 **** Fit      -0.000875
 **** Fit      -0.001190
 **** Fit      -0.001482
 **** Fit      -0.001690
 **** Fit      -0.001758
 **** Fit      -0.001658
 **** Fit      -0.001405
 **** Fit      -0.001061
 **** Fit      -0.000711
 **** Fit      -0.000427
 **** Fit      -0.000247
 **** Fit      -0.000174
 **** Fit      -0.001141
 **** Fit      -0.001328
 **** Fit      -0.001272
 **** Fit      -0.001120
 **** Fit      -0.000907
 **** Fit      -0.000683
 **** Fit      -0.000494
 **** Fit      -0.000368
 **** Fit      -0.001519
 **** Fit      -0.001774
 **** Fit      -0.000669
 **** Fit      -0.000903
 **** Fit      -0.001197
 **** Fit      -0.001536
 **** Fit      -0.001885
 **** Fit      -0.002197
 **** Fit      -0.002431
 **** Fit      -0.002564
 **** Fit      -0.000250
 **** Fit      -0.000409
 **** Fit      -0.000656
 **** Fit      -0.001003
 **** Fit      -0.001439
 **** Fit      -0.001916
 **** Fit      -0.002358
 **** Fit      -0.002694
 **** Fit      -0.002885
 **** Fit      -0.002926
 **** Fit       0.000136
 **** Fit       0.000098
 **** Fit      -0.000010
 **** Fit      -0.000235
 **** Fit      -0.000617
 **** Fit      -0.001161
 **** Fit      -0.001807
 **** Fit      -0.002436
 **** Fit      -0.002924
 **** Fit      -0.003199
 **** Fit      -0.003259
 **** Fit      -0.003142
 **** Fit      -0.002909
 **** Fit      -0.002616
 **** Fit       0.000409
 **** Fit       0.000483
 **** Fit       0.000538
 **** Fit       0.000529
 **** Fit       0.000383
 **** Fit       0.000009
 **** Fit      -0.000639
 **** Fit      -0.001500
 **** Fit      -0.002388
 **** Fit      -0.003092
 **** Fit      -0.003486
 **** Fit      -0.003566
 **** Fit      -0.003404
 **** Fit      -0.003092
 **** Fit      -0.002717
 **** Fit      -0.002346
 **** Fit      -0.002016
 **** Fit       0.000686
 **** Fit       0.000848
 **** Fit       0.001022
 **** Fit       0.001157
 **** Fit       0.001151
 **** Fit       0.000848
 **** Fit       0.000119
 **** Fit      -0.000991
 **** Fit      -0.002209
 **** Fit      -0.003190
 **** Fit      -0.003728
 **** Fit      -0.003822
 **** Fit      -0.003589
 **** Fit      -0.003176
 **** Fit      -0.002709
 **** Fit      -0.002273
 **** Fit      -0.001911
 **** Fit      -0.001633
 **** Fit       0.000733
 **** Fit       0.000925
 **** Fit       0.001167
 **** Fit       0.001454
 **** Fit       0.001742
 **** Fit       0.001902
 **** Fit       0.001709
 **** Fit       0.000933
 **** Fit      -0.000422
 **** Fit      -0.001985
 **** Fit      -0.003250
 **** Fit      -0.003918
 **** Fit      -0.003992
 **** Fit      -0.003654
 **** Fit      -0.003118
 **** Fit      -0.002557
 **** Fit      -0.002072
 **** Fit      -0.001701
 **** Fit      -0.001439
 **** Fit       0.000857
 **** Fit       0.001080
 **** Fit       0.001367
 **** Fit       0.001721
 **** Fit       0.002100
 **** Fit       0.002367
 **** Fit       0.002247
 **** Fit       0.001436
 **** Fit      -0.000091
 **** Fit      -0.001893
 **** Fit      -0.003336
 **** Fit      -0.004046
 **** Fit      -0.004039
 **** Fit      -0.003559
 **** Fit      -0.002891
 **** Fit      -0.002251
 **** Fit      -0.001746
 **** Fit      -0.001397
 **** Fit      -0.001178
 **** Fit      -0.001051
 **** Fit       0.000901
 **** Fit       0.001122
 **** Fit       0.001401
 **** Fit       0.001740
 **** Fit       0.002096
 **** Fit       0.002330
 **** Fit       0.002167
 **** Fit       0.001312
 **** Fit      -0.000252
 **** Fit      -0.002064
 **** Fit      -0.003470
 **** Fit      -0.004082
 **** Fit      -0.003930
 **** Fit      -0.003297
 **** Fit      -0.002517
 **** Fit      -0.001831
 **** Fit      -0.001341
 **** Fit      -0.001042
 **** Fit      -0.000886
 **** Fit      -0.000820
 **** Fit       0.000864
 **** Fit       0.001049
 **** Fit       0.001271
 **** Fit       0.001519
 **** Fit       0.001743
 **** Fit       0.001814
 **** Fit       0.001510
 **** Fit       0.000615
 **** Fit      -0.000832
 **** Fit      -0.002415
 **** Fit      -0.003574
 **** Fit      -0.003978
 **** Fit      -0.003663
 **** Fit      -0.002914
 **** Fit      -0.002075
 **** Fit      -0.001388
 **** Fit      -0.000939
 **** Fit      -0.000702
 **** Fit      -0.000611
 **** Fit      -0.000605
 **** Fit       0.000888
 **** Fit       0.001025
 **** Fit       0.001146
 **** Fit       0.001198
 **** Fit       0.001073
 **** Fit       0.000625
 **** Fit      -0.000252
 **** Fit      -0.001472
 **** Fit      -0.002700
 **** Fit      -0.003525
 **** Fit      -0.003705
 **** Fit      -0.003277
 **** Fit      -0.002495
 **** Fit      -0.001669
 **** Fit      -0.001021
 **** Fit      -0.000623
 **** Fit      -0.000439
 **** Fit      -0.000398
 **** Fit      -0.000436
 **** Fit       0.000678
 **** Fit       0.000731
 **** Fit       0.000736
 **** Fit       0.000645
 **** Fit       0.000384
 **** Fit      -0.000127
 **** Fit      -0.000912
 **** Fit      -0.001864
 **** Fit      -0.002740
 **** Fit      -0.003265
 **** Fit      -0.003284
 **** Fit      -0.002831
 **** Fit      -0.002106
 **** Fit      -0.001362
 **** Fit      -0.000785
 **** Fit      -0.000436
 **** Fit      -0.000287
 **** Fit      -0.000272
 **** Fit      -0.000331
 **** Fit       0.000448
 **** Fit       0.000375
 **** Fit       0.000204
 **** Fit      -0.000109
 **** Fit      -0.000596
 **** Fit      -0.001238
 **** Fit      -0.001939
 **** Fit      -0.002532
 **** Fit      -0.002846
 **** Fit      -0.002785
 **** Fit      -0.002380
 **** Fit      -0.001773
 **** Fit      -0.001154
 **** Fit      -0.000667
 **** Fit      -0.000368
 **** Fit      -0.000239
 **** Fit      -0.000231
 **** Fit      -0.000293
 **** Fit       0.000101
 **** Fit      -0.000094
 **** Fit      -0.000394
 **** Fit      -0.000805
 **** Fit      -0.001297
 **** Fit      -0.001792
 **** Fit      -0.002184
 **** Fit      -0.002367
 **** Fit      -0.002285
 **** Fit      -0.001962
 **** Fit      -0.001495
 **** Fit      -0.001014
 **** Fit      -0.000625
 **** Fit      -0.000376
 **** Fit      -0.000263
 **** Fit      -0.000253
 **** Fit      -0.000267
 **** Fit      -0.000523
 **** Fit      -0.000844
 **** Fit      -0.001204
 **** Fit      -0.001546
 **** Fit      -0.001803
 **** Fit      -0.001911
 **** Fit      -0.001839
 **** Fit      -0.001603
 **** Fit      -0.001266
 **** Fit      -0.000913
 **** Fit      -0.000619
 **** Fit      -0.000422
 **** Fit      -0.000326
 **** Fit      -0.000793
 **** Fit      -0.001049
 **** Fit      -0.001284
 **** Fit      -0.001524
 **** Fit      -0.001472
 **** Fit      -0.001311
 **** Fit      -0.001080
 **** Fit      -0.000835
 **** Fit      -0.000623
 **** Fit      -0.000477
 **** Fit      -0.001047
 **** Fit      -0.001316
 **** Fit      -0.001592
 **** Fit      -0.001844
 **** Fit      -0.000425
 **** Fit      -0.000632
 **** Fit      -0.000910
 **** Fit      -0.001246
 **** Fit      -0.001606
 **** Fit      -0.001943
 **** Fit      -0.002209
 **** Fit      -0.002375
 **** Fit      -0.000035
 **** Fit      -0.000155
 **** Fit      -0.000361
 **** Fit      -0.000673
 **** Fit      -0.001083
 **** Fit      -0.001548
 **** Fit      -0.001996
 **** Fit      -0.002354
 **** Fit      -0.002575
 **** Fit      -0.002648
 **** Fit       0.000271
 **** Fit       0.000260
 **** Fit       0.000184
 **** Fit      -0.000001
 **** Fit      -0.000334
 **** Fit      -0.000820
 **** Fit      -0.001408
 **** Fit      -0.001994
 **** Fit      -0.002467
 **** Fit      -0.002753
 **** Fit      -0.002839
 **** Fit      -0.002758
 **** Fit      -0.002564
 **** Fit       0.000520
 **** Fit       0.000568
 **** Fit       0.000550
 **** Fit       0.000404
 **** Fit       0.000067
 **** Fit      -0.000489
 **** Fit      -0.001208
 **** Fit      -0.001949
 **** Fit      -0.002548
 **** Fit      -0.002900
 **** Fit      -0.002991
 **** Fit      -0.002871
 **** Fit      -0.002619
 **** Fit      -0.002312
 **** Fit      -0.002009
 **** Fit       0.000615
 **** Fit       0.000731
 **** Fit       0.000831
 **** Fit       0.000869
 **** Fit       0.000768
 **** Fit       0.000436
 **** Fit      -0.000177
 **** Fit      -0.001015
 **** Fit      -0.001898
 **** Fit      -0.002610
 **** Fit      -0.003011
 **** Fit      -0.003086
 **** Fit      -0.002910
 **** Fit      -0.002589
 **** Fit      -0.002225
 **** Fit      -0.001887
 **** Fit      -0.001608
 **** Fit       0.000723
 **** Fit       0.000863
 **** Fit       0.000991
 **** Fit       0.001058
 **** Fit       0.000979
 **** Fit       0.000646
 **** Fit      -0.000008
 **** Fit      -0.000925
 **** Fit      -0.001896
 **** Fit      -0.002666
 **** Fit      -0.003073
 **** Fit      -0.003104
 **** Fit      -0.002856
 **** Fit      -0.002465
 **** Fit      -0.002051
 **** Fit      -0.001691
 **** Fit      -0.001416
 **** Fit      -0.001223
 **** Fit       0.000754
 **** Fit       0.000888
 **** Fit       0.001007
 **** Fit       0.001061
 **** Fit       0.000963
 **** Fit       0.000608
 **** Fit      -0.000068
 **** Fit      -0.000998
 **** Fit      -0.001967
 **** Fit      -0.002712
 **** Fit      -0.003068
 **** Fit      -0.003028
 **** Fit      -0.002706
 **** Fit      -0.002255
 **** Fit      -0.001810
 **** Fit      -0.001447
 **** Fit      -0.001190
 **** Fit      -0.001027
 **** Fit       0.000707
 **** Fit       0.000810
 **** Fit       0.000885
 **** Fit       0.000885
 **** Fit       0.000733
 **** Fit       0.000343
 **** Fit      -0.000325
 **** Fit      -0.001198
 **** Fit      -0.002072
 **** Fit      -0.002713
 **** Fit      -0.002973
 **** Fit      -0.002855
 **** Fit      -0.002475
 **** Fit      -0.001992
 **** Fit      -0.001540
 **** Fit      -0.001193
 **** Fit      -0.000965
 **** Fit      -0.000837
 **** Fit       0.000653
 **** Fit       0.000669
 **** Fit       0.000600
 **** Fit       0.000387
 **** Fit      -0.000027
 **** Fit      -0.000653
 **** Fit      -0.001412
 **** Fit      -0.002133
 **** Fit      -0.002626
 **** Fit      -0.002780
 **** Fit      -0.002601
 **** Fit      -0.002198
 **** Fit      -0.001719
 **** Fit      -0.001288
 **** Fit      -0.000970
 **** Fit      -0.000774
 **** Fit      -0.000679
 **** Fit       0.000460
 **** Fit       0.000418
 **** Fit       0.000291
 **** Fit       0.000039
 **** Fit      -0.000368
 **** Fit      -0.000919
 **** Fit      -0.001537
 **** Fit      -0.002090
 **** Fit      -0.002439
 **** Fit      -0.002505
 **** Fit      -0.002299
 **** Fit      -0.001914
 **** Fit      -0.001473
 **** Fit      -0.001085
 **** Fit      -0.000805
 **** Fit      -0.000640
 **** Fit      -0.000569
 **** Fit       0.000184
 **** Fit       0.000025
 **** Fit      -0.000234
 **** Fit      -0.000603
 **** Fit      -0.001060
 **** Fit      -0.001538
 **** Fit      -0.001941
 **** Fit      -0.002174
 **** Fit      -0.002184
 **** Fit      -0.001985
 **** Fit      -0.001648
 **** Fit      -0.001271
 **** Fit      -0.000940
 **** Fit      -0.000702
 **** Fit      -0.000564
 **** Fit      -0.000171
 **** Fit      -0.000411
 **** Fit      -0.000723
 **** Fit      -0.001083
 **** Fit      -0.001439
 **** Fit      -0.001724
 **** Fit      -0.001874
 **** Fit      -0.001859
 **** Fit      -0.001688
 **** Fit      -0.001415
 **** Fit      -0.001112
 **** Fit      -0.000845
 **** Fit      -0.000650
 **** Fit      -0.000537
 **** Fit      -0.000752
 **** Fit      -0.001026
 **** Fit      -0.001285
 **** Fit      -0.001484
 **** Fit      -0.001560
 **** Fit      -0.001427
 **** Fit      -0.001220
 **** Fit      -0.000990
 **** Fit      -0.000785
 **** Fit      -0.001108
 **** Fit      -0.001381
 **** Fit      -0.000453
 **** Fit      -0.000702
 **** Fit      -0.001010
 **** Fit      -0.001348
 **** Fit      -0.001670
 **** Fit      -0.001934
 **** Fit      -0.000058
 **** Fit      -0.000238
 **** Fit      -0.000510
 **** Fit      -0.000868
 **** Fit      -0.001277
 **** Fit      -0.001675
 **** Fit      -0.002002
 **** Fit      -0.002213
 **** Fit       0.000240
 **** Fit       0.000161
 **** Fit      -0.000011
 **** Fit      -0.000301
 **** Fit      -0.000706
 **** Fit      -0.001185
 **** Fit      -0.001661
 **** Fit      -0.002050
 **** Fit      -0.002295
 **** Fit      -0.002381
 **** Fit       0.000399
 **** Fit       0.000404
 **** Fit       0.000345
 **** Fit       0.000182
 **** Fit      -0.000120
 **** Fit      -0.000564
 **** Fit      -0.001103
 **** Fit      -0.001644
 **** Fit      -0.002082
 **** Fit      -0.002348
 **** Fit      -0.002425
 **** Fit      -0.002344
 **** Fit      -0.002160
 **** Fit      -0.001931
 **** Fit       0.000487
 **** Fit       0.000504
 **** Fit       0.000454
 **** Fit       0.000292
 **** Fit      -0.000021
 **** Fit      -0.000491
 **** Fit      -0.001067
 **** Fit      -0.001643
 **** Fit      -0.002103
 **** Fit      -0.002366
 **** Fit      -0.002420
 **** Fit      -0.002302
 **** Fit      -0.002080
 **** Fit      -0.001823
 **** Fit      -0.001579
 **** Fit       0.000508
 **** Fit       0.000519
 **** Fit       0.000461
 **** Fit       0.000289
 **** Fit      -0.000034
 **** Fit      -0.000512
 **** Fit      -0.001092
 **** Fit      -0.001663
 **** Fit      -0.002106
 **** Fit      -0.002341
 **** Fit      -0.002357
 **** Fit      -0.002201
 **** Fit      -0.001948
 **** Fit      -0.001672
 **** Fit      -0.001423
 **** Fit       0.000462
 **** Fit       0.000453
 **** Fit       0.000373
 **** Fit       0.000183
 **** Fit      -0.000147
 **** Fit      -0.000614
 **** Fit      -0.001162
 **** Fit      -0.001687
 **** Fit      -0.002078
 **** Fit      -0.002264
 **** Fit      -0.002238
 **** Fit      -0.002051
 **** Fit      -0.001779
 **** Fit      -0.001497
 **** Fit      -0.001255
 **** Fit       0.000327
 **** Fit       0.000220
 **** Fit       0.000012
 **** Fit      -0.000314
 **** Fit      -0.000748
 **** Fit      -0.001235
 **** Fit      -0.001685
 **** Fit      -0.002003
 **** Fit      -0.002132
 **** Fit      -0.002071
 **** Fit      -0.001867
 **** Fit      -0.001594
 **** Fit      -0.001322
 **** Fit      -0.001096
 **** Fit       0.000175
 **** Fit       0.000045
 **** Fit      -0.000170
 **** Fit      -0.000478
 **** Fit      -0.000862
 **** Fit      -0.001273
 **** Fit      -0.001636
 **** Fit      -0.001878
 **** Fit      -0.001955
 **** Fit      -0.001872
 **** Fit      -0.001670
 **** Fit      -0.001414
 **** Fit      -0.001166
 **** Fit      -0.000964
 **** Fit      -0.000115
 **** Fit      -0.000324
 **** Fit      -0.000601
 **** Fit      -0.000925
 **** Fit      -0.001256
 **** Fit      -0.001536
 **** Fit      -0.001711
 **** Fit      -0.001751
 **** Fit      -0.001662
 **** Fit      -0.001478
 **** Fit      -0.001253
 **** Fit      -0.001038
 **** Fit      -0.000668
 **** Fit      -0.000933
 **** Fit      -0.001190
 **** Fit      -0.001303
 **** Fit      -0.000599
 **** Fit      -0.000864
 **** Fit      -0.001154
 **** Fit      -0.001433
 **** Fit      -0.000249
 **** Fit      -0.000481
 **** Fit      -0.000775
 **** Fit      -0.001104
 **** Fit      -0.001424
 **** Fit      -0.001689
 **** Fit       0.000024
 **** Fit      -0.000138
 **** Fit      -0.000382
 **** Fit      -0.000700
 **** Fit      -0.001061
 **** Fit      -0.001412
 **** Fit      -0.001701
 **** Fit      -0.001887
 **** Fit       0.000091
 **** Fit      -0.000074
 **** Fit      -0.000326
 **** Fit      -0.000659
 **** Fit      -0.001037
 **** Fit      -0.001405
 **** Fit      -0.001701
 **** Fit      -0.001884
 **** Fit       0.000101
 **** Fit      -0.000068
 **** Fit      -0.000326
 **** Fit      -0.000661
 **** Fit      -0.001039
 **** Fit      -0.001402
 **** Fit      -0.001687
 **** Fit      -0.001854
 **** Fit       0.000057
 **** Fit      -0.000118
 **** Fit      -0.000374
 **** Fit      -0.000700
 **** Fit      -0.001060
 **** Fit      -0.001396
 **** Fit      -0.001653
 **** Fit      -0.001792
 **** Fit      -0.000203
 **** Fit      -0.000452
 **** Fit      -0.000756
 **** Fit      -0.001081
 **** Fit      -0.001377
 **** Fit      -0.001594
 **** Fit      -0.000532
 **** Fit      -0.000804
 **** Fit      -0.001086
 **** Fit      -0.001334
 -----------------------------------------------------------------
 Leave Link  602 at Fri Apr 28 12:22:49 2017, MaxMem=   33554432 cpu:      95.7
 (Enter /scratch/michal/g09/l9999.exe)

 Test job not archived.
 1\1\GINC-RZEPICHA\SP\RHF\6-31G(d)\C27H46O3\MICHAL\28-Apr-2017\0\\#P HF
 /6-31G* SCF(Conver=6) NoSymm Test Pop=chelpg IOp(6/33=2) GFInput GFPri
 nt\\MEP - Input generated by R.E.D.-III.x MOLECULE\\0,1\C,0,-1.0045128
 5,1.97805347,1.69200557\H,0,-0.99039291,0.99775882,2.18391489\C,0,0.32
 516063,2.6948144,1.96677758\H,0,0.48075694,2.78656498,3.04636043\H,0,0
 .2373705,3.7198881,1.57140084\C,0,1.51157875,2.00515369,1.32072483\C,0
 ,1.39871035,1.65340568,-0.16674261\C,0,-0.00317308,1.01571018,-0.41939
 605\H,0,0.,0.,0.\H,0,-0.16315666,0.90533583,-1.4969353\C,0,-1.18809627
 ,1.7823173,0.18787013\H,0,-1.29571176,2.76701766,-0.29092408\H,0,-2.12
 0845,1.23850835,0.\C,0,2.60844947,1.73483844,2.04108979\H,0,2.62784693
 ,1.98036227,3.10346431\C,0,3.86931758,1.11706635,1.51216807\H,0,4.0206
 446,0.13315291,1.98535183\C,0,3.91345271,0.9701081,-0.01642543\H,0,4.2
 1465937,1.94383051,-0.41781471\C,0,2.50014725,0.60348524,-0.54872377\H
 ,0,2.21257946,-0.32577317,-0.02925774\C,0,2.53444509,0.27429369,-2.058
 41872\H,0,2.70536724,1.19098038,-2.63325024\H,0,1.55582403,-0.10293703
 ,-2.37487654\C,0,3.60428015,-0.76253407,-2.45222279\H,0,3.35726104,-1.
 73260756,-1.99688547\H,0,3.56120041,-0.90877034,-3.53589187\C,0,5.0126
 5334,-0.34295313,-1.98568405\C,0,4.92221606,-0.10875216,-0.44936264\H,
 0,4.53813605,-1.05900645,-0.0377778\C,0,6.38796629,0.,0.\H,0,6.5192109
 1,-0.22860857,1.06070345\H,0,6.76025463,1.01997667,-0.13997103\C,0,7.1
 2799072,-1.00713303,-0.92068482\H,0,8.01213845,-0.54331734,-1.3745406\
 H,0,7.49089791,-1.8687365,-0.35208526\C,0,6.11720279,-1.45623503,-2.03
 019446\H,0,5.62788474,-2.38294643,-1.68960481\C,0,5.48933383,0.9169849
 4,-2.74471907\H,0,4.846646,1.78189274,-2.56210478\H,0,6.50469281,1.206
 26885,-2.45876237\H,0,5.49258465,0.73917979,-3.82514996\C,0,6.8165286,
 -1.79113038,-3.37380391\H,0,7.37025446,-0.89573086,-3.69524651\C,0,5.8
 3293546,-2.17026757,-4.49534027\H,0,5.18690536,-3.00126521,-4.18506946
 \H,0,6.36393859,-2.48419078,-5.39892691\H,0,5.18869036,-1.33554636,-4.
 78025799\C,0,1.53530897,2.9601974,-0.99266754\H,0,1.31728294,2.7861657
 4,-2.05086975\H,0,0.84057458,3.72895161,-0.64334142\H,0,2.54400468,3.3
 7517943,-0.91078988\O,0,5.0285669,1.80932745,2.04158483\O,0,5.05902927
 ,3.16657723,1.50944656\H,0,4.72680398,3.67118233,2.26991779\O,0,-2.107
 77351,2.65705127,2.29753846\H,0,-2.20003475,3.5276694,1.88558075\C,0,7
 .85628182,-2.92131741,-3.16806541\H,0,8.45238435,-2.70846131,-2.273698
 16\H,0,7.31954344,-3.85962536,-2.9587739\C,0,8.83062014,-3.14338486,-4
 .33632003\H,0,8.27859997,-3.41644574,-5.24235795\H,0,9.34336676,-2.195
 92475,-4.56046579\C,0,9.88084559,-4.2223111,-4.03122586\H,0,9.37363936
 ,-5.18154613,-3.84481468\H,0,10.38815373,-3.96075377,-3.09154852\C,0,1
 0.95307831,-4.43142954,-5.12006517\H,0,11.41878322,-3.45376173,-5.3193
 8302\C,0,12.05345797,-5.37948473,-4.61723279\H,0,11.64263188,-6.373715
 54,-4.39915748\H,0,12.84412481,-5.50461965,-5.365849\H,0,12.51728093,-
 5.0025097,-3.69851041\C,0,10.36147133,-4.94940148,-6.44120532\H,0,9.85
 916686,-5.91387814,-6.289876\H,0,11.1478797,-5.09964613,-7.18969046\H,
 0,9.63042051,-4.2550912,-6.8672605\\Version=EM64L-G09RevC.01\HF=-1273.
 6849484\RMSD=5.114e-07\Dipole=-0.437337,0.3178951,-0.4458063\Quadrupol
 e=-12.2396379,10.237575,2.0020629,-1.5978826,2.6877987,-0.3277705\PG=C
 01 [X(C27H46O3)]\\@


 I take a simple view of life: keep your eyes open and get on with it.
 -- Laurence Olivier
 Job cpu time:  0 days  0 hours 36 minutes 22.4 seconds.
 File lengths (MBytes):  RWF=    159 Int=      0 D2E=      0 Chk=     11 Scr=      1
 Normal termination of Gaussian 09 at Fri Apr 28 12:22:49 2017.
