 Entering Gaussian System, Link 0=/scratch/michal/g09//g09
 Input=JOB2-gau_m1-13-1.com
 Output=JOB2-gau_m1-13-1.log
 Initial command:
 /scratch/michal/g09/l1.exe /scratch/michal/gauss_scratch/Gau-5212.inp -scrdir=/scratch/michal/gauss_scratch/
 Entering Link 1 = /scratch/michal/g09/l1.exe PID=      5214.
  
 Copyright (c) 1988,1990,1992,1993,1995,1998,2003,2009,2011,
            Gaussian, Inc.  All Rights Reserved.
  
 This is part of the Gaussian(R) 09 program.  It is based on
 the Gaussian(R) 03 system (copyright 2003, Gaussian, Inc.),
 the Gaussian(R) 98 system (copyright 1998, Gaussian, Inc.),
 the Gaussian(R) 94 system (copyright 1995, Gaussian, Inc.),
 the Gaussian 92(TM) system (copyright 1992, Gaussian, Inc.),
 the Gaussian 90(TM) system (copyright 1990, Gaussian, Inc.),
 the Gaussian 88(TM) system (copyright 1988, Gaussian, Inc.),
 the Gaussian 86(TM) system (copyright 1986, Carnegie Mellon
 University), and the Gaussian 82(TM) system (copyright 1983,
 Carnegie Mellon University). Gaussian is a federally registered
 trademark of Gaussian, Inc.
  
 This software contains proprietary and confidential information,
 including trade secrets, belonging to Gaussian, Inc.
  
 This software is provided under written license and may be
 used, copied, transmitted, or stored only in accord with that
 written license.
  
 The following legend is applicable only to US Government
 contracts under FAR:
  
                    RESTRICTED RIGHTS LEGEND
  
 Use, reproduction and disclosure by the US Government is
 subject to restrictions as set forth in subparagraphs (a)
 and (c) of the Commercial Computer Software - Restricted
 Rights clause in FAR 52.227-19.
  
 Gaussian, Inc.
 340 Quinnipiac St., Bldg. 40, Wallingford CT 06492
  
  
 ---------------------------------------------------------------
 Warning -- This program may not be used in any manner that
 competes with the business of Gaussian, Inc. or will provide
 assistance to any competitor of Gaussian, Inc.  The licensee
 of this program is prohibited from giving any competitor of
 Gaussian, Inc. access to this program.  By using this program,
 the user acknowledges that Gaussian, Inc. is engaged in the
 business of creating and licensing software in the field of
 computational chemistry and represents and warrants to the
 licensee that it is not a competitor of Gaussian, Inc. and that
 it will not use this program in any manner prohibited above.
 ---------------------------------------------------------------
  

 Cite this work as:
 Gaussian 09, Revision C.01,
 M. J. Frisch, G. W. Trucks, H. B. Schlegel, G. E. Scuseria, 
 M. A. Robb, J. R. Cheeseman, G. Scalmani, V. Barone, B. Mennucci, 
 G. A. Petersson, H. Nakatsuji, M. Caricato, X. Li, H. P. Hratchian, 
 A. F. Izmaylov, J. Bloino, G. Zheng, J. L. Sonnenberg, M. Hada, 
 M. Ehara, K. Toyota, R. Fukuda, J. Hasegawa, M. Ishida, T. Nakajima, 
 Y. Honda, O. Kitao, H. Nakai, T. Vreven, J. A. Montgomery, Jr., 
 J. E. Peralta, F. Ogliaro, M. Bearpark, J. J. Heyd, E. Brothers, 
 K. N. Kudin, V. N. Staroverov, T. Keith, R. Kobayashi, J. Normand, 
 K. Raghavachari, A. Rendell, J. C. Burant, S. S. Iyengar, J. Tomasi, 
 M. Cossi, N. Rega, J. M. Millam, M. Klene, J. E. Knox, J. B. Cross, 
 V. Bakken, C. Adamo, J. Jaramillo, R. Gomperts, R. E. Stratmann, 
 O. Yazyev, A. J. Austin, R. Cammi, C. Pomelli, J. W. Ochterski, 
 R. L. Martin, K. Morokuma, V. G. Zakrzewski, G. A. Voth, 
 P. Salvador, J. J. Dannenberg, S. Dapprich, A. D. Daniels, 
 O. Farkas, J. B. Foresman, J. V. Ortiz, J. Cioslowski, 
 and D. J. Fox, Gaussian, Inc., Wallingford CT, 2010.
 
 ******************************************
 Gaussian 09:  EM64L-G09RevC.01 23-Sep-2011
                28-Apr-2017 
 ******************************************
 %Mem=256MB
 %NProc=48
 Will use up to   48 processors via shared memory.
 ----------------------------------------------------------------------
 #P HF/6-31G* SCF(Conver=6) NoSymm Test Pop=chelpg IOp(6/33=2) GFInput 
 GFPrint
 ----------------------------------------------------------------------
 1/38=1/1;
 2/12=2,15=1,17=6,18=5,40=1/2;
 3/5=1,6=6,7=1,11=9,16=1,24=110,25=1,30=1/1,2,3;
 4//1;
 5/5=2,6=6,38=5/2;
 6/7=2,8=2,9=2,10=2,15=8,20=3,28=1,33=2/1,2;
 99/5=1,9=1/99;
 Leave Link    1 at Fri Apr 28 13:03:25 2017, MaxMem=   33554432 cpu:       6.8
 (Enter /scratch/michal/g09/l101.exe)
 ----------------------------------------------
 MEP - Input generated by R.E.D.-III.x MOLECULE
 ----------------------------------------------
 Charge =  0 Multiplicity = 1
 Symbolic Z-Matrix:
 C                     1.75934  -1.2485   -0.061 
 H                     1.87302  -1.13149  -1.14572 
 C                     3.15083  -1.30678   0.58423 
 H                     3.72942  -2.12615   0.14692 
 H                     3.01399  -1.55097   1.65042 
 C                     3.9128   -0.00095   0.45652 
 C                     3.1871    1.27826   0.8855 
 C                     1.74681   1.2561    0.2852 
 H                     1.82144   1.44433  -0.79495 
 H                     1.16275   2.08205   0.70468 
 C                     0.97738  -0.05764   0.49245 
 H                     0.78121  -0.22408   1.56204 
 H                     0.        0.        0. 
 C                     5.17211   0.        0. 
 H                     5.63796  -0.93588  -0.30036 
 C                     6.05781   1.2064   -0.10511 
 H                     6.31015   1.40033  -1.15923 
 C                     5.48224   2.47653   0.54274 
 H                     5.696     2.40712   1.61715 
 C                     3.94308   2.53044   0.32264 
 H                     3.79652   2.49726  -0.76937 
 C                     3.35003   3.87333   0.81031 
 H                     3.3779    3.9156    1.90433 
 H                     2.2919    3.92649   0.53248 
 C                     4.06461   5.11606   0.24564 
 H                     3.90972   5.15911  -0.84154 
 H                     3.59575   6.01394   0.6651 
 C                     5.57671   5.08731   0.53567 
 C                     6.12554   3.74781  -0.04136 
 H                     5.83887   3.75492  -1.10655 
 C                     7.65602   3.92071   0. 
 H                     8.16176   3.29025  -0.73795 
 H                     8.05189   3.63242   0.97894 
 C                     7.86944   5.43618  -0.27476 
 H                     8.50378   5.88235   0.49784 
 H                     8.3797    5.61231  -1.22824 
 C                     6.45271   6.09118  -0.29197 
 H                     6.08431   5.98404  -1.32188 
 C                     5.82891   5.20198   2.05716 
 H                     5.4713    4.32344   2.59998 
 H                     6.88976   5.31495   2.29415 
 H                     5.3046    6.06812   2.47059 
 C                     6.49358   7.62685  -0.04476 
 H                     7.25053   7.98116  -0.76092 
 C                     6.98555   8.09716   1.33922 
 H                     6.21488   7.99253   2.10855 
 H                     7.25163   9.15924   1.29184 
 H                     7.87296   7.55558   1.67935 
 C                     3.10554   1.30485   2.43529 
 H                     2.46483   2.11929   2.78757 
 H                     2.68939   0.37418   2.82961 
 H                     4.09664   1.4271    2.88214 
 O                     7.3046    0.96255   0.59402 
 O                     8.03495  -0.06451  -0.14225 
 H                     8.80031   0.4516   -0.44452 
 O                     1.05227  -2.48331   0.08488 
 H                     0.92154  -2.6555    1.02799 
 C                     5.17903   8.37193  -0.38389 
 H                     4.39537   8.04923   0.31342 
 H                     5.3418    9.43807  -0.16916 
 C                     4.63976   8.25883  -1.82288 
 H                     4.41172   7.2129   -2.06537 
 H                     3.67873   8.78698  -1.85348 
 C                     5.57165   8.8332   -2.9011 
 H                     6.53058   8.2993   -2.87271 
 H                     5.80181   9.88303  -2.66109 
 C                     5.02821   8.76069  -4.34377 
 H                     4.74521   7.71468  -4.53975 
 C                     3.77967   9.63343  -4.55182 
 H                     4.00554   10.6881  -4.34705 
 H                     3.42381   9.56586  -5.58616 
 H                     2.95214   9.33625  -3.90006 
 C                     6.12325   9.14523  -5.3516 
 H                     6.4494    10.18181  -5.19709 
 H                     5.76251   9.06189  -6.38313 
 H                     7.00417   8.5009   -5.25082 
 
 NAtoms=     76 NQM=        0 NQMF=       0 NMMI=     76 NMMIF=      0
                NMic=       0 NMicF=      0.
                    Isotopes and Nuclear Properties:
 (Nuclear quadrupole moments (NQMom) in fm**2, nuclear magnetic moments (NMagM)
  in nuclear magnetons)

  Atom         1           2           3           4           5           6           7           8           9          10
 IAtWgt=          12           1          12           1           1          12          12          12           1           1
 AtmWgt=  12.0000000   1.0078250  12.0000000   1.0078250   1.0078250  12.0000000  12.0000000  12.0000000   1.0078250   1.0078250
 NucSpn=           0           1           0           1           1           0           0           0           1           1
 AtZEff=   0.0000000   0.0000000   0.0000000   0.0000000   0.0000000   0.0000000   0.0000000   0.0000000   0.0000000   0.0000000
 NQMom=    0.0000000   0.0000000   0.0000000   0.0000000   0.0000000   0.0000000   0.0000000   0.0000000   0.0000000   0.0000000
 NMagM=    0.0000000   2.7928460   0.0000000   2.7928460   2.7928460   0.0000000   0.0000000   0.0000000   2.7928460   2.7928460

  Atom        11          12          13          14          15          16          17          18          19          20
 IAtWgt=          12           1           1          12           1          12           1          12           1          12
 AtmWgt=  12.0000000   1.0078250   1.0078250  12.0000000   1.0078250  12.0000000   1.0078250  12.0000000   1.0078250  12.0000000
 NucSpn=           0           1           1           0           1           0           1           0           1           0
 AtZEff=   0.0000000   0.0000000   0.0000000   0.0000000   0.0000000   0.0000000   0.0000000   0.0000000   0.0000000   0.0000000
 NQMom=    0.0000000   0.0000000   0.0000000   0.0000000   0.0000000   0.0000000   0.0000000   0.0000000   0.0000000   0.0000000
 NMagM=    0.0000000   2.7928460   2.7928460   0.0000000   2.7928460   0.0000000   2.7928460   0.0000000   2.7928460   0.0000000

  Atom        21          22          23          24          25          26          27          28          29          30
 IAtWgt=           1          12           1           1          12           1           1          12          12           1
 AtmWgt=   1.0078250  12.0000000   1.0078250   1.0078250  12.0000000   1.0078250   1.0078250  12.0000000  12.0000000   1.0078250
 NucSpn=           1           0           1           1           0           1           1           0           0           1
 AtZEff=   0.0000000   0.0000000   0.0000000   0.0000000   0.0000000   0.0000000   0.0000000   0.0000000   0.0000000   0.0000000
 NQMom=    0.0000000   0.0000000   0.0000000   0.0000000   0.0000000   0.0000000   0.0000000   0.0000000   0.0000000   0.0000000
 NMagM=    2.7928460   0.0000000   2.7928460   2.7928460   0.0000000   2.7928460   2.7928460   0.0000000   0.0000000   2.7928460

  Atom        31          32          33          34          35          36          37          38          39          40
 IAtWgt=          12           1           1          12           1           1          12           1          12           1
 AtmWgt=  12.0000000   1.0078250   1.0078250  12.0000000   1.0078250   1.0078250  12.0000000   1.0078250  12.0000000   1.0078250
 NucSpn=           0           1           1           0           1           1           0           1           0           1
 AtZEff=   0.0000000   0.0000000   0.0000000   0.0000000   0.0000000   0.0000000   0.0000000   0.0000000   0.0000000   0.0000000
 NQMom=    0.0000000   0.0000000   0.0000000   0.0000000   0.0000000   0.0000000   0.0000000   0.0000000   0.0000000   0.0000000
 NMagM=    0.0000000   2.7928460   2.7928460   0.0000000   2.7928460   2.7928460   0.0000000   2.7928460   0.0000000   2.7928460

  Atom        41          42          43          44          45          46          47          48          49          50
 IAtWgt=           1           1          12           1          12           1           1           1          12           1
 AtmWgt=   1.0078250   1.0078250  12.0000000   1.0078250  12.0000000   1.0078250   1.0078250   1.0078250  12.0000000   1.0078250
 NucSpn=           1           1           0           1           0           1           1           1           0           1
 AtZEff=   0.0000000   0.0000000   0.0000000   0.0000000   0.0000000   0.0000000   0.0000000   0.0000000   0.0000000   0.0000000
 NQMom=    0.0000000   0.0000000   0.0000000   0.0000000   0.0000000   0.0000000   0.0000000   0.0000000   0.0000000   0.0000000
 NMagM=    2.7928460   2.7928460   0.0000000   2.7928460   0.0000000   2.7928460   2.7928460   2.7928460   0.0000000   2.7928460

  Atom        51          52          53          54          55          56          57          58          59          60
 IAtWgt=           1           1          16          16           1          16           1          12           1           1
 AtmWgt=   1.0078250   1.0078250  15.9949146  15.9949146   1.0078250  15.9949146   1.0078250  12.0000000   1.0078250   1.0078250
 NucSpn=           1           1           0           0           1           0           1           0           1           1
 AtZEff=   0.0000000   0.0000000   0.0000000   0.0000000   0.0000000   0.0000000   0.0000000   0.0000000   0.0000000   0.0000000
 NQMom=    0.0000000   0.0000000   0.0000000   0.0000000   0.0000000   0.0000000   0.0000000   0.0000000   0.0000000   0.0000000
 NMagM=    2.7928460   2.7928460   0.0000000   0.0000000   2.7928460   0.0000000   2.7928460   0.0000000   2.7928460   2.7928460

  Atom        61          62          63          64          65          66          67          68          69          70
 IAtWgt=          12           1           1          12           1           1          12           1          12           1
 AtmWgt=  12.0000000   1.0078250   1.0078250  12.0000000   1.0078250   1.0078250  12.0000000   1.0078250  12.0000000   1.0078250
 NucSpn=           0           1           1           0           1           1           0           1           0           1
 AtZEff=   0.0000000   0.0000000   0.0000000   0.0000000   0.0000000   0.0000000   0.0000000   0.0000000   0.0000000   0.0000000
 NQMom=    0.0000000   0.0000000   0.0000000   0.0000000   0.0000000   0.0000000   0.0000000   0.0000000   0.0000000   0.0000000
 NMagM=    0.0000000   2.7928460   2.7928460   0.0000000   2.7928460   2.7928460   0.0000000   2.7928460   0.0000000   2.7928460

  Atom        71          72          73          74          75          76
 IAtWgt=           1           1          12           1           1           1
 AtmWgt=   1.0078250   1.0078250  12.0000000   1.0078250   1.0078250   1.0078250
 NucSpn=           1           1           0           1           1           1
 AtZEff=   0.0000000   0.0000000   0.0000000   0.0000000   0.0000000   0.0000000
 NQMom=    0.0000000   0.0000000   0.0000000   0.0000000   0.0000000   0.0000000
 NMagM=    2.7928460   2.7928460   0.0000000   2.7928460   2.7928460   2.7928460
 Leave Link  101 at Fri Apr 28 13:03:25 2017, MaxMem=   33554432 cpu:      12.2
 (Enter /scratch/michal/g09/l202.exe)
 Symmetry turned off by external request.
 Stoichiometry    C27H46O3
 Framework group  C1[X(C27H46O3)]
 Deg. of freedom   222
 Full point group                 C1      NOp   1
                          Input orientation:                          
 ---------------------------------------------------------------------
 Center     Atomic      Atomic             Coordinates (Angstroms)
 Number     Number       Type             X           Y           Z
 ---------------------------------------------------------------------
      1          6           0        1.759341   -1.248501   -0.060995
      2          1           0        1.873016   -1.131492   -1.145719
      3          6           0        3.150831   -1.306784    0.584228
      4          1           0        3.729421   -2.126150    0.146924
      5          1           0        3.013991   -1.550974    1.650420
      6          6           0        3.912799   -0.000951    0.456523
      7          6           0        3.187103    1.278262    0.885497
      8          6           0        1.746811    1.256102    0.285198
      9          1           0        1.821442    1.444326   -0.794947
     10          1           0        1.162751    2.082050    0.704679
     11          6           0        0.977379   -0.057640    0.492453
     12          1           0        0.781214   -0.224082    1.562042
     13          1           0        0.000000    0.000000    0.000000
     14          6           0        5.172107    0.000000    0.000000
     15          1           0        5.637960   -0.935879   -0.300364
     16          6           0        6.057812    1.206404   -0.105112
     17          1           0        6.310147    1.400332   -1.159235
     18          6           0        5.482238    2.476531    0.542741
     19          1           0        5.696000    2.407118    1.617147
     20          6           0        3.943078    2.530440    0.322638
     21          1           0        3.796521    2.497257   -0.769370
     22          6           0        3.350032    3.873328    0.810306
     23          1           0        3.377898    3.915604    1.904334
     24          1           0        2.291901    3.926486    0.532484
     25          6           0        4.064612    5.116060    0.245639
     26          1           0        3.909722    5.159112   -0.841536
     27          1           0        3.595748    6.013937    0.665096
     28          6           0        5.576709    5.087312    0.535674
     29          6           0        6.125541    3.747810   -0.041361
     30          1           0        5.838869    3.754918   -1.106547
     31          6           0        7.656018    3.920711    0.000000
     32          1           0        8.161761    3.290247   -0.737947
     33          1           0        8.051885    3.632416    0.978935
     34          6           0        7.869442    5.436179   -0.274760
     35          1           0        8.503783    5.882346    0.497838
     36          1           0        8.379697    5.612312   -1.228245
     37          6           0        6.452707    6.091182   -0.291972
     38          1           0        6.084312    5.984036   -1.321879
     39          6           0        5.828914    5.201979    2.057160
     40          1           0        5.471301    4.323439    2.599978
     41          1           0        6.889759    5.314950    2.294150
     42          1           0        5.304602    6.068119    2.470593
     43          6           0        6.493577    7.626853   -0.044758
     44          1           0        7.250534    7.981157   -0.760924
     45          6           0        6.985550    8.097161    1.339219
     46          1           0        6.214884    7.992526    2.108547
     47          1           0        7.251633    9.159237    1.291837
     48          1           0        7.872959    7.555585    1.679350
     49          6           0        3.105542    1.304846    2.435286
     50          1           0        2.464834    2.119293    2.787573
     51          1           0        2.689393    0.374184    2.829613
     52          1           0        4.096643    1.427104    2.882136
     53          8           0        7.304599    0.962548    0.594019
     54          8           0        8.034950   -0.064513   -0.142250
     55          1           0        8.800311    0.451604   -0.444523
     56          8           0        1.052268   -2.483311    0.084883
     57          1           0        0.921543   -2.655497    1.027990
     58          6           0        5.179027    8.371930   -0.383885
     59          1           0        4.395371    8.049229    0.313417
     60          1           0        5.341798    9.438068   -0.169163
     61          6           0        4.639765    8.258834   -1.822880
     62          1           0        4.411720    7.212898   -2.065367
     63          1           0        3.678731    8.786984   -1.853476
     64          6           0        5.571649    8.833196   -2.901096
     65          1           0        6.530580    8.299301   -2.872712
     66          1           0        5.801805    9.883027   -2.661088
     67          6           0        5.028211    8.760686   -4.343773
     68          1           0        4.745212    7.714679   -4.539750
     69          6           0        3.779670    9.633428   -4.551816
     70          1           0        4.005539   10.688102   -4.347054
     71          1           0        3.423813    9.565856   -5.586163
     72          1           0        2.952144    9.336251   -3.900060
     73          6           0        6.123246    9.145227   -5.351604
     74          1           0        6.449401   10.181808   -5.197091
     75          1           0        5.762509    9.061894   -6.383130
     76          1           0        7.004169    8.500898   -5.250824
 ---------------------------------------------------------------------
 Rotational constants (GHZ):      0.2250171      0.0699612      0.0636667
 Leave Link  202 at Fri Apr 28 13:03:25 2017, MaxMem=   33554432 cpu:       2.3
 (Enter /scratch/michal/g09/l301.exe)
 Standard basis: 6-31G(d) (6D, 7F)
 Ernie: Thresh=  0.10000D-02 Tol=  0.10000D-05 Strict=F.
 AO basis set in the form of general basis input (Overlap normalization):
      1 0
 S   6 1.00       0.000000000000
      0.3047524880D+04  0.1834737132D-02
      0.4573695180D+03  0.1403732281D-01
      0.1039486850D+03  0.6884262226D-01
      0.2921015530D+02  0.2321844432D+00
      0.9286662960D+01  0.4679413484D+00
      0.3163926960D+01  0.3623119853D+00
 SP   3 1.00       0.000000000000
      0.7868272350D+01 -0.1193324198D+00  0.6899906659D-01
      0.1881288540D+01 -0.1608541517D+00  0.3164239610D+00
      0.5442492580D+00  0.1143456438D+01  0.7443082909D+00
 SP   1 1.00       0.000000000000
      0.1687144782D+00  0.1000000000D+01  0.1000000000D+01
 D   1 1.00       0.000000000000
      0.8000000000D+00  0.1000000000D+01
 ****
      2 0
 S   3 1.00       0.000000000000
      0.1873113696D+02  0.3349460434D-01
      0.2825394365D+01  0.2347269535D+00
      0.6401216923D+00  0.8137573261D+00
 S   1 1.00       0.000000000000
      0.1612777588D+00  0.1000000000D+01
 ****
      3 0
 S   6 1.00       0.000000000000
      0.3047524880D+04  0.1834737132D-02
      0.4573695180D+03  0.1403732281D-01
      0.1039486850D+03  0.6884262226D-01
      0.2921015530D+02  0.2321844432D+00
      0.9286662960D+01  0.4679413484D+00
      0.3163926960D+01  0.3623119853D+00
 SP   3 1.00       0.000000000000
      0.7868272350D+01 -0.1193324198D+00  0.6899906659D-01
      0.1881288540D+01 -0.1608541517D+00  0.3164239610D+00
      0.5442492580D+00  0.1143456438D+01  0.7443082909D+00
 SP   1 1.00       0.000000000000
      0.1687144782D+00  0.1000000000D+01  0.1000000000D+01
 D   1 1.00       0.000000000000
      0.8000000000D+00  0.1000000000D+01
 ****
      4 0
 S   3 1.00       0.000000000000
      0.1873113696D+02  0.3349460434D-01
      0.2825394365D+01  0.2347269535D+00
      0.6401216923D+00  0.8137573261D+00
 S   1 1.00       0.000000000000
      0.1612777588D+00  0.1000000000D+01
 ****
      5 0
 S   3 1.00       0.000000000000
      0.1873113696D+02  0.3349460434D-01
      0.2825394365D+01  0.2347269535D+00
      0.6401216923D+00  0.8137573261D+00
 S   1 1.00       0.000000000000
      0.1612777588D+00  0.1000000000D+01
 ****
      6 0
 S   6 1.00       0.000000000000
      0.3047524880D+04  0.1834737132D-02
      0.4573695180D+03  0.1403732281D-01
      0.1039486850D+03  0.6884262226D-01
      0.2921015530D+02  0.2321844432D+00
      0.9286662960D+01  0.4679413484D+00
      0.3163926960D+01  0.3623119853D+00
 SP   3 1.00       0.000000000000
      0.7868272350D+01 -0.1193324198D+00  0.6899906659D-01
      0.1881288540D+01 -0.1608541517D+00  0.3164239610D+00
      0.5442492580D+00  0.1143456438D+01  0.7443082909D+00
 SP   1 1.00       0.000000000000
      0.1687144782D+00  0.1000000000D+01  0.1000000000D+01
 D   1 1.00       0.000000000000
      0.8000000000D+00  0.1000000000D+01
 ****
      7 0
 S   6 1.00       0.000000000000
      0.3047524880D+04  0.1834737132D-02
      0.4573695180D+03  0.1403732281D-01
      0.1039486850D+03  0.6884262226D-01
      0.2921015530D+02  0.2321844432D+00
      0.9286662960D+01  0.4679413484D+00
      0.3163926960D+01  0.3623119853D+00
 SP   3 1.00       0.000000000000
      0.7868272350D+01 -0.1193324198D+00  0.6899906659D-01
      0.1881288540D+01 -0.1608541517D+00  0.3164239610D+00
      0.5442492580D+00  0.1143456438D+01  0.7443082909D+00
 SP   1 1.00       0.000000000000
      0.1687144782D+00  0.1000000000D+01  0.1000000000D+01
 D   1 1.00       0.000000000000
      0.8000000000D+00  0.1000000000D+01
 ****
      8 0
 S   6 1.00       0.000000000000
      0.3047524880D+04  0.1834737132D-02
      0.4573695180D+03  0.1403732281D-01
      0.1039486850D+03  0.6884262226D-01
      0.2921015530D+02  0.2321844432D+00
      0.9286662960D+01  0.4679413484D+00
      0.3163926960D+01  0.3623119853D+00
 SP   3 1.00       0.000000000000
      0.7868272350D+01 -0.1193324198D+00  0.6899906659D-01
      0.1881288540D+01 -0.1608541517D+00  0.3164239610D+00
      0.5442492580D+00  0.1143456438D+01  0.7443082909D+00
 SP   1 1.00       0.000000000000
      0.1687144782D+00  0.1000000000D+01  0.1000000000D+01
 D   1 1.00       0.000000000000
      0.8000000000D+00  0.1000000000D+01
 ****
      9 0
 S   3 1.00       0.000000000000
      0.1873113696D+02  0.3349460434D-01
      0.2825394365D+01  0.2347269535D+00
      0.6401216923D+00  0.8137573261D+00
 S   1 1.00       0.000000000000
      0.1612777588D+00  0.1000000000D+01
 ****
     10 0
 S   3 1.00       0.000000000000
      0.1873113696D+02  0.3349460434D-01
      0.2825394365D+01  0.2347269535D+00
      0.6401216923D+00  0.8137573261D+00
 S   1 1.00       0.000000000000
      0.1612777588D+00  0.1000000000D+01
 ****
     11 0
 S   6 1.00       0.000000000000
      0.3047524880D+04  0.1834737132D-02
      0.4573695180D+03  0.1403732281D-01
      0.1039486850D+03  0.6884262226D-01
      0.2921015530D+02  0.2321844432D+00
      0.9286662960D+01  0.4679413484D+00
      0.3163926960D+01  0.3623119853D+00
 SP   3 1.00       0.000000000000
      0.7868272350D+01 -0.1193324198D+00  0.6899906659D-01
      0.1881288540D+01 -0.1608541517D+00  0.3164239610D+00
      0.5442492580D+00  0.1143456438D+01  0.7443082909D+00
 SP   1 1.00       0.000000000000
      0.1687144782D+00  0.1000000000D+01  0.1000000000D+01
 D   1 1.00       0.000000000000
      0.8000000000D+00  0.1000000000D+01
 ****
     12 0
 S   3 1.00       0.000000000000
      0.1873113696D+02  0.3349460434D-01
      0.2825394365D+01  0.2347269535D+00
      0.6401216923D+00  0.8137573261D+00
 S   1 1.00       0.000000000000
      0.1612777588D+00  0.1000000000D+01
 ****
     13 0
 S   3 1.00       0.000000000000
      0.1873113696D+02  0.3349460434D-01
      0.2825394365D+01  0.2347269535D+00
      0.6401216923D+00  0.8137573261D+00
 S   1 1.00       0.000000000000
      0.1612777588D+00  0.1000000000D+01
 ****
     14 0
 S   6 1.00       0.000000000000
      0.3047524880D+04  0.1834737132D-02
      0.4573695180D+03  0.1403732281D-01
      0.1039486850D+03  0.6884262226D-01
      0.2921015530D+02  0.2321844432D+00
      0.9286662960D+01  0.4679413484D+00
      0.3163926960D+01  0.3623119853D+00
 SP   3 1.00       0.000000000000
      0.7868272350D+01 -0.1193324198D+00  0.6899906659D-01
      0.1881288540D+01 -0.1608541517D+00  0.3164239610D+00
      0.5442492580D+00  0.1143456438D+01  0.7443082909D+00
 SP   1 1.00       0.000000000000
      0.1687144782D+00  0.1000000000D+01  0.1000000000D+01
 D   1 1.00       0.000000000000
      0.8000000000D+00  0.1000000000D+01
 ****
     15 0
 S   3 1.00       0.000000000000
      0.1873113696D+02  0.3349460434D-01
      0.2825394365D+01  0.2347269535D+00
      0.6401216923D+00  0.8137573261D+00
 S   1 1.00       0.000000000000
      0.1612777588D+00  0.1000000000D+01
 ****
     16 0
 S   6 1.00       0.000000000000
      0.3047524880D+04  0.1834737132D-02
      0.4573695180D+03  0.1403732281D-01
      0.1039486850D+03  0.6884262226D-01
      0.2921015530D+02  0.2321844432D+00
      0.9286662960D+01  0.4679413484D+00
      0.3163926960D+01  0.3623119853D+00
 SP   3 1.00       0.000000000000
      0.7868272350D+01 -0.1193324198D+00  0.6899906659D-01
      0.1881288540D+01 -0.1608541517D+00  0.3164239610D+00
      0.5442492580D+00  0.1143456438D+01  0.7443082909D+00
 SP   1 1.00       0.000000000000
      0.1687144782D+00  0.1000000000D+01  0.1000000000D+01
 D   1 1.00       0.000000000000
      0.8000000000D+00  0.1000000000D+01
 ****
     17 0
 S   3 1.00       0.000000000000
      0.1873113696D+02  0.3349460434D-01
      0.2825394365D+01  0.2347269535D+00
      0.6401216923D+00  0.8137573261D+00
 S   1 1.00       0.000000000000
      0.1612777588D+00  0.1000000000D+01
 ****
     18 0
 S   6 1.00       0.000000000000
      0.3047524880D+04  0.1834737132D-02
      0.4573695180D+03  0.1403732281D-01
      0.1039486850D+03  0.6884262226D-01
      0.2921015530D+02  0.2321844432D+00
      0.9286662960D+01  0.4679413484D+00
      0.3163926960D+01  0.3623119853D+00
 SP   3 1.00       0.000000000000
      0.7868272350D+01 -0.1193324198D+00  0.6899906659D-01
      0.1881288540D+01 -0.1608541517D+00  0.3164239610D+00
      0.5442492580D+00  0.1143456438D+01  0.7443082909D+00
 SP   1 1.00       0.000000000000
      0.1687144782D+00  0.1000000000D+01  0.1000000000D+01
 D   1 1.00       0.000000000000
      0.8000000000D+00  0.1000000000D+01
 ****
     19 0
 S   3 1.00       0.000000000000
      0.1873113696D+02  0.3349460434D-01
      0.2825394365D+01  0.2347269535D+00
      0.6401216923D+00  0.8137573261D+00
 S   1 1.00       0.000000000000
      0.1612777588D+00  0.1000000000D+01
 ****
     20 0
 S   6 1.00       0.000000000000
      0.3047524880D+04  0.1834737132D-02
      0.4573695180D+03  0.1403732281D-01
      0.1039486850D+03  0.6884262226D-01
      0.2921015530D+02  0.2321844432D+00
      0.9286662960D+01  0.4679413484D+00
      0.3163926960D+01  0.3623119853D+00
 SP   3 1.00       0.000000000000
      0.7868272350D+01 -0.1193324198D+00  0.6899906659D-01
      0.1881288540D+01 -0.1608541517D+00  0.3164239610D+00
      0.5442492580D+00  0.1143456438D+01  0.7443082909D+00
 SP   1 1.00       0.000000000000
      0.1687144782D+00  0.1000000000D+01  0.1000000000D+01
 D   1 1.00       0.000000000000
      0.8000000000D+00  0.1000000000D+01
 ****
     21 0
 S   3 1.00       0.000000000000
      0.1873113696D+02  0.3349460434D-01
      0.2825394365D+01  0.2347269535D+00
      0.6401216923D+00  0.8137573261D+00
 S   1 1.00       0.000000000000
      0.1612777588D+00  0.1000000000D+01
 ****
     22 0
 S   6 1.00       0.000000000000
      0.3047524880D+04  0.1834737132D-02
      0.4573695180D+03  0.1403732281D-01
      0.1039486850D+03  0.6884262226D-01
      0.2921015530D+02  0.2321844432D+00
      0.9286662960D+01  0.4679413484D+00
      0.3163926960D+01  0.3623119853D+00
 SP   3 1.00       0.000000000000
      0.7868272350D+01 -0.1193324198D+00  0.6899906659D-01
      0.1881288540D+01 -0.1608541517D+00  0.3164239610D+00
      0.5442492580D+00  0.1143456438D+01  0.7443082909D+00
 SP   1 1.00       0.000000000000
      0.1687144782D+00  0.1000000000D+01  0.1000000000D+01
 D   1 1.00       0.000000000000
      0.8000000000D+00  0.1000000000D+01
 ****
     23 0
 S   3 1.00       0.000000000000
      0.1873113696D+02  0.3349460434D-01
      0.2825394365D+01  0.2347269535D+00
      0.6401216923D+00  0.8137573261D+00
 S   1 1.00       0.000000000000
      0.1612777588D+00  0.1000000000D+01
 ****
     24 0
 S   3 1.00       0.000000000000
      0.1873113696D+02  0.3349460434D-01
      0.2825394365D+01  0.2347269535D+00
      0.6401216923D+00  0.8137573261D+00
 S   1 1.00       0.000000000000
      0.1612777588D+00  0.1000000000D+01
 ****
     25 0
 S   6 1.00       0.000000000000
      0.3047524880D+04  0.1834737132D-02
      0.4573695180D+03  0.1403732281D-01
      0.1039486850D+03  0.6884262226D-01
      0.2921015530D+02  0.2321844432D+00
      0.9286662960D+01  0.4679413484D+00
      0.3163926960D+01  0.3623119853D+00
 SP   3 1.00       0.000000000000
      0.7868272350D+01 -0.1193324198D+00  0.6899906659D-01
      0.1881288540D+01 -0.1608541517D+00  0.3164239610D+00
      0.5442492580D+00  0.1143456438D+01  0.7443082909D+00
 SP   1 1.00       0.000000000000
      0.1687144782D+00  0.1000000000D+01  0.1000000000D+01
 D   1 1.00       0.000000000000
      0.8000000000D+00  0.1000000000D+01
 ****
     26 0
 S   3 1.00       0.000000000000
      0.1873113696D+02  0.3349460434D-01
      0.2825394365D+01  0.2347269535D+00
      0.6401216923D+00  0.8137573261D+00
 S   1 1.00       0.000000000000
      0.1612777588D+00  0.1000000000D+01
 ****
     27 0
 S   3 1.00       0.000000000000
      0.1873113696D+02  0.3349460434D-01
      0.2825394365D+01  0.2347269535D+00
      0.6401216923D+00  0.8137573261D+00
 S   1 1.00       0.000000000000
      0.1612777588D+00  0.1000000000D+01
 ****
     28 0
 S   6 1.00       0.000000000000
      0.3047524880D+04  0.1834737132D-02
      0.4573695180D+03  0.1403732281D-01
      0.1039486850D+03  0.6884262226D-01
      0.2921015530D+02  0.2321844432D+00
      0.9286662960D+01  0.4679413484D+00
      0.3163926960D+01  0.3623119853D+00
 SP   3 1.00       0.000000000000
      0.7868272350D+01 -0.1193324198D+00  0.6899906659D-01
      0.1881288540D+01 -0.1608541517D+00  0.3164239610D+00
      0.5442492580D+00  0.1143456438D+01  0.7443082909D+00
 SP   1 1.00       0.000000000000
      0.1687144782D+00  0.1000000000D+01  0.1000000000D+01
 D   1 1.00       0.000000000000
      0.8000000000D+00  0.1000000000D+01
 ****
     29 0
 S   6 1.00       0.000000000000
      0.3047524880D+04  0.1834737132D-02
      0.4573695180D+03  0.1403732281D-01
      0.1039486850D+03  0.6884262226D-01
      0.2921015530D+02  0.2321844432D+00
      0.9286662960D+01  0.4679413484D+00
      0.3163926960D+01  0.3623119853D+00
 SP   3 1.00       0.000000000000
      0.7868272350D+01 -0.1193324198D+00  0.6899906659D-01
      0.1881288540D+01 -0.1608541517D+00  0.3164239610D+00
      0.5442492580D+00  0.1143456438D+01  0.7443082909D+00
 SP   1 1.00       0.000000000000
      0.1687144782D+00  0.1000000000D+01  0.1000000000D+01
 D   1 1.00       0.000000000000
      0.8000000000D+00  0.1000000000D+01
 ****
     30 0
 S   3 1.00       0.000000000000
      0.1873113696D+02  0.3349460434D-01
      0.2825394365D+01  0.2347269535D+00
      0.6401216923D+00  0.8137573261D+00
 S   1 1.00       0.000000000000
      0.1612777588D+00  0.1000000000D+01
 ****
     31 0
 S   6 1.00       0.000000000000
      0.3047524880D+04  0.1834737132D-02
      0.4573695180D+03  0.1403732281D-01
      0.1039486850D+03  0.6884262226D-01
      0.2921015530D+02  0.2321844432D+00
      0.9286662960D+01  0.4679413484D+00
      0.3163926960D+01  0.3623119853D+00
 SP   3 1.00       0.000000000000
      0.7868272350D+01 -0.1193324198D+00  0.6899906659D-01
      0.1881288540D+01 -0.1608541517D+00  0.3164239610D+00
      0.5442492580D+00  0.1143456438D+01  0.7443082909D+00
 SP   1 1.00       0.000000000000
      0.1687144782D+00  0.1000000000D+01  0.1000000000D+01
 D   1 1.00       0.000000000000
      0.8000000000D+00  0.1000000000D+01
 ****
     32 0
 S   3 1.00       0.000000000000
      0.1873113696D+02  0.3349460434D-01
      0.2825394365D+01  0.2347269535D+00
      0.6401216923D+00  0.8137573261D+00
 S   1 1.00       0.000000000000
      0.1612777588D+00  0.1000000000D+01
 ****
     33 0
 S   3 1.00       0.000000000000
      0.1873113696D+02  0.3349460434D-01
      0.2825394365D+01  0.2347269535D+00
      0.6401216923D+00  0.8137573261D+00
 S   1 1.00       0.000000000000
      0.1612777588D+00  0.1000000000D+01
 ****
     34 0
 S   6 1.00       0.000000000000
      0.3047524880D+04  0.1834737132D-02
      0.4573695180D+03  0.1403732281D-01
      0.1039486850D+03  0.6884262226D-01
      0.2921015530D+02  0.2321844432D+00
      0.9286662960D+01  0.4679413484D+00
      0.3163926960D+01  0.3623119853D+00
 SP   3 1.00       0.000000000000
      0.7868272350D+01 -0.1193324198D+00  0.6899906659D-01
      0.1881288540D+01 -0.1608541517D+00  0.3164239610D+00
      0.5442492580D+00  0.1143456438D+01  0.7443082909D+00
 SP   1 1.00       0.000000000000
      0.1687144782D+00  0.1000000000D+01  0.1000000000D+01
 D   1 1.00       0.000000000000
      0.8000000000D+00  0.1000000000D+01
 ****
     35 0
 S   3 1.00       0.000000000000
      0.1873113696D+02  0.3349460434D-01
      0.2825394365D+01  0.2347269535D+00
      0.6401216923D+00  0.8137573261D+00
 S   1 1.00       0.000000000000
      0.1612777588D+00  0.1000000000D+01
 ****
     36 0
 S   3 1.00       0.000000000000
      0.1873113696D+02  0.3349460434D-01
      0.2825394365D+01  0.2347269535D+00
      0.6401216923D+00  0.8137573261D+00
 S   1 1.00       0.000000000000
      0.1612777588D+00  0.1000000000D+01
 ****
     37 0
 S   6 1.00       0.000000000000
      0.3047524880D+04  0.1834737132D-02
      0.4573695180D+03  0.1403732281D-01
      0.1039486850D+03  0.6884262226D-01
      0.2921015530D+02  0.2321844432D+00
      0.9286662960D+01  0.4679413484D+00
      0.3163926960D+01  0.3623119853D+00
 SP   3 1.00       0.000000000000
      0.7868272350D+01 -0.1193324198D+00  0.6899906659D-01
      0.1881288540D+01 -0.1608541517D+00  0.3164239610D+00
      0.5442492580D+00  0.1143456438D+01  0.7443082909D+00
 SP   1 1.00       0.000000000000
      0.1687144782D+00  0.1000000000D+01  0.1000000000D+01
 D   1 1.00       0.000000000000
      0.8000000000D+00  0.1000000000D+01
 ****
     38 0
 S   3 1.00       0.000000000000
      0.1873113696D+02  0.3349460434D-01
      0.2825394365D+01  0.2347269535D+00
      0.6401216923D+00  0.8137573261D+00
 S   1 1.00       0.000000000000
      0.1612777588D+00  0.1000000000D+01
 ****
     39 0
 S   6 1.00       0.000000000000
      0.3047524880D+04  0.1834737132D-02
      0.4573695180D+03  0.1403732281D-01
      0.1039486850D+03  0.6884262226D-01
      0.2921015530D+02  0.2321844432D+00
      0.9286662960D+01  0.4679413484D+00
      0.3163926960D+01  0.3623119853D+00
 SP   3 1.00       0.000000000000
      0.7868272350D+01 -0.1193324198D+00  0.6899906659D-01
      0.1881288540D+01 -0.1608541517D+00  0.3164239610D+00
      0.5442492580D+00  0.1143456438D+01  0.7443082909D+00
 SP   1 1.00       0.000000000000
      0.1687144782D+00  0.1000000000D+01  0.1000000000D+01
 D   1 1.00       0.000000000000
      0.8000000000D+00  0.1000000000D+01
 ****
     40 0
 S   3 1.00       0.000000000000
      0.1873113696D+02  0.3349460434D-01
      0.2825394365D+01  0.2347269535D+00
      0.6401216923D+00  0.8137573261D+00
 S   1 1.00       0.000000000000
      0.1612777588D+00  0.1000000000D+01
 ****
     41 0
 S   3 1.00       0.000000000000
      0.1873113696D+02  0.3349460434D-01
      0.2825394365D+01  0.2347269535D+00
      0.6401216923D+00  0.8137573261D+00
 S   1 1.00       0.000000000000
      0.1612777588D+00  0.1000000000D+01
 ****
     42 0
 S   3 1.00       0.000000000000
      0.1873113696D+02  0.3349460434D-01
      0.2825394365D+01  0.2347269535D+00
      0.6401216923D+00  0.8137573261D+00
 S   1 1.00       0.000000000000
      0.1612777588D+00  0.1000000000D+01
 ****
     43 0
 S   6 1.00       0.000000000000
      0.3047524880D+04  0.1834737132D-02
      0.4573695180D+03  0.1403732281D-01
      0.1039486850D+03  0.6884262226D-01
      0.2921015530D+02  0.2321844432D+00
      0.9286662960D+01  0.4679413484D+00
      0.3163926960D+01  0.3623119853D+00
 SP   3 1.00       0.000000000000
      0.7868272350D+01 -0.1193324198D+00  0.6899906659D-01
      0.1881288540D+01 -0.1608541517D+00  0.3164239610D+00
      0.5442492580D+00  0.1143456438D+01  0.7443082909D+00
 SP   1 1.00       0.000000000000
      0.1687144782D+00  0.1000000000D+01  0.1000000000D+01
 D   1 1.00       0.000000000000
      0.8000000000D+00  0.1000000000D+01
 ****
     44 0
 S   3 1.00       0.000000000000
      0.1873113696D+02  0.3349460434D-01
      0.2825394365D+01  0.2347269535D+00
      0.6401216923D+00  0.8137573261D+00
 S   1 1.00       0.000000000000
      0.1612777588D+00  0.1000000000D+01
 ****
     45 0
 S   6 1.00       0.000000000000
      0.3047524880D+04  0.1834737132D-02
      0.4573695180D+03  0.1403732281D-01
      0.1039486850D+03  0.6884262226D-01
      0.2921015530D+02  0.2321844432D+00
      0.9286662960D+01  0.4679413484D+00
      0.3163926960D+01  0.3623119853D+00
 SP   3 1.00       0.000000000000
      0.7868272350D+01 -0.1193324198D+00  0.6899906659D-01
      0.1881288540D+01 -0.1608541517D+00  0.3164239610D+00
      0.5442492580D+00  0.1143456438D+01  0.7443082909D+00
 SP   1 1.00       0.000000000000
      0.1687144782D+00  0.1000000000D+01  0.1000000000D+01
 D   1 1.00       0.000000000000
      0.8000000000D+00  0.1000000000D+01
 ****
     46 0
 S   3 1.00       0.000000000000
      0.1873113696D+02  0.3349460434D-01
      0.2825394365D+01  0.2347269535D+00
      0.6401216923D+00  0.8137573261D+00
 S   1 1.00       0.000000000000
      0.1612777588D+00  0.1000000000D+01
 ****
     47 0
 S   3 1.00       0.000000000000
      0.1873113696D+02  0.3349460434D-01
      0.2825394365D+01  0.2347269535D+00
      0.6401216923D+00  0.8137573261D+00
 S   1 1.00       0.000000000000
      0.1612777588D+00  0.1000000000D+01
 ****
     48 0
 S   3 1.00       0.000000000000
      0.1873113696D+02  0.3349460434D-01
      0.2825394365D+01  0.2347269535D+00
      0.6401216923D+00  0.8137573261D+00
 S   1 1.00       0.000000000000
      0.1612777588D+00  0.1000000000D+01
 ****
     49 0
 S   6 1.00       0.000000000000
      0.3047524880D+04  0.1834737132D-02
      0.4573695180D+03  0.1403732281D-01
      0.1039486850D+03  0.6884262226D-01
      0.2921015530D+02  0.2321844432D+00
      0.9286662960D+01  0.4679413484D+00
      0.3163926960D+01  0.3623119853D+00
 SP   3 1.00       0.000000000000
      0.7868272350D+01 -0.1193324198D+00  0.6899906659D-01
      0.1881288540D+01 -0.1608541517D+00  0.3164239610D+00
      0.5442492580D+00  0.1143456438D+01  0.7443082909D+00
 SP   1 1.00       0.000000000000
      0.1687144782D+00  0.1000000000D+01  0.1000000000D+01
 D   1 1.00       0.000000000000
      0.8000000000D+00  0.1000000000D+01
 ****
     50 0
 S   3 1.00       0.000000000000
      0.1873113696D+02  0.3349460434D-01
      0.2825394365D+01  0.2347269535D+00
      0.6401216923D+00  0.8137573261D+00
 S   1 1.00       0.000000000000
      0.1612777588D+00  0.1000000000D+01
 ****
     51 0
 S   3 1.00       0.000000000000
      0.1873113696D+02  0.3349460434D-01
      0.2825394365D+01  0.2347269535D+00
      0.6401216923D+00  0.8137573261D+00
 S   1 1.00       0.000000000000
      0.1612777588D+00  0.1000000000D+01
 ****
     52 0
 S   3 1.00       0.000000000000
      0.1873113696D+02  0.3349460434D-01
      0.2825394365D+01  0.2347269535D+00
      0.6401216923D+00  0.8137573261D+00
 S   1 1.00       0.000000000000
      0.1612777588D+00  0.1000000000D+01
 ****
     53 0
 S   6 1.00       0.000000000000
      0.5484671660D+04  0.1831074430D-02
      0.8252349460D+03  0.1395017220D-01
      0.1880469580D+03  0.6844507810D-01
      0.5296450000D+02  0.2327143360D+00
      0.1689757040D+02  0.4701928980D+00
      0.5799635340D+01  0.3585208530D+00
 SP   3 1.00       0.000000000000
      0.1553961625D+02 -0.1107775495D+00  0.7087426823D-01
      0.3599933586D+01 -0.1480262627D+00  0.3397528391D+00
      0.1013761750D+01  0.1130767015D+01  0.7271585773D+00
 SP   1 1.00       0.000000000000
      0.2700058226D+00  0.1000000000D+01  0.1000000000D+01
 D   1 1.00       0.000000000000
      0.8000000000D+00  0.1000000000D+01
 ****
     54 0
 S   6 1.00       0.000000000000
      0.5484671660D+04  0.1831074430D-02
      0.8252349460D+03  0.1395017220D-01
      0.1880469580D+03  0.6844507810D-01
      0.5296450000D+02  0.2327143360D+00
      0.1689757040D+02  0.4701928980D+00
      0.5799635340D+01  0.3585208530D+00
 SP   3 1.00       0.000000000000
      0.1553961625D+02 -0.1107775495D+00  0.7087426823D-01
      0.3599933586D+01 -0.1480262627D+00  0.3397528391D+00
      0.1013761750D+01  0.1130767015D+01  0.7271585773D+00
 SP   1 1.00       0.000000000000
      0.2700058226D+00  0.1000000000D+01  0.1000000000D+01
 D   1 1.00       0.000000000000
      0.8000000000D+00  0.1000000000D+01
 ****
     55 0
 S   3 1.00       0.000000000000
      0.1873113696D+02  0.3349460434D-01
      0.2825394365D+01  0.2347269535D+00
      0.6401216923D+00  0.8137573261D+00
 S   1 1.00       0.000000000000
      0.1612777588D+00  0.1000000000D+01
 ****
     56 0
 S   6 1.00       0.000000000000
      0.5484671660D+04  0.1831074430D-02
      0.8252349460D+03  0.1395017220D-01
      0.1880469580D+03  0.6844507810D-01
      0.5296450000D+02  0.2327143360D+00
      0.1689757040D+02  0.4701928980D+00
      0.5799635340D+01  0.3585208530D+00
 SP   3 1.00       0.000000000000
      0.1553961625D+02 -0.1107775495D+00  0.7087426823D-01
      0.3599933586D+01 -0.1480262627D+00  0.3397528391D+00
      0.1013761750D+01  0.1130767015D+01  0.7271585773D+00
 SP   1 1.00       0.000000000000
      0.2700058226D+00  0.1000000000D+01  0.1000000000D+01
 D   1 1.00       0.000000000000
      0.8000000000D+00  0.1000000000D+01
 ****
     57 0
 S   3 1.00       0.000000000000
      0.1873113696D+02  0.3349460434D-01
      0.2825394365D+01  0.2347269535D+00
      0.6401216923D+00  0.8137573261D+00
 S   1 1.00       0.000000000000
      0.1612777588D+00  0.1000000000D+01
 ****
     58 0
 S   6 1.00       0.000000000000
      0.3047524880D+04  0.1834737132D-02
      0.4573695180D+03  0.1403732281D-01
      0.1039486850D+03  0.6884262226D-01
      0.2921015530D+02  0.2321844432D+00
      0.9286662960D+01  0.4679413484D+00
      0.3163926960D+01  0.3623119853D+00
 SP   3 1.00       0.000000000000
      0.7868272350D+01 -0.1193324198D+00  0.6899906659D-01
      0.1881288540D+01 -0.1608541517D+00  0.3164239610D+00
      0.5442492580D+00  0.1143456438D+01  0.7443082909D+00
 SP   1 1.00       0.000000000000
      0.1687144782D+00  0.1000000000D+01  0.1000000000D+01
 D   1 1.00       0.000000000000
      0.8000000000D+00  0.1000000000D+01
 ****
     59 0
 S   3 1.00       0.000000000000
      0.1873113696D+02  0.3349460434D-01
      0.2825394365D+01  0.2347269535D+00
      0.6401216923D+00  0.8137573261D+00
 S   1 1.00       0.000000000000
      0.1612777588D+00  0.1000000000D+01
 ****
     60 0
 S   3 1.00       0.000000000000
      0.1873113696D+02  0.3349460434D-01
      0.2825394365D+01  0.2347269535D+00
      0.6401216923D+00  0.8137573261D+00
 S   1 1.00       0.000000000000
      0.1612777588D+00  0.1000000000D+01
 ****
     61 0
 S   6 1.00       0.000000000000
      0.3047524880D+04  0.1834737132D-02
      0.4573695180D+03  0.1403732281D-01
      0.1039486850D+03  0.6884262226D-01
      0.2921015530D+02  0.2321844432D+00
      0.9286662960D+01  0.4679413484D+00
      0.3163926960D+01  0.3623119853D+00
 SP   3 1.00       0.000000000000
      0.7868272350D+01 -0.1193324198D+00  0.6899906659D-01
      0.1881288540D+01 -0.1608541517D+00  0.3164239610D+00
      0.5442492580D+00  0.1143456438D+01  0.7443082909D+00
 SP   1 1.00       0.000000000000
      0.1687144782D+00  0.1000000000D+01  0.1000000000D+01
 D   1 1.00       0.000000000000
      0.8000000000D+00  0.1000000000D+01
 ****
     62 0
 S   3 1.00       0.000000000000
      0.1873113696D+02  0.3349460434D-01
      0.2825394365D+01  0.2347269535D+00
      0.6401216923D+00  0.8137573261D+00
 S   1 1.00       0.000000000000
      0.1612777588D+00  0.1000000000D+01
 ****
     63 0
 S   3 1.00       0.000000000000
      0.1873113696D+02  0.3349460434D-01
      0.2825394365D+01  0.2347269535D+00
      0.6401216923D+00  0.8137573261D+00
 S   1 1.00       0.000000000000
      0.1612777588D+00  0.1000000000D+01
 ****
     64 0
 S   6 1.00       0.000000000000
      0.3047524880D+04  0.1834737132D-02
      0.4573695180D+03  0.1403732281D-01
      0.1039486850D+03  0.6884262226D-01
      0.2921015530D+02  0.2321844432D+00
      0.9286662960D+01  0.4679413484D+00
      0.3163926960D+01  0.3623119853D+00
 SP   3 1.00       0.000000000000
      0.7868272350D+01 -0.1193324198D+00  0.6899906659D-01
      0.1881288540D+01 -0.1608541517D+00  0.3164239610D+00
      0.5442492580D+00  0.1143456438D+01  0.7443082909D+00
 SP   1 1.00       0.000000000000
      0.1687144782D+00  0.1000000000D+01  0.1000000000D+01
 D   1 1.00       0.000000000000
      0.8000000000D+00  0.1000000000D+01
 ****
     65 0
 S   3 1.00       0.000000000000
      0.1873113696D+02  0.3349460434D-01
      0.2825394365D+01  0.2347269535D+00
      0.6401216923D+00  0.8137573261D+00
 S   1 1.00       0.000000000000
      0.1612777588D+00  0.1000000000D+01
 ****
     66 0
 S   3 1.00       0.000000000000
      0.1873113696D+02  0.3349460434D-01
      0.2825394365D+01  0.2347269535D+00
      0.6401216923D+00  0.8137573261D+00
 S   1 1.00       0.000000000000
      0.1612777588D+00  0.1000000000D+01
 ****
     67 0
 S   6 1.00       0.000000000000
      0.3047524880D+04  0.1834737132D-02
      0.4573695180D+03  0.1403732281D-01
      0.1039486850D+03  0.6884262226D-01
      0.2921015530D+02  0.2321844432D+00
      0.9286662960D+01  0.4679413484D+00
      0.3163926960D+01  0.3623119853D+00
 SP   3 1.00       0.000000000000
      0.7868272350D+01 -0.1193324198D+00  0.6899906659D-01
      0.1881288540D+01 -0.1608541517D+00  0.3164239610D+00
      0.5442492580D+00  0.1143456438D+01  0.7443082909D+00
 SP   1 1.00       0.000000000000
      0.1687144782D+00  0.1000000000D+01  0.1000000000D+01
 D   1 1.00       0.000000000000
      0.8000000000D+00  0.1000000000D+01
 ****
     68 0
 S   3 1.00       0.000000000000
      0.1873113696D+02  0.3349460434D-01
      0.2825394365D+01  0.2347269535D+00
      0.6401216923D+00  0.8137573261D+00
 S   1 1.00       0.000000000000
      0.1612777588D+00  0.1000000000D+01
 ****
     69 0
 S   6 1.00       0.000000000000
      0.3047524880D+04  0.1834737132D-02
      0.4573695180D+03  0.1403732281D-01
      0.1039486850D+03  0.6884262226D-01
      0.2921015530D+02  0.2321844432D+00
      0.9286662960D+01  0.4679413484D+00
      0.3163926960D+01  0.3623119853D+00
 SP   3 1.00       0.000000000000
      0.7868272350D+01 -0.1193324198D+00  0.6899906659D-01
      0.1881288540D+01 -0.1608541517D+00  0.3164239610D+00
      0.5442492580D+00  0.1143456438D+01  0.7443082909D+00
 SP   1 1.00       0.000000000000
      0.1687144782D+00  0.1000000000D+01  0.1000000000D+01
 D   1 1.00       0.000000000000
      0.8000000000D+00  0.1000000000D+01
 ****
     70 0
 S   3 1.00       0.000000000000
      0.1873113696D+02  0.3349460434D-01
      0.2825394365D+01  0.2347269535D+00
      0.6401216923D+00  0.8137573261D+00
 S   1 1.00       0.000000000000
      0.1612777588D+00  0.1000000000D+01
 ****
     71 0
 S   3 1.00       0.000000000000
      0.1873113696D+02  0.3349460434D-01
      0.2825394365D+01  0.2347269535D+00
      0.6401216923D+00  0.8137573261D+00
 S   1 1.00       0.000000000000
      0.1612777588D+00  0.1000000000D+01
 ****
     72 0
 S   3 1.00       0.000000000000
      0.1873113696D+02  0.3349460434D-01
      0.2825394365D+01  0.2347269535D+00
      0.6401216923D+00  0.8137573261D+00
 S   1 1.00       0.000000000000
      0.1612777588D+00  0.1000000000D+01
 ****
     73 0
 S   6 1.00       0.000000000000
      0.3047524880D+04  0.1834737132D-02
      0.4573695180D+03  0.1403732281D-01
      0.1039486850D+03  0.6884262226D-01
      0.2921015530D+02  0.2321844432D+00
      0.9286662960D+01  0.4679413484D+00
      0.3163926960D+01  0.3623119853D+00
 SP   3 1.00       0.000000000000
      0.7868272350D+01 -0.1193324198D+00  0.6899906659D-01
      0.1881288540D+01 -0.1608541517D+00  0.3164239610D+00
      0.5442492580D+00  0.1143456438D+01  0.7443082909D+00
 SP   1 1.00       0.000000000000
      0.1687144782D+00  0.1000000000D+01  0.1000000000D+01
 D   1 1.00       0.000000000000
      0.8000000000D+00  0.1000000000D+01
 ****
     74 0
 S   3 1.00       0.000000000000
      0.1873113696D+02  0.3349460434D-01
      0.2825394365D+01  0.2347269535D+00
      0.6401216923D+00  0.8137573261D+00
 S   1 1.00       0.000000000000
      0.1612777588D+00  0.1000000000D+01
 ****
     75 0
 S   3 1.00       0.000000000000
      0.1873113696D+02  0.3349460434D-01
      0.2825394365D+01  0.2347269535D+00
      0.6401216923D+00  0.8137573261D+00
 S   1 1.00       0.000000000000
      0.1612777588D+00  0.1000000000D+01
 ****
     76 0
 S   3 1.00       0.000000000000
      0.1873113696D+02  0.3349460434D-01
      0.2825394365D+01  0.2347269535D+00
      0.6401216923D+00  0.8137573261D+00
 S   1 1.00       0.000000000000
      0.1612777588D+00  0.1000000000D+01
 ****

 AO basis set (Overlap normalization):
 Atom C1       Shell     1 S   6     bf    1 -     1          3.324671795083         -2.359324947737         -0.115264015551
      0.3047524880D+04  0.1834737132D-02
      0.4573695180D+03  0.1403732281D-01
      0.1039486850D+03  0.6884262226D-01
      0.2921015530D+02  0.2321844432D+00
      0.9286662960D+01  0.4679413484D+00
      0.3163926960D+01  0.3623119853D+00
 Atom C1       Shell     2 SP   3    bf    2 -     5          3.324671795083         -2.359324947737         -0.115264015551
      0.7868272350D+01 -0.1193324198D+00  0.6899906659D-01
      0.1881288540D+01 -0.1608541517D+00  0.3164239610D+00
      0.5442492580D+00  0.1143456438D+01  0.7443082909D+00
 Atom C1       Shell     3 SP   1    bf    6 -     9          3.324671795083         -2.359324947737         -0.115264015551
      0.1687144782D+00  0.1000000000D+01  0.1000000000D+01
 Atom C1       Shell     4 D   1     bf   10 -    15          3.324671795083         -2.359324947737         -0.115264015551
      0.8000000000D+00  0.1000000000D+01
 Atom H2       Shell     5 S   3     bf   16 -    16          3.539486866773         -2.138210757441         -2.165095645470
      0.1873113696D+02  0.3349460434D-01
      0.2825394365D+01  0.2347269535D+00
      0.6401216923D+00  0.8137573261D+00
 Atom H2       Shell     6 S   1     bf   17 -    17          3.539486866773         -2.138210757441         -2.165095645470
      0.1612777588D+00  0.1000000000D+01
 Atom C3       Shell     7 S   6     bf   18 -    18          5.954207076294         -2.469463893734          1.104030522321
      0.3047524880D+04  0.1834737132D-02
      0.4573695180D+03  0.1403732281D-01
      0.1039486850D+03  0.6884262226D-01
      0.2921015530D+02  0.2321844432D+00
      0.9286662960D+01  0.4679413484D+00
      0.3163926960D+01  0.3623119853D+00
 Atom C3       Shell     8 SP   3    bf   19 -    22          5.954207076294         -2.469463893734          1.104030522321
      0.7868272350D+01 -0.1193324198D+00  0.6899906659D-01
      0.1881288540D+01 -0.1608541517D+00  0.3164239610D+00
      0.5442492580D+00  0.1143456438D+01  0.7443082909D+00
 Atom C3       Shell     9 SP   1    bf   23 -    26          5.954207076294         -2.469463893734          1.104030522321
      0.1687144782D+00  0.1000000000D+01  0.1000000000D+01
 Atom C3       Shell    10 D   1     bf   27 -    32          5.954207076294         -2.469463893734          1.104030522321
      0.8000000000D+00  0.1000000000D+01
 Atom H4       Shell    11 S   3     bf   33 -    33          7.047584815561         -4.017840423750          0.277645725506
      0.1873113696D+02  0.3349460434D-01
      0.2825394365D+01  0.2347269535D+00
      0.6401216923D+00  0.8137573261D+00
 Atom H4       Shell    12 S   1     bf   34 -    34          7.047584815561         -4.017840423750          0.277645725506
      0.1612777588D+00  0.1000000000D+01
 Atom H5       Shell    13 S   3     bf   35 -    35          5.695617122345         -2.930916930706          3.118842049902
      0.1873113696D+02  0.3349460434D-01
      0.2825394365D+01  0.2347269535D+00
      0.6401216923D+00  0.8137573261D+00
 Atom H5       Shell    14 S   1     bf   36 -    36          5.695617122345         -2.930916930706          3.118842049902
      0.1612777588D+00  0.1000000000D+01
 Atom C6       Shell    15 S   6     bf   37 -    37          7.394118012803         -0.001797866546          0.862702781959
      0.3047524880D+04  0.1834737132D-02
      0.4573695180D+03  0.1403732281D-01
      0.1039486850D+03  0.6884262226D-01
      0.2921015530D+02  0.2321844432D+00
      0.9286662960D+01  0.4679413484D+00
      0.3163926960D+01  0.3623119853D+00
 Atom C6       Shell    16 SP   3    bf   38 -    41          7.394118012803         -0.001797866546          0.862702781959
      0.7868272350D+01 -0.1193324198D+00  0.6899906659D-01
      0.1881288540D+01 -0.1608541517D+00  0.3164239610D+00
      0.5442492580D+00  0.1143456438D+01  0.7443082909D+00
 Atom C6       Shell    17 SP   1    bf   42 -    45          7.394118012803         -0.001797866546          0.862702781959
      0.1687144782D+00  0.1000000000D+01  0.1000000000D+01
 Atom C6       Shell    18 D   1     bf   46 -    51          7.394118012803         -0.001797866546          0.862702781959
      0.8000000000D+00  0.1000000000D+01
 Atom C7       Shell    19 S   6     bf   52 -    52          6.022751902887          2.415565918657          1.673347501793
      0.3047524880D+04  0.1834737132D-02
      0.4573695180D+03  0.1403732281D-01
      0.1039486850D+03  0.6884262226D-01
      0.2921015530D+02  0.2321844432D+00
      0.9286662960D+01  0.4679413484D+00
      0.3163926960D+01  0.3623119853D+00
 Atom C7       Shell    20 SP   3    bf   53 -    56          6.022751902887          2.415565918657          1.673347501793
      0.7868272350D+01 -0.1193324198D+00  0.6899906659D-01
      0.1881288540D+01 -0.1608541517D+00  0.3164239610D+00
      0.5442492580D+00  0.1143456438D+01  0.7443082909D+00
 Atom C7       Shell    21 SP   1    bf   57 -    60          6.022751902887          2.415565918657          1.673347501793
      0.1687144782D+00  0.1000000000D+01  0.1000000000D+01
 Atom C7       Shell    22 D   1     bf   61 -    66          6.022751902887          2.415565918657          1.673347501793
      0.8000000000D+00  0.1000000000D+01
 Atom C8       Shell    23 S   6     bf   67 -    67          3.300994471501          2.373688623792          0.538946548284
      0.3047524880D+04  0.1834737132D-02
      0.4573695180D+03  0.1403732281D-01
      0.1039486850D+03  0.6884262226D-01
      0.2921015530D+02  0.2321844432D+00
      0.9286662960D+01  0.4679413484D+00
      0.3163926960D+01  0.3623119853D+00
 Atom C8       Shell    24 SP   3    bf   68 -    71          3.300994471501          2.373688623792          0.538946548284
      0.7868272350D+01 -0.1193324198D+00  0.6899906659D-01
      0.1881288540D+01 -0.1608541517D+00  0.3164239610D+00
      0.5442492580D+00  0.1143456438D+01  0.7443082909D+00
 Atom C8       Shell    25 SP   1    bf   72 -    75          3.300994471501          2.373688623792          0.538946548284
      0.1687144782D+00  0.1000000000D+01  0.1000000000D+01
 Atom C8       Shell    26 D   1     bf   76 -    81          3.300994471501          2.373688623792          0.538946548284
      0.8000000000D+00  0.1000000000D+01
 Atom H9       Shell    27 S   3     bf   82 -    82          3.442027019367          2.729380511017         -1.502232970536
      0.1873113696D+02  0.3349460434D-01
      0.2825394365D+01  0.2347269535D+00
      0.6401216923D+00  0.8137573261D+00
 Atom H9       Shell    28 S   1     bf   83 -    83          3.442027019367          2.729380511017         -1.502232970536
      0.1612777588D+00  0.1000000000D+01
 Atom H10      Shell    29 S   3     bf   84 -    84          2.197281612143          3.934505088660          1.331650945205
      0.1873113696D+02  0.3349460434D-01
      0.2825394365D+01  0.2347269535D+00
      0.6401216923D+00  0.8137573261D+00
 Atom H10      Shell    30 S   1     bf   85 -    85          2.197281612143          3.934505088660          1.331650945205
      0.1612777588D+00  0.1000000000D+01
 Atom C11      Shell    31 S   6     bf   86 -    86          1.846979450616         -0.108923908786          0.930601567880
      0.3047524880D+04  0.1834737132D-02
      0.4573695180D+03  0.1403732281D-01
      0.1039486850D+03  0.6884262226D-01
      0.2921015530D+02  0.2321844432D+00
      0.9286662960D+01  0.4679413484D+00
      0.3163926960D+01  0.3623119853D+00
 Atom C11      Shell    32 SP   3    bf   87 -    90          1.846979450616         -0.108923908786          0.930601567880
      0.7868272350D+01 -0.1193324198D+00  0.6899906659D-01
      0.1881288540D+01 -0.1608541517D+00  0.3164239610D+00
      0.5442492580D+00  0.1143456438D+01  0.7443082909D+00
 Atom C11      Shell    33 SP   1    bf   91 -    94          1.846979450616         -0.108923908786          0.930601567880
      0.1687144782D+00  0.1000000000D+01  0.1000000000D+01
 Atom C11      Shell    34 D   1     bf   95 -   100          1.846979450616         -0.108923908786          0.930601567880
      0.8000000000D+00  0.1000000000D+01
 Atom H12      Shell    35 S   3     bf  101 -   101          1.476279925361         -0.423454537275          2.951831304606
      0.1873113696D+02  0.3349460434D-01
      0.2825394365D+01  0.2347269535D+00
      0.6401216923D+00  0.8137573261D+00
 Atom H12      Shell    36 S   1     bf  102 -   102          1.476279925361         -0.423454537275          2.951831304606
      0.1612777588D+00  0.1000000000D+01
 Atom H13      Shell    37 S   3     bf  103 -   103          0.000000000000          0.000000000000          0.000000000000
      0.1873113696D+02  0.3349460434D-01
      0.2825394365D+01  0.2347269535D+00
      0.6401216923D+00  0.8137573261D+00
 Atom H13      Shell    38 S   1     bf  104 -   104          0.000000000000          0.000000000000          0.000000000000
      0.1612777588D+00  0.1000000000D+01
 Atom C14      Shell    39 S   6     bf  105 -   105          9.773865325344          0.000000000000          0.000000000000
      0.3047524880D+04  0.1834737132D-02
      0.4573695180D+03  0.1403732281D-01
      0.1039486850D+03  0.6884262226D-01
      0.2921015530D+02  0.2321844432D+00
      0.9286662960D+01  0.4679413484D+00
      0.3163926960D+01  0.3623119853D+00
 Atom C14      Shell    40 SP   3    bf  106 -   109          9.773865325344          0.000000000000          0.000000000000
      0.7868272350D+01 -0.1193324198D+00  0.6899906659D-01
      0.1881288540D+01 -0.1608541517D+00  0.3164239610D+00
      0.5442492580D+00  0.1143456438D+01  0.7443082909D+00
 Atom C14      Shell    41 SP   1    bf  110 -   113          9.773865325344          0.000000000000          0.000000000000
      0.1687144782D+00  0.1000000000D+01  0.1000000000D+01
 Atom C14      Shell    42 D   1     bf  114 -   119          9.773865325344          0.000000000000          0.000000000000
      0.8000000000D+00  0.1000000000D+01
 Atom H15      Shell    43 S   3     bf  120 -   120         10.654200045808         -1.768555608231         -0.567606361582
      0.1873113696D+02  0.3349460434D-01
      0.2825394365D+01  0.2347269535D+00
      0.6401216923D+00  0.8137573261D+00
 Atom H15      Shell    44 S   1     bf  121 -   121         10.654200045808         -1.768555608231         -0.567606361582
      0.1612777588D+00  0.1000000000D+01
 Atom C16      Shell    45 S   6     bf  122 -   122         11.447605304358          2.279772428625         -0.198632742102
      0.3047524880D+04  0.1834737132D-02
      0.4573695180D+03  0.1403732281D-01
      0.1039486850D+03  0.6884262226D-01
      0.2921015530D+02  0.2321844432D+00
      0.9286662960D+01  0.4679413484D+00
      0.3163926960D+01  0.3623119853D+00
 Atom C16      Shell    46 SP   3    bf  123 -   126         11.447605304358          2.279772428625         -0.198632742102
      0.7868272350D+01 -0.1193324198D+00  0.6899906659D-01
      0.1881288540D+01 -0.1608541517D+00  0.3164239610D+00
      0.5442492580D+00  0.1143456438D+01  0.7443082909D+00
 Atom C16      Shell    47 SP   1    bf  127 -   130         11.447605304358          2.279772428625         -0.198632742102
      0.1687144782D+00  0.1000000000D+01  0.1000000000D+01
 Atom C16      Shell    48 D   1     bf  131 -   136         11.447605304358          2.279772428625         -0.198632742102
      0.8000000000D+00  0.1000000000D+01
 Atom H17      Shell    49 S   3     bf  137 -   137         11.924450292962          2.646244466445         -2.190635879971
      0.1873113696D+02  0.3349460434D-01
      0.2825394365D+01  0.2347269535D+00
      0.6401216923D+00  0.8137573261D+00
 Atom H17      Shell    50 S   1     bf  138 -   138         11.924450292962          2.646244466445         -2.190635879971
      0.1612777588D+00  0.1000000000D+01
 Atom C18      Shell    51 S   6     bf  139 -   139         10.359927659408          4.679965708649          1.025632701465
      0.3047524880D+04  0.1834737132D-02
      0.4573695180D+03  0.1403732281D-01
      0.1039486850D+03  0.6884262226D-01
      0.2921015530D+02  0.2321844432D+00
      0.9286662960D+01  0.4679413484D+00
      0.3163926960D+01  0.3623119853D+00
 Atom C18      Shell    52 SP   3    bf  140 -   143         10.359927659408          4.679965708649          1.025632701465
      0.7868272350D+01 -0.1193324198D+00  0.6899906659D-01
      0.1881288540D+01 -0.1608541517D+00  0.3164239610D+00
      0.5442492580D+00  0.1143456438D+01  0.7443082909D+00
 Atom C18      Shell    53 SP   1    bf  144 -   147         10.359927659408          4.679965708649          1.025632701465
      0.1687144782D+00  0.1000000000D+01  0.1000000000D+01
 Atom C18      Shell    54 D   1     bf  148 -   153         10.359927659408          4.679965708649          1.025632701465
      0.8000000000D+00  0.1000000000D+01
 Atom H19      Shell    55 S   3     bf  154 -   154         10.763880374170          4.548793808437          3.055964530878
      0.1873113696D+02  0.3349460434D-01
      0.2825394365D+01  0.2347269535D+00
      0.6401216923D+00  0.8137573261D+00
 Atom H19      Shell    56 S   1     bf  155 -   155         10.763880374170          4.548793808437          3.055964530878
      0.1612777588D+00  0.1000000000D+01
 Atom C20      Shell    57 S   6     bf  156 -   156          7.451337276045          4.781837877603          0.609697705726
      0.3047524880D+04  0.1834737132D-02
      0.4573695180D+03  0.1403732281D-01
      0.1039486850D+03  0.6884262226D-01
      0.2921015530D+02  0.2321844432D+00
      0.9286662960D+01  0.4679413484D+00
      0.3163926960D+01  0.3623119853D+00
 Atom C20      Shell    58 SP   3    bf  157 -   160          7.451337276045          4.781837877603          0.609697705726
      0.7868272350D+01 -0.1193324198D+00  0.6899906659D-01
      0.1881288540D+01 -0.1608541517D+00  0.3164239610D+00
      0.5442492580D+00  0.1143456438D+01  0.7443082909D+00
 Atom C20      Shell    59 SP   1    bf  161 -   164          7.451337276045          4.781837877603          0.609697705726
      0.1687144782D+00  0.1000000000D+01  0.1000000000D+01
 Atom C20      Shell    60 D   1     bf  165 -   170          7.451337276045          4.781837877603          0.609697705726
      0.8000000000D+00  0.1000000000D+01
 Atom H21      Shell    61 S   3     bf  171 -   171          7.174384267448          4.719132493733         -1.453897706687
      0.1873113696D+02  0.3349460434D-01
      0.2825394365D+01  0.2347269535D+00
      0.6401216923D+00  0.8137573261D+00
 Atom H21      Shell    62 S   1     bf  172 -   172          7.174384267448          4.719132493733         -1.453897706687
      0.1612777588D+00  0.1000000000D+01
 Atom C22      Shell    63 S   6     bf  173 -   173          6.330642770739          7.319528821584          1.531257217519
      0.3047524880D+04  0.1834737132D-02
      0.4573695180D+03  0.1403732281D-01
      0.1039486850D+03  0.6884262226D-01
      0.2921015530D+02  0.2321844432D+00
      0.9286662960D+01  0.4679413484D+00
      0.3163926960D+01  0.3623119853D+00
 Atom C22      Shell    64 SP   3    bf  174 -   177          6.330642770739          7.319528821584          1.531257217519
      0.7868272350D+01 -0.1193324198D+00  0.6899906659D-01
      0.1881288540D+01 -0.1608541517D+00  0.3164239610D+00
      0.5442492580D+00  0.1143456438D+01  0.7443082909D+00
 Atom C22      Shell    65 SP   1    bf  178 -   181          6.330642770739          7.319528821584          1.531257217519
      0.1687144782D+00  0.1000000000D+01  0.1000000000D+01
 Atom C22      Shell    66 D   1     bf  182 -   187          6.330642770739          7.319528821584          1.531257217519
      0.8000000000D+00  0.1000000000D+01
 Atom H23      Shell    67 S   3     bf  188 -   188          6.383302313795          7.399420111900          3.598669101933
      0.1873113696D+02  0.3349460434D-01
      0.2825394365D+01  0.2347269535D+00
      0.6401216923D+00  0.8137573261D+00
 Atom H23      Shell    68 S   1     bf  189 -   189          6.383302313795          7.399420111900          3.598669101933
      0.1612777588D+00  0.1000000000D+01
 Atom H24      Shell    69 S   3     bf  190 -   190          4.331065478248          7.419984073884          1.006248476609
      0.1873113696D+02  0.3349460434D-01
      0.2825394365D+01  0.2347269535D+00
      0.6401216923D+00  0.8137573261D+00
 Atom H24      Shell    70 S   1     bf  191 -   191          4.331065478248          7.419984073884          1.006248476609
      0.1612777588D+00  0.1000000000D+01
 Atom C25      Shell    71 S   6     bf  192 -   192          7.681002647167          9.667952562870          0.464189946227
      0.3047524880D+04  0.1834737132D-02
      0.4573695180D+03  0.1403732281D-01
      0.1039486850D+03  0.6884262226D-01
      0.2921015530D+02  0.2321844432D+00
      0.9286662960D+01  0.4679413484D+00
      0.3163926960D+01  0.3623119853D+00
 Atom C25      Shell    72 SP   3    bf  193 -   196          7.681002647167          9.667952562870          0.464189946227
      0.7868272350D+01 -0.1193324198D+00  0.6899906659D-01
      0.1881288540D+01 -0.1608541517D+00  0.3164239610D+00
      0.5442492580D+00  0.1143456438D+01  0.7443082909D+00
 Atom C25      Shell    73 SP   1    bf  197 -   200          7.681002647167          9.667952562870          0.464189946227
      0.1687144782D+00  0.1000000000D+01  0.1000000000D+01
 Atom C25      Shell    74 D   1     bf  201 -   206          7.681002647167          9.667952562870          0.464189946227
      0.8000000000D+00  0.1000000000D+01
 Atom H26      Shell    75 S   3     bf  207 -   207          7.388304364841          9.749308768884         -1.590272060738
      0.1873113696D+02  0.3349460434D-01
      0.2825394365D+01  0.2347269535D+00
      0.6401216923D+00  0.8137573261D+00
 Atom H26      Shell    76 S   1     bf  208 -   208          7.388304364841          9.749308768884         -1.590272060738
      0.1612777588D+00  0.1000000000D+01
 Atom H27      Shell    77 S   3     bf  209 -   209          6.794979340817         11.364693986017          1.256850047968
      0.1873113696D+02  0.3349460434D-01
      0.2825394365D+01  0.2347269535D+00
      0.6401216923D+00  0.8137573261D+00
 Atom H27      Shell    78 S   1     bf  210 -   210          6.794979340817         11.364693986017          1.256850047968
      0.1612777588D+00  0.1000000000D+01
 Atom C28      Shell    79 S   6     bf  211 -   211         10.538452562723          9.613626470337          1.012276589590
      0.3047524880D+04  0.1834737132D-02
      0.4573695180D+03  0.1403732281D-01
      0.1039486850D+03  0.6884262226D-01
      0.2921015530D+02  0.2321844432D+00
      0.9286662960D+01  0.4679413484D+00
      0.3163926960D+01  0.3623119853D+00
 Atom C28      Shell    80 SP   3    bf  212 -   215         10.538452562723          9.613626470337          1.012276589590
      0.7868272350D+01 -0.1193324198D+00  0.6899906659D-01
      0.1881288540D+01 -0.1608541517D+00  0.3164239610D+00
      0.5442492580D+00  0.1143456438D+01  0.7443082909D+00
 Atom C28      Shell    81 SP   1    bf  216 -   219         10.538452562723          9.613626470337          1.012276589590
      0.1687144782D+00  0.1000000000D+01  0.1000000000D+01
 Atom C28      Shell    82 D   1     bf  220 -   225         10.538452562723          9.613626470337          1.012276589590
      0.8000000000D+00  0.1000000000D+01
 Atom C29      Shell    83 S   6     bf  226 -   226         11.575594112077          7.082333572124         -0.078161397219
      0.3047524880D+04  0.1834737132D-02
      0.4573695180D+03  0.1403732281D-01
      0.1039486850D+03  0.6884262226D-01
      0.2921015530D+02  0.2321844432D+00
      0.9286662960D+01  0.4679413484D+00
      0.3163926960D+01  0.3623119853D+00
 Atom C29      Shell    84 SP   3    bf  227 -   230         11.575594112077          7.082333572124         -0.078161397219
      0.7868272350D+01 -0.1193324198D+00  0.6899906659D-01
      0.1881288540D+01 -0.1608541517D+00  0.3164239610D+00
      0.5442492580D+00  0.1143456438D+01  0.7443082909D+00
 Atom C29      Shell    85 SP   1    bf  231 -   234         11.575594112077          7.082333572124         -0.078161397219
      0.1687144782D+00  0.1000000000D+01  0.1000000000D+01
 Atom C29      Shell    86 D   1     bf  235 -   240         11.575594112077          7.082333572124         -0.078161397219
      0.8000000000D+00  0.1000000000D+01
 Atom H30      Shell    87 S   3     bf  241 -   241         11.033863486974          7.095767049388         -2.091071236700
      0.1873113696D+02  0.3349460434D-01
      0.2825394365D+01  0.2347269535D+00
      0.6401216923D+00  0.8137573261D+00
 Atom H30      Shell    88 S   1     bf  242 -   242         11.033863486974          7.095767049388         -2.091071236700
      0.1612777588D+00  0.1000000000D+01
 Atom C31      Shell    89 S   6     bf  243 -   243         14.467777137265          7.409069431480          0.000000000000
      0.3047524880D+04  0.1834737132D-02
      0.4573695180D+03  0.1403732281D-01
      0.1039486850D+03  0.6884262226D-01
      0.2921015530D+02  0.2321844432D+00
      0.9286662960D+01  0.4679413484D+00
      0.3163926960D+01  0.3623119853D+00
 Atom C31      Shell    90 SP   3    bf  244 -   247         14.467777137265          7.409069431480          0.000000000000
      0.7868272350D+01 -0.1193324198D+00  0.6899906659D-01
      0.1881288540D+01 -0.1608541517D+00  0.3164239610D+00
      0.5442492580D+00  0.1143456438D+01  0.7443082909D+00
 Atom C31      Shell    91 SP   1    bf  248 -   251         14.467777137265          7.409069431480          0.000000000000
      0.1687144782D+00  0.1000000000D+01  0.1000000000D+01
 Atom C31      Shell    92 D   1     bf  252 -   257         14.467777137265          7.409069431480          0.000000000000
      0.8000000000D+00  0.1000000000D+01
 Atom H32      Shell    93 S   3     bf  258 -   258         15.423492957581          6.217665040350         -1.394517503817
      0.1873113696D+02  0.3349460434D-01
      0.2825394365D+01  0.2347269535D+00
      0.6401216923D+00  0.8137573261D+00
 Atom H32      Shell    94 S   1     bf  259 -   259         15.423492957581          6.217665040350         -1.394517503817
      0.1612777588D+00  0.1000000000D+01
 Atom H33      Shell    95 S   3     bf  260 -   260         15.215858164894          6.864271043869          1.849919221972
      0.1873113696D+02  0.3349460434D-01
      0.2825394365D+01  0.2347269535D+00
      0.6401216923D+00  0.8137573261D+00
 Atom H33      Shell    96 S   1     bf  261 -   261         15.215858164894          6.864271043869          1.849919221972
      0.1612777588D+00  0.1000000000D+01
 Atom C34      Shell    97 S   6     bf  262 -   262         14.871089272662         10.272888725659         -0.519220547559
      0.3047524880D+04  0.1834737132D-02
      0.4573695180D+03  0.1403732281D-01
      0.1039486850D+03  0.6884262226D-01
      0.2921015530D+02  0.2321844432D+00
      0.9286662960D+01  0.4679413484D+00
      0.3163926960D+01  0.3623119853D+00
 Atom C34      Shell    98 SP   3    bf  263 -   266         14.871089272662         10.272888725659         -0.519220547559
      0.7868272350D+01 -0.1193324198D+00  0.6899906659D-01
      0.1881288540D+01 -0.1608541517D+00  0.3164239610D+00
      0.5442492580D+00  0.1143456438D+01  0.7443082909D+00
 Atom C34      Shell    99 SP   1    bf  267 -   270         14.871089272662         10.272888725659         -0.519220547559
      0.1687144782D+00  0.1000000000D+01  0.1000000000D+01
 Atom C34      Shell   100 D   1     bf  271 -   276         14.871089272662         10.272888725659         -0.519220547559
      0.8000000000D+00  0.1000000000D+01
 Atom H35      Shell   101 S   3     bf  277 -   277         16.069821265845         11.116022958875          0.940777251776
      0.1873113696D+02  0.3349460434D-01
      0.2825394365D+01  0.2347269535D+00
      0.6401216923D+00  0.8137573261D+00
 Atom H35      Shell   102 S   1     bf  278 -   278         16.069821265845         11.116022958875          0.940777251776
      0.1612777588D+00  0.1000000000D+01
 Atom H36      Shell   103 S   3     bf  279 -   279         15.835332519947         10.605733143636         -2.321046258346
      0.1873113696D+02  0.3349460434D-01
      0.2825394365D+01  0.2347269535D+00
      0.6401216923D+00  0.8137573261D+00
 Atom H36      Shell   104 S   1     bf  280 -   280         15.835332519947         10.605733143636         -2.321046258346
      0.1612777588D+00  0.1000000000D+01
 Atom C37      Shell   105 S   6     bf  281 -   281         12.193849196932         11.510664955186         -0.551746494861
      0.3047524880D+04  0.1834737132D-02
      0.4573695180D+03  0.1403732281D-01
      0.1039486850D+03  0.6884262226D-01
      0.2921015530D+02  0.2321844432D+00
      0.9286662960D+01  0.4679413484D+00
      0.3163926960D+01  0.3623119853D+00
 Atom C37      Shell   106 SP   3    bf  282 -   285         12.193849196932         11.510664955186         -0.551746494861
      0.7868272350D+01 -0.1193324198D+00  0.6899906659D-01
      0.1881288540D+01 -0.1608541517D+00  0.3164239610D+00
      0.5442492580D+00  0.1143456438D+01  0.7443082909D+00
 Atom C37      Shell   107 SP   1    bf  286 -   289         12.193849196932         11.510664955186         -0.551746494861
      0.1687144782D+00  0.1000000000D+01  0.1000000000D+01
 Atom C37      Shell   108 D   1     bf  290 -   295         12.193849196932         11.510664955186         -0.551746494861
      0.8000000000D+00  0.1000000000D+01
 Atom H38      Shell   109 S   3     bf  296 -   296         11.497683311441         11.308189795144         -2.497988856176
      0.1873113696D+02  0.3349460434D-01
      0.2825394365D+01  0.2347269535D+00
      0.6401216923D+00  0.8137573261D+00
 Atom H38      Shell   110 S   1     bf  297 -   297         11.497683311441         11.308189795144         -2.497988856176
      0.1612777588D+00  0.1000000000D+01
 Atom C39      Shell   111 S   6     bf  298 -   298         11.015051433396          9.830316471605          3.887468425712
      0.3047524880D+04  0.1834737132D-02
      0.4573695180D+03  0.1403732281D-01
      0.1039486850D+03  0.6884262226D-01
[...]
 **** Fit       0.006623
 **** Fit       0.006420
 **** Fit       0.006035
 **** Fit       0.005473
 **** Fit       0.004769
 **** Fit       0.003982
 **** Fit       0.003186
 **** Fit       0.002452
 **** Fit       0.001832
 **** Fit       0.001351
 **** Fit       0.000998
 **** Fit       0.000736
 **** Fit       0.000519
 **** Fit       0.000309
 **** Fit       0.000093
 **** Fit       0.005433
 **** Fit       0.004951
 **** Fit       0.004339
 **** Fit       0.003651
 **** Fit       0.002952
 **** Fit       0.002308
 **** Fit       0.001770
 **** Fit       0.001366
 **** Fit       0.001101
 **** Fit       0.000950
 **** Fit       0.000864
 **** Fit       0.000790
 **** Fit       0.000692
 **** Fit       0.000552
 **** Fit       0.005333
 **** Fit       0.005076
 **** Fit       0.004660
 **** Fit       0.004101
 **** Fit       0.003449
 **** Fit       0.002774
 **** Fit       0.002152
 **** Fit       0.001641
 **** Fit       0.001275
 **** Fit       0.001061
 **** Fit       0.000984
 **** Fit       0.001001
 **** Fit       0.001055
 **** Fit       0.001092
 **** Fit       0.001075
 **** Fit       0.005053
 **** Fit       0.004888
 **** Fit       0.004567
 **** Fit       0.004082
 **** Fit       0.003459
 **** Fit       0.002763
 **** Fit       0.002087
 **** Fit       0.001520
 **** Fit       0.001121
 **** Fit       0.000911
 **** Fit       0.000876
 **** Fit       0.000975
 **** Fit       0.001144
 **** Fit       0.001315
 **** Fit       0.001434
 **** Fit       0.001469
 **** Fit       0.004757
 **** Fit       0.004563
 **** Fit       0.004205
 **** Fit       0.003672
 **** Fit       0.002994
 **** Fit       0.002251
 **** Fit       0.001556
 **** Fit       0.001023
 **** Fit       0.000719
 **** Fit       0.000657
 **** Fit       0.000800
 **** Fit       0.001072
 **** Fit       0.001382
 **** Fit       0.001648
 **** Fit       0.001821
 **** Fit       0.001881
 **** Fit       0.004600
 **** Fit       0.004527
 **** Fit       0.004322
 **** Fit       0.003948
 **** Fit       0.003389
 **** Fit       0.002672
 **** Fit       0.001887
 **** Fit       0.001171
 **** Fit       0.000662
 **** Fit       0.000445
 **** Fit       0.000528
 **** Fit       0.000846
 **** Fit       0.001283
 **** Fit       0.001714
 **** Fit       0.002048
 **** Fit       0.002245
 **** Fit       0.002302
 **** Fit       0.002239
 **** Fit       0.004406
 **** Fit       0.004329
 **** Fit       0.004123
 **** Fit       0.003748
 **** Fit       0.003183
 **** Fit       0.002453
 **** Fit       0.001652
 **** Fit       0.000933
 **** Fit       0.000457
 **** Fit       0.000325
 **** Fit       0.000542
 **** Fit       0.001015
 **** Fit       0.001589
 **** Fit       0.002109
 **** Fit       0.002479
 **** Fit       0.002672
 **** Fit       0.002704
 **** Fit       0.002609
 **** Fit       0.004218
 **** Fit       0.004137
 **** Fit       0.003931
 **** Fit       0.003564
 **** Fit       0.003012
 **** Fit       0.002300
 **** Fit       0.001523
 **** Fit       0.000840
 **** Fit       0.000418
 **** Fit       0.000367
 **** Fit       0.000688
 **** Fit       0.001270
 **** Fit       0.001930
 **** Fit       0.002495
 **** Fit       0.002872
 **** Fit       0.003045
 **** Fit       0.003045
 **** Fit       0.002915
 **** Fit       0.003935
 **** Fit       0.003730
 **** Fit       0.003375
 **** Fit       0.002854
 **** Fit       0.002192
 **** Fit       0.001483
 **** Fit       0.000875
 **** Fit       0.000526
 **** Fit       0.000540
 **** Fit       0.000916
 **** Fit       0.001537
 **** Fit       0.002217
 **** Fit       0.002785
 **** Fit       0.003151
 **** Fit       0.003304
 **** Fit       0.003281
 **** Fit       0.003126
 **** Fit       0.003724
 **** Fit       0.003521
 **** Fit       0.003186
 **** Fit       0.002711
 **** Fit       0.002125
 **** Fit       0.001514
 **** Fit       0.001004
 **** Fit       0.000733
 **** Fit       0.000786
 **** Fit       0.001160
 **** Fit       0.001749
 **** Fit       0.002387
 **** Fit       0.002922
 **** Fit       0.003267
 **** Fit       0.003411
 **** Fit       0.003381
 **** Fit       0.003219
 **** Fit       0.003315
 **** Fit       0.003009
 **** Fit       0.002592
 **** Fit       0.002096
 **** Fit       0.001592
 **** Fit       0.001184
 **** Fit       0.000978
 **** Fit       0.001041
 **** Fit       0.001367
 **** Fit       0.001873
 **** Fit       0.002425
 **** Fit       0.002899
 **** Fit       0.003217
 **** Fit       0.003358
 **** Fit       0.003336
 **** Fit       0.003184
 **** Fit       0.002855
 **** Fit       0.002501
 **** Fit       0.002094
 **** Fit       0.001690
 **** Fit       0.001370
 **** Fit       0.001211
 **** Fit       0.001259
 **** Fit       0.001511
 **** Fit       0.001907
 **** Fit       0.002351
 **** Fit       0.002746
 **** Fit       0.003027
 **** Fit       0.003163
 **** Fit       0.003155
 **** Fit       0.003025
 **** Fit       0.002103
 **** Fit       0.001784
 **** Fit       0.001530
 **** Fit       0.001396
 **** Fit       0.001414
 **** Fit       0.001584
 **** Fit       0.001866
 **** Fit       0.002195
 **** Fit       0.002502
 **** Fit       0.002733
 **** Fit       0.002856
 **** Fit       0.002862
 **** Fit       0.002758
 **** Fit       0.002569
 **** Fit       0.001503
 **** Fit       0.001593
 **** Fit       0.001768
 **** Fit       0.001987
 **** Fit       0.002204
 **** Fit       0.002378
 **** Fit       0.002479
 **** Fit       0.002490
 **** Fit       0.002414
 **** Fit       0.002263
 **** Fit       0.001891
 **** Fit       0.002005
 **** Fit       0.002075
 **** Fit       0.002086
 **** Fit       0.002032
 **** Fit       0.001657
 **** Fit       0.001693
 **** Fit       0.001697
 **** Fit       0.001659
 **** Fit       0.003113
 **** Fit       0.002051
 **** Fit       0.000668
 **** Fit      -0.000917
 **** Fit       0.006617
 **** Fit       0.006500
 **** Fit       0.005924
 **** Fit       0.004829
 **** Fit       0.003254
 **** Fit       0.001346
 **** Fit      -0.000682
 **** Fit      -0.002611
 **** Fit       0.008838
 **** Fit       0.009446
 **** Fit       0.009656
 **** Fit       0.009284
 **** Fit       0.008212
 **** Fit       0.006456
 **** Fit       0.004191
 **** Fit       0.001700
 **** Fit      -0.000719
 **** Fit      -0.002839
 **** Fit       0.010147
 **** Fit       0.011406
 **** Fit       0.012469
 **** Fit       0.013092
 **** Fit       0.013007
 **** Fit       0.012020
 **** Fit       0.010111
 **** Fit       0.007480
 **** Fit       0.004490
 **** Fit       0.001530
 **** Fit      -0.001099
 **** Fit       0.012177
 **** Fit       0.013874
 **** Fit       0.015409
 **** Fit       0.016479
 **** Fit       0.016732
 **** Fit       0.015884
 **** Fit       0.013867
 **** Fit       0.010902
 **** Fit       0.007430
 **** Fit       0.003936
 **** Fit       0.000796
 **** Fit      -0.001784
 **** Fit       0.013906
 **** Fit       0.015973
 **** Fit       0.017915
 **** Fit       0.019383
 **** Fit       0.019954
 **** Fit       0.019265
 **** Fit       0.017200
 **** Fit       0.013990
 **** Fit       0.010135
 **** Fit       0.006200
 **** Fit       0.002626
 **** Fit      -0.000341
 **** Fit       0.012984
 **** Fit       0.015151
 **** Fit       0.017449
 **** Fit       0.019644
 **** Fit       0.021367
 **** Fit       0.022154
 **** Fit       0.021598
 **** Fit       0.019550
 **** Fit       0.016237
 **** Fit       0.012184
 **** Fit       0.007994
 **** Fit       0.004148
 **** Fit       0.000921
 **** Fit       0.015796
 **** Fit       0.018140
 **** Fit       0.020380
 **** Fit       0.022149
 **** Fit       0.022992
 **** Fit       0.022506
 **** Fit       0.020534
 **** Fit       0.017287
 **** Fit       0.013269
 **** Fit       0.009070
 **** Fit       0.005172
 **** Fit       0.001862
 **** Fit       0.015819
 **** Fit       0.018027
 **** Fit       0.020105
 **** Fit       0.021716
 **** Fit       0.022453
 **** Fit       0.021962
 **** Fit       0.020110
 **** Fit       0.017080
 **** Fit       0.013316
 **** Fit       0.009348
 **** Fit       0.005621
 **** Fit       0.002416
 **** Fit       0.015296
 **** Fit       0.017227
 **** Fit       0.018992
 **** Fit       0.020301
 **** Fit       0.020821
 **** Fit       0.020273
 **** Fit       0.018563
 **** Fit       0.015847
 **** Fit       0.012488
 **** Fit       0.008926
 **** Fit       0.005546
 **** Fit       0.002602
 **** Fit       0.015943
 **** Fit       0.017322
 **** Fit       0.018267
 **** Fit       0.018525
 **** Fit       0.017901
 **** Fit       0.016340
 **** Fit       0.013973
 **** Fit       0.011084
 **** Fit       0.008020
 **** Fit       0.005090
 **** Fit       0.015376
 **** Fit       0.015964
 **** Fit       0.015974
 **** Fit       0.015281
 **** Fit       0.013865
 **** Fit       0.011839
 **** Fit       0.009420
 **** Fit       0.006869
 **** Fit       0.013659
 **** Fit       0.013463
 **** Fit       0.012722
 **** Fit       0.011446
 **** Fit       0.009732
 **** Fit       0.011162
 **** Fit       0.009595
 **** Fit       0.009144
 **** Fit       0.008391
 **** Fit       0.007378
 **** Fit       0.008215
 **** Fit       0.007935
 **** Fit       0.007425
 **** Fit       0.006704
 **** Fit       0.005818
 **** Fit       0.006896
 **** Fit       0.006528
 **** Fit       0.005993
 **** Fit       0.005320
 **** Fit       0.004557
 **** Fit       0.005358
 **** Fit       0.004820
 **** Fit       0.004206
 **** Fit       0.003563
 **** Fit       0.001447
 **** Fit       0.003875
 **** Fit       0.003323
 **** Fit       0.004123
 **** Fit       0.003637
 **** Fit       0.004357
 **** Fit       0.003997
 **** Fit       0.003542
 **** Fit       0.003035
 **** Fit       0.002529
 **** Fit       0.002082
 **** Fit       0.001734
 **** Fit       0.001504
 **** Fit       0.001386
 **** Fit       0.001356
 **** Fit       0.001375
 **** Fit       0.001402
 **** Fit       0.003980
 **** Fit       0.003585
 **** Fit       0.003099
 **** Fit       0.002572
 **** Fit       0.002073
 **** Fit       0.001665
 **** Fit       0.001394
 **** Fit       0.001270
 **** Fit       0.001277
 **** Fit       0.001371
 **** Fit       0.001499
 **** Fit       0.001610
 **** Fit       0.001670
 **** Fit       0.003988
 **** Fit       0.003690
 **** Fit       0.003275
 **** Fit       0.002770
 **** Fit       0.002232
 **** Fit       0.001740
 **** Fit       0.001368
 **** Fit       0.001165
 **** Fit       0.001139
 **** Fit       0.001259
 **** Fit       0.001463
 **** Fit       0.001681
 **** Fit       0.001856
 **** Fit       0.001953
 **** Fit       0.001964
 **** Fit       0.003765
 **** Fit       0.003460
 **** Fit       0.003040
 **** Fit       0.002532
 **** Fit       0.001998
 **** Fit       0.001522
 **** Fit       0.001188
 **** Fit       0.001049
 **** Fit       0.001109
 **** Fit       0.001323
 **** Fit       0.001615
 **** Fit       0.001900
 **** Fit       0.002116
 **** Fit       0.002232
 **** Fit       0.002245
 **** Fit       0.003567
 **** Fit       0.003266
 **** Fit       0.002856
 **** Fit       0.002364
 **** Fit       0.001854
 **** Fit       0.001411
 **** Fit       0.001122
 **** Fit       0.001039
 **** Fit       0.001164
 **** Fit       0.001446
 **** Fit       0.001794
 **** Fit       0.002118
 **** Fit       0.002354
 **** Fit       0.002475
 **** Fit       0.002482
 **** Fit       0.003382
 **** Fit       0.003093
 **** Fit       0.002707
 **** Fit       0.002250
 **** Fit       0.001783
 **** Fit       0.001389
 **** Fit       0.001148
 **** Fit       0.001111
 **** Fit       0.001277
 **** Fit       0.001589
 **** Fit       0.001959
 **** Fit       0.002293
 **** Fit       0.002532
 **** Fit       0.002648
 **** Fit       0.002647
 **** Fit       0.002936
 **** Fit       0.002584
 **** Fit       0.002176
 **** Fit       0.001767
 **** Fit       0.001431
 **** Fit       0.001238
 **** Fit       0.001231
 **** Fit       0.001408
 **** Fit       0.001716
 **** Fit       0.002072
 **** Fit       0.002392
 **** Fit       0.002619
 **** Fit       0.002728
 **** Fit       0.002722
 **** Fit       0.002483
 **** Fit       0.002131
 **** Fit       0.001785
 **** Fit       0.001507
 **** Fit       0.001354
 **** Fit       0.001361
 **** Fit       0.001523
 **** Fit       0.001798
 **** Fit       0.002114
 **** Fit       0.002401
 **** Fit       0.002606
 **** Fit       0.002706
 **** Fit       0.001472
 **** Fit       0.001602
 **** Fit       0.001824
 **** Fit       0.002084
 **** Fit       0.002325
 **** Fit       0.002501
 **** Fit       0.001636
 **** Fit       0.001798
 **** Fit       0.001994
 **** Fit       0.002181
 **** Fit       0.007961
 **** Fit       0.007582
 **** Fit       0.006723
 **** Fit       0.005402
 **** Fit       0.003727
 **** Fit       0.001869
 **** Fit       0.010151
 **** Fit       0.010432
 **** Fit       0.010210
 **** Fit       0.009389
 **** Fit       0.007971
 **** Fit       0.006078
 **** Fit       0.003918
 **** Fit       0.001725
 **** Fit       0.011365
 **** Fit       0.012278
 **** Fit       0.012808
 **** Fit       0.012764
 **** Fit       0.012008
 **** Fit       0.010523
 **** Fit       0.008440
 **** Fit       0.006001
 **** Fit       0.003488
 **** Fit       0.012929
 **** Fit       0.014080
 **** Fit       0.014829
 **** Fit       0.014950
 **** Fit       0.014270
 **** Fit       0.012754
 **** Fit       0.010536
 **** Fit       0.007884
 **** Fit       0.005115
 **** Fit       0.002503
 **** Fit       0.014053
 **** Fit       0.015355
 **** Fit       0.016247
 **** Fit       0.016484
 **** Fit       0.015873
 **** Fit       0.014364
 **** Fit       0.012089
 **** Fit       0.009327
 **** Fit       0.006412
 **** Fit       0.003638
 **** Fit       0.014634
 **** Fit       0.015973
 **** Fit       0.016905
 **** Fit       0.017183
 **** Fit       0.016616
 **** Fit       0.015149
 **** Fit       0.012906
 **** Fit       0.010158
 **** Fit       0.007234
 **** Fit       0.004427
 **** Fit       0.014653
 **** Fit       0.015917
 **** Fit       0.016781
 **** Fit       0.017023
 **** Fit       0.016470
 **** Fit       0.015073
 **** Fit       0.012944
 **** Fit       0.010329
 **** Fit       0.007530
 **** Fit       0.004823
 **** Fit       0.015272
 **** Fit       0.015988
 **** Fit       0.016135
 **** Fit       0.015571
 **** Fit       0.014262
 **** Fit       0.012307
 **** Fit       0.009915
 **** Fit       0.007349
 **** Fit       0.014721
 **** Fit       0.014741
 **** Fit       0.014155
 **** Fit       0.012944
 **** Fit       0.011193
 **** Fit       0.009077
 **** Fit       0.013081
 **** Fit       0.012473
 **** Fit       0.011363
 **** Fit       0.002455
 **** Fit       0.001540
 **** Fit       0.001545
 **** Fit       0.001606
 **** Fit       0.001684
 **** Fit       0.002601
 **** Fit       0.002230
 **** Fit       0.001895
 **** Fit       0.001503
 **** Fit       0.001479
 **** Fit       0.001549
 **** Fit       0.001673
 **** Fit       0.001803
 **** Fit       0.001902
 **** Fit       0.002428
 **** Fit       0.002077
 **** Fit       0.001455
 **** Fit       0.001479
 **** Fit       0.001596
 **** Fit       0.001762
 **** Fit       0.001925
 **** Fit       0.002048
 **** Fit       0.001463
 **** Fit       0.001518
 **** Fit       0.001662
 **** Fit       0.001848
 **** Fit       0.002027
 **** Fit       0.002158
 **** Fit       0.001573
 **** Fit       0.001723
 **** Fit       0.001910
 **** Fit       0.002086
 **** Fit       0.001762
 **** Fit       0.001932
 **** Fit       0.009908
 **** Fit       0.009255
 **** Fit       0.008129
 **** Fit       0.006611
 **** Fit       0.011541
 **** Fit       0.011452
 **** Fit       0.010838
 **** Fit       0.009691
 **** Fit       0.008093
 **** Fit       0.006199
 **** Fit       0.012590
 **** Fit       0.012568
 **** Fit       0.011991
 **** Fit       0.010845
 **** Fit       0.009213
 **** Fit       0.007254
 **** Fit       0.013139
 **** Fit       0.013146
 **** Fit       0.012598
 **** Fit       0.011477
 **** Fit       0.009862
 **** Fit       0.007908
 **** Fit       0.013169
 **** Fit       0.013167
 **** Fit       0.012634
 **** Fit       0.011557
 **** Fit       0.010006
 **** Fit       0.012165
 **** Fit       0.011145
 -----------------------------------------------------------------
 Leave Link  602 at Fri Apr 28 13:04:52 2017, MaxMem=   33554432 cpu:      95.8
 (Enter /scratch/michal/g09/l9999.exe)

 Test job not archived.
 1\1\GINC-RZEPICHA\SP\RHF\6-31G(d)\C27H46O3\MICHAL\28-Apr-2017\0\\#P HF
 /6-31G* SCF(Conver=6) NoSymm Test Pop=chelpg IOp(6/33=2) GFInput GFPri
 nt\\MEP - Input generated by R.E.D.-III.x MOLECULE\\0,1\C,0,1.75934054
 ,-1.24850099,-0.06099509\H,0,1.87301578,-1.1314924,-1.14571927\C,0,3.1
 5083068,-1.30678401,0.58422779\H,0,3.72942126,-2.12614958,0.14692379\H
 ,0,3.01399077,-1.55097444,1.65042013\C,0,3.91279873,-0.00095139,0.4565
 2265\C,0,3.18710304,1.27826243,0.88549736\C,0,1.74681104,1.25610192,0.
 28519823\H,0,1.82144225,1.44432596,-0.79494745\H,0,1.16275135,2.082050
 42,0.70467933\C,0,0.97737943,-0.05764005,0.49245314\H,0,0.78121369,-0.
 22408249,1.56204185\H,0,0.,0.,0.\C,0,5.17210677,0.,0.\H,0,5.63795984,-
 0.93587932,-0.30036435\C,0,6.05781182,1.20640361,-0.10511192\H,0,6.310
 14732,1.40033226,-1.15923458\C,0,5.4822376,2.47653119,0.54274145\H,0,5
 .69600017,2.40711801,1.61714678\C,0,3.94307786,2.53043962,0.32263813\H
 ,0,3.79652064,2.49725736,-0.76936953\C,0,3.35003187,3.87332783,0.81030
 642\H,0,3.3778981,3.91560448,1.90433367\H,0,2.29190114,3.92648646,0.53
 248376\C,0,4.06461154,5.11606015,0.24563874\H,0,3.90972228,5.159112,-0
 .84153573\H,0,3.5957482,6.01393704,0.6650964\C,0,5.57670891,5.08731202
 ,0.5356737\C,0,6.12554058,3.74780951,-0.04136123\H,0,5.83886908,3.7549
 182,-1.10654724\C,0,7.65601792,3.92071068,0.\H,0,8.16176095,3.29024663
 ,-0.73794688\H,0,8.05188535,3.63241579,0.97893509\C,0,7.86944151,5.436
 17858,-0.27475968\H,0,8.50378316,5.882346,0.49783788\H,0,8.37969706,5.
 61231226,-1.22824478\C,0,6.45270708,6.09118155,-0.29197167\H,0,6.08431
 196,5.98403631,-1.32187877\C,0,5.82891417,5.20197943,2.05715969\H,0,5.
 47130099,4.32343867,2.59997848\H,0,6.88975881,5.31495018,2.29414986\H,
 0,5.30460199,6.06811927,2.47059276\C,0,6.49357748,7.62685302,-0.044758
 34\H,0,7.2505342,7.98115652,-0.76092382\C,0,6.98554979,8.09716129,1.33
 921867\H,0,6.21488422,7.99252569,2.10854705\H,0,7.25163264,9.15923706,
 1.29183701\H,0,7.87295899,7.55558457,1.67935036\C,0,3.10554173,1.30484
 608,2.43528621\H,0,2.46483358,2.11929279,2.78757296\H,0,2.68939266,0.3
 7418377,2.82961297\H,0,4.0966434,1.4271036,2.88213621\O,0,7.30459911,0
 .96254846,0.59401926\O,0,8.03495043,-0.06451344,-0.14224975\H,0,8.8003
 1061,0.45160411,-0.44452315\O,0,1.0522682,-2.48331079,0.08488269\H,0,0
 .92154318,-2.65549746,1.02798995\C,0,5.17902703,8.37193008,-0.38388534
 \H,0,4.39537144,8.04922946,0.31341655\H,0,5.34179782,9.43806791,-0.169
 16294\C,0,4.63976475,8.25883376,-1.82288031\H,0,4.41172006,7.21289822,
 -2.06536651\H,0,3.67873067,8.78698395,-1.85347574\C,0,5.57164928,8.833
 19639,-2.90109637\H,0,6.53057983,8.29930104,-2.87271169\H,0,5.80180534
 ,9.88302684,-2.66108797\C,0,5.02821086,8.76068564,-4.34377269\H,0,4.74
 521218,7.71467941,-4.53974952\C,0,3.77966995,9.63342783,-4.55181615\H,
 0,4.00553855,10.68810193,-4.34705424\H,0,3.42381345,9.56585587,-5.5861
 6312\H,0,2.95214399,9.33625113,-3.90005987\C,0,6.12324562,9.14522726,-
 5.35160386\H,0,6.44940063,10.18180802,-5.19709104\H,0,5.76250867,9.061
 89447,-6.38312996\H,0,7.00416918,8.5008981,-5.25082423\\Version=EM64L-
 G09RevC.01\HF=-1273.6766631\RMSD=5.689e-07\Dipole=-0.0194412,1.0470983
 ,0.0603493\Quadrupole=0.1004174,-1.2240716,1.1236542,7.4048746,-7.7443
 01,-3.1490969\PG=C01 [X(C27H46O3)]\\@


 There ain't no surer way to find out whether you
 like people or hate them than to travel with them.
                                     -- Mark Twain
 Job cpu time:  0 days  0 hours 42 minutes 40.8 seconds.
 File lengths (MBytes):  RWF=    159 Int=      0 D2E=      0 Chk=     11 Scr=      1
 Normal termination of Gaussian 09 at Fri Apr 28 13:04:52 2017.
