 Entering Gaussian System, Link 0=/scratch/michal/g09//g09
 Input=JOB2-gau_m1-7-1.com
 Output=JOB2-gau_m1-7-1.log
 Initial command:
 /scratch/michal/g09/l1.exe /scratch/michal/gauss_scratch/Gau-41458.inp -scrdir=/scratch/michal/gauss_scratch/
 Entering Link 1 = /scratch/michal/g09/l1.exe PID=     41460.
  
 Copyright (c) 1988,1990,1992,1993,1995,1998,2003,2009,2011,
            Gaussian, Inc.  All Rights Reserved.
  
 This is part of the Gaussian(R) 09 program.  It is based on
 the Gaussian(R) 03 system (copyright 2003, Gaussian, Inc.),
 the Gaussian(R) 98 system (copyright 1998, Gaussian, Inc.),
 the Gaussian(R) 94 system (copyright 1995, Gaussian, Inc.),
 the Gaussian 92(TM) system (copyright 1992, Gaussian, Inc.),
 the Gaussian 90(TM) system (copyright 1990, Gaussian, Inc.),
 the Gaussian 88(TM) system (copyright 1988, Gaussian, Inc.),
 the Gaussian 86(TM) system (copyright 1986, Carnegie Mellon
 University), and the Gaussian 82(TM) system (copyright 1983,
 Carnegie Mellon University). Gaussian is a federally registered
 trademark of Gaussian, Inc.
  
 This software contains proprietary and confidential information,
 including trade secrets, belonging to Gaussian, Inc.
  
 This software is provided under written license and may be
 used, copied, transmitted, or stored only in accord with that
 written license.
  
 The following legend is applicable only to US Government
 contracts under FAR:
  
                    RESTRICTED RIGHTS LEGEND
  
 Use, reproduction and disclosure by the US Government is
 subject to restrictions as set forth in subparagraphs (a)
 and (c) of the Commercial Computer Software - Restricted
 Rights clause in FAR 52.227-19.
  
 Gaussian, Inc.
 340 Quinnipiac St., Bldg. 40, Wallingford CT 06492
  
  
 ---------------------------------------------------------------
 Warning -- This program may not be used in any manner that
 competes with the business of Gaussian, Inc. or will provide
 assistance to any competitor of Gaussian, Inc.  The licensee
 of this program is prohibited from giving any competitor of
 Gaussian, Inc. access to this program.  By using this program,
 the user acknowledges that Gaussian, Inc. is engaged in the
 business of creating and licensing software in the field of
 computational chemistry and represents and warrants to the
 licensee that it is not a competitor of Gaussian, Inc. and that
 it will not use this program in any manner prohibited above.
 ---------------------------------------------------------------
  

 Cite this work as:
 Gaussian 09, Revision C.01,
 M. J. Frisch, G. W. Trucks, H. B. Schlegel, G. E. Scuseria, 
 M. A. Robb, J. R. Cheeseman, G. Scalmani, V. Barone, B. Mennucci, 
 G. A. Petersson, H. Nakatsuji, M. Caricato, X. Li, H. P. Hratchian, 
 A. F. Izmaylov, J. Bloino, G. Zheng, J. L. Sonnenberg, M. Hada, 
 M. Ehara, K. Toyota, R. Fukuda, J. Hasegawa, M. Ishida, T. Nakajima, 
 Y. Honda, O. Kitao, H. Nakai, T. Vreven, J. A. Montgomery, Jr., 
 J. E. Peralta, F. Ogliaro, M. Bearpark, J. J. Heyd, E. Brothers, 
 K. N. Kudin, V. N. Staroverov, T. Keith, R. Kobayashi, J. Normand, 
 K. Raghavachari, A. Rendell, J. C. Burant, S. S. Iyengar, J. Tomasi, 
 M. Cossi, N. Rega, J. M. Millam, M. Klene, J. E. Knox, J. B. Cross, 
 V. Bakken, C. Adamo, J. Jaramillo, R. Gomperts, R. E. Stratmann, 
 O. Yazyev, A. J. Austin, R. Cammi, C. Pomelli, J. W. Ochterski, 
 R. L. Martin, K. Morokuma, V. G. Zakrzewski, G. A. Voth, 
 P. Salvador, J. J. Dannenberg, S. Dapprich, A. D. Daniels, 
 O. Farkas, J. B. Foresman, J. V. Ortiz, J. Cioslowski, 
 and D. J. Fox, Gaussian, Inc., Wallingford CT, 2010.
 
 ******************************************
 Gaussian 09:  EM64L-G09RevC.01 23-Sep-2011
                28-Apr-2017 
 ******************************************
 %Mem=256MB
 %NProc=48
 Will use up to   48 processors via shared memory.
 ----------------------------------------------------------------------
 #P HF/6-31G* SCF(Conver=6) NoSymm Test Pop=chelpg IOp(6/33=2) GFInput 
 GFPrint
 ----------------------------------------------------------------------
 1/38=1/1;
 2/12=2,15=1,17=6,18=5,40=1/2;
 3/5=1,6=6,7=1,11=9,16=1,24=110,25=1,30=1/1,2,3;
 4//1;
 5/5=2,6=6,38=5/2;
 6/7=2,8=2,9=2,10=2,15=8,20=3,28=1,33=2/1,2;
 99/5=1,9=1/99;
 Leave Link    1 at Fri Apr 28 12:29:31 2017, MaxMem=   33554432 cpu:       3.5
 (Enter /scratch/michal/g09/l101.exe)
 ----------------------------------------------
 MEP - Input generated by R.E.D.-III.x MOLECULE
 ----------------------------------------------
 Charge =  0 Multiplicity = 1
 Symbolic Z-Matrix:
 C                     1.75955  -1.24765  -0.07182 
 H                     1.87319  -1.12155  -1.15553 
 C                     3.15107  -1.31129   0.57286 
 H                     3.7296   -2.1271    0.12885 
 H                     3.01411  -1.5642    1.63701 
 C                     3.91302  -0.00447   0.45588 
 C                     3.18718   1.2711    0.8951 
 C                     1.74698   1.25389   0.29439 
 H                     1.8219    1.44994  -0.78432 
 H                     1.16313   2.07704   0.71972 
 C                     0.97759  -0.06144   0.49157 
 H                     0.78196  -0.23659   1.55987 
 H                     0.        0.        0. 
 C                     5.17254   0.        0. 
 H                     5.63847  -0.93359  -0.30731 
 C                     6.05863   1.20689  -0.09493 
 H                     6.3148    1.40661  -1.14704 
 C                     5.4815    2.47368   0.55796 
 H                     5.69817   2.40369   1.63209 
 C                     3.94291   2.52769   0.3425 
 H                     3.7927    2.50574  -0.74922 
 C                     3.35755   3.86608   0.84764 
 H                     3.39127   3.89387   1.94219 
 H                     2.29799   3.92748   0.57677 
 C                     4.07161   5.11593   0.29817 
 H                     3.91447   5.17755  -0.78846 
 H                     3.59894   6.00306   0.73073 
 C                     5.58801   5.08317   0.57595 
 C                     6.12126   3.74882  -0.02219 
 H                     5.82141   3.77197  -1.08407 
 C                     7.64899   3.91183   0. 
 H                     8.14558   3.27016  -0.73443 
 H                     8.05471   3.63609   0.97853 
 C                     7.86239   5.41984  -0.3004 
 H                     8.54976   5.86802   0.42704 
 H                     8.31781   5.56537  -1.28457 
 C                     6.4596    6.11291  -0.22543 
 H                     6.03902   6.13903  -1.24349 
 C                     5.87152   5.20252   2.09114 
 H                     5.44157   4.37556   2.66187 
 H                     6.94391   5.21864   2.30709 
 H                     5.4446    6.12725   2.49258 
 C                     6.54604   7.58411   0.2582 
 H                     7.02669   7.58299   1.24843 
 C                     5.16931   8.25889   0.39603 
 H                     4.59893   8.17588  -0.53753 
 H                     5.27061   9.32356   0.62686 
 H                     4.56851   7.81736   1.19435 
 C                     3.10536   1.28427   2.44504 
 H                     2.46301   2.09441   2.8042 
 H                     2.69082   0.34947   2.83122 
 H                     4.0962    1.40448   2.89306 
 O                     7.30295   0.95874   0.60731 
 O                     8.0356   -0.06458  -0.13188 
 H                     8.80207   0.45285  -0.42902 
 O                     1.05251  -2.48364   0.0638 
 H                     0.92143  -2.6635    1.00543 
 C                     7.45231   8.4122   -0.68924 
 H                     8.33587   7.82239  -0.95111 
 H                     6.911     8.58399  -1.63278 
 C                     7.92256   9.76092  -0.11994 
 H                     7.05701   10.3575   0.19231 
 H                     8.50476   9.58046   0.79396 
 C                     8.74161   10.61598  -1.10518 
 H                     8.94588   11.59013  -0.63647 
 H                     8.1158    10.82928  -1.98391 
 C                     10.08331   10.02959  -1.59428 
 H                     9.88183   9.06572  -2.0832 
 C                     10.71234   10.95543  -2.64787 
 H                     10.94299   11.93833  -2.21708 
 H                     11.6468   10.537   -3.03892 
 H                     10.03547   11.11453  -3.4952 
 C                     11.06831   9.7774   -0.44178 
 H                     11.28571   10.70983   0.09544 
 H                     12.0187   9.38251  -0.81849 
 H                     10.67837   9.05781   0.2854 
 
 NAtoms=     76 NQM=        0 NQMF=       0 NMMI=     76 NMMIF=      0
                NMic=       0 NMicF=      0.
                    Isotopes and Nuclear Properties:
 (Nuclear quadrupole moments (NQMom) in fm**2, nuclear magnetic moments (NMagM)
  in nuclear magnetons)

  Atom         1           2           3           4           5           6           7           8           9          10
 IAtWgt=          12           1          12           1           1          12          12          12           1           1
 AtmWgt=  12.0000000   1.0078250  12.0000000   1.0078250   1.0078250  12.0000000  12.0000000  12.0000000   1.0078250   1.0078250
 NucSpn=           0           1           0           1           1           0           0           0           1           1
 AtZEff=   0.0000000   0.0000000   0.0000000   0.0000000   0.0000000   0.0000000   0.0000000   0.0000000   0.0000000   0.0000000
 NQMom=    0.0000000   0.0000000   0.0000000   0.0000000   0.0000000   0.0000000   0.0000000   0.0000000   0.0000000   0.0000000
 NMagM=    0.0000000   2.7928460   0.0000000   2.7928460   2.7928460   0.0000000   0.0000000   0.0000000   2.7928460   2.7928460

  Atom        11          12          13          14          15          16          17          18          19          20
 IAtWgt=          12           1           1          12           1          12           1          12           1          12
 AtmWgt=  12.0000000   1.0078250   1.0078250  12.0000000   1.0078250  12.0000000   1.0078250  12.0000000   1.0078250  12.0000000
 NucSpn=           0           1           1           0           1           0           1           0           1           0
 AtZEff=   0.0000000   0.0000000   0.0000000   0.0000000   0.0000000   0.0000000   0.0000000   0.0000000   0.0000000   0.0000000
 NQMom=    0.0000000   0.0000000   0.0000000   0.0000000   0.0000000   0.0000000   0.0000000   0.0000000   0.0000000   0.0000000
 NMagM=    0.0000000   2.7928460   2.7928460   0.0000000   2.7928460   0.0000000   2.7928460   0.0000000   2.7928460   0.0000000

  Atom        21          22          23          24          25          26          27          28          29          30
 IAtWgt=           1          12           1           1          12           1           1          12          12           1
 AtmWgt=   1.0078250  12.0000000   1.0078250   1.0078250  12.0000000   1.0078250   1.0078250  12.0000000  12.0000000   1.0078250
 NucSpn=           1           0           1           1           0           1           1           0           0           1
 AtZEff=   0.0000000   0.0000000   0.0000000   0.0000000   0.0000000   0.0000000   0.0000000   0.0000000   0.0000000   0.0000000
 NQMom=    0.0000000   0.0000000   0.0000000   0.0000000   0.0000000   0.0000000   0.0000000   0.0000000   0.0000000   0.0000000
 NMagM=    2.7928460   0.0000000   2.7928460   2.7928460   0.0000000   2.7928460   2.7928460   0.0000000   0.0000000   2.7928460

  Atom        31          32          33          34          35          36          37          38          39          40
 IAtWgt=          12           1           1          12           1           1          12           1          12           1
 AtmWgt=  12.0000000   1.0078250   1.0078250  12.0000000   1.0078250   1.0078250  12.0000000   1.0078250  12.0000000   1.0078250
 NucSpn=           0           1           1           0           1           1           0           1           0           1
 AtZEff=   0.0000000   0.0000000   0.0000000   0.0000000   0.0000000   0.0000000   0.0000000   0.0000000   0.0000000   0.0000000
 NQMom=    0.0000000   0.0000000   0.0000000   0.0000000   0.0000000   0.0000000   0.0000000   0.0000000   0.0000000   0.0000000
 NMagM=    0.0000000   2.7928460   2.7928460   0.0000000   2.7928460   2.7928460   0.0000000   2.7928460   0.0000000   2.7928460

  Atom        41          42          43          44          45          46          47          48          49          50
 IAtWgt=           1           1          12           1          12           1           1           1          12           1
 AtmWgt=   1.0078250   1.0078250  12.0000000   1.0078250  12.0000000   1.0078250   1.0078250   1.0078250  12.0000000   1.0078250
 NucSpn=           1           1           0           1           0           1           1           1           0           1
 AtZEff=   0.0000000   0.0000000   0.0000000   0.0000000   0.0000000   0.0000000   0.0000000   0.0000000   0.0000000   0.0000000
 NQMom=    0.0000000   0.0000000   0.0000000   0.0000000   0.0000000   0.0000000   0.0000000   0.0000000   0.0000000   0.0000000
 NMagM=    2.7928460   2.7928460   0.0000000   2.7928460   0.0000000   2.7928460   2.7928460   2.7928460   0.0000000   2.7928460

  Atom        51          52          53          54          55          56          57          58          59          60
 IAtWgt=           1           1          16          16           1          16           1          12           1           1
 AtmWgt=   1.0078250   1.0078250  15.9949146  15.9949146   1.0078250  15.9949146   1.0078250  12.0000000   1.0078250   1.0078250
 NucSpn=           1           1           0           0           1           0           1           0           1           1
 AtZEff=   0.0000000   0.0000000   0.0000000   0.0000000   0.0000000   0.0000000   0.0000000   0.0000000   0.0000000   0.0000000
 NQMom=    0.0000000   0.0000000   0.0000000   0.0000000   0.0000000   0.0000000   0.0000000   0.0000000   0.0000000   0.0000000
 NMagM=    2.7928460   2.7928460   0.0000000   0.0000000   2.7928460   0.0000000   2.7928460   0.0000000   2.7928460   2.7928460

  Atom        61          62          63          64          65          66          67          68          69          70
 IAtWgt=          12           1           1          12           1           1          12           1          12           1
 AtmWgt=  12.0000000   1.0078250   1.0078250  12.0000000   1.0078250   1.0078250  12.0000000   1.0078250  12.0000000   1.0078250
 NucSpn=           0           1           1           0           1           1           0           1           0           1
 AtZEff=   0.0000000   0.0000000   0.0000000   0.0000000   0.0000000   0.0000000   0.0000000   0.0000000   0.0000000   0.0000000
 NQMom=    0.0000000   0.0000000   0.0000000   0.0000000   0.0000000   0.0000000   0.0000000   0.0000000   0.0000000   0.0000000
 NMagM=    0.0000000   2.7928460   2.7928460   0.0000000   2.7928460   2.7928460   0.0000000   2.7928460   0.0000000   2.7928460

  Atom        71          72          73          74          75          76
 IAtWgt=           1           1          12           1           1           1
 AtmWgt=   1.0078250   1.0078250  12.0000000   1.0078250   1.0078250   1.0078250
 NucSpn=           1           1           0           1           1           1
 AtZEff=   0.0000000   0.0000000   0.0000000   0.0000000   0.0000000   0.0000000
 NQMom=    0.0000000   0.0000000   0.0000000   0.0000000   0.0000000   0.0000000
 NMagM=    2.7928460   2.7928460   0.0000000   2.7928460   2.7928460   2.7928460
 Leave Link  101 at Fri Apr 28 12:29:31 2017, MaxMem=   33554432 cpu:      13.2
 (Enter /scratch/michal/g09/l202.exe)
 Symmetry turned off by external request.
 Stoichiometry    C27H46O3
 Framework group  C1[X(C27H46O3)]
 Deg. of freedom   222
 Full point group                 C1      NOp   1
                          Input orientation:                          
 ---------------------------------------------------------------------
 Center     Atomic      Atomic             Coordinates (Angstroms)
 Number     Number       Type             X           Y           Z
 ---------------------------------------------------------------------
      1          6           0        1.759548   -1.247655   -0.071817
      2          1           0        1.873186   -1.121549   -1.155529
      3          6           0        3.151073   -1.311293    0.572861
      4          1           0        3.729597   -2.127098    0.128848
      5          1           0        3.014110   -1.564196    1.637008
      6          6           0        3.913023   -0.004474    0.455876
      7          6           0        3.187180    1.271104    0.895101
      8          6           0        1.746984    1.253886    0.294390
      9          1           0        1.821896    1.449936   -0.784322
     10          1           0        1.163132    2.077042    0.719723
     11          6           0        0.977587   -0.061437    0.491571
     12          1           0        0.781958   -0.236589    1.559866
     13          1           0        0.000000    0.000000    0.000000
     14          6           0        5.172542    0.000000    0.000000
     15          1           0        5.638466   -0.933591   -0.307309
     16          6           0        6.058629    1.206889   -0.094929
     17          1           0        6.314795    1.406614   -1.147037
     18          6           0        5.481498    2.473679    0.557963
     19          1           0        5.698172    2.403687    1.632085
     20          6           0        3.942906    2.527689    0.342501
     21          1           0        3.792702    2.505738   -0.749218
     22          6           0        3.357554    3.866085    0.847641
     23          1           0        3.391273    3.893874    1.942191
     24          1           0        2.297993    3.927478    0.576765
     25          6           0        4.071606    5.115932    0.298168
     26          1           0        3.914469    5.177545   -0.788464
     27          1           0        3.598942    6.003058    0.730726
     28          6           0        5.588013    5.083167    0.575952
     29          6           0        6.121260    3.748825   -0.022186
     30          1           0        5.821412    3.771974   -1.084070
     31          6           0        7.648993    3.911830    0.000000
     32          1           0        8.145584    3.270159   -0.734433
     33          1           0        8.054713    3.636088    0.978525
     34          6           0        7.862391    5.419835   -0.300400
     35          1           0        8.549763    5.868015    0.427039
     36          1           0        8.317812    5.565372   -1.284569
     37          6           0        6.459601    6.112908   -0.225429
     38          1           0        6.039017    6.139026   -1.243486
     39          6           0        5.871521    5.202523    2.091143
     40          1           0        5.441571    4.375559    2.661865
     41          1           0        6.943907    5.218637    2.307093
     42          1           0        5.444602    6.127248    2.492581
     43          6           0        6.546035    7.584106    0.258195
     44          1           0        7.026690    7.582991    1.248429
     45          6           0        5.169306    8.258890    0.396030
     46          1           0        4.598933    8.175881   -0.537533
     47          1           0        5.270611    9.323560    0.626863
     48          1           0        4.568511    7.817358    1.194354
     49          6           0        3.105360    1.284269    2.445040
     50          1           0        2.463011    2.094406    2.804202
     51          1           0        2.690819    0.349470    2.831220
     52          1           0        4.096204    1.404483    2.893059
     53          8           0        7.302955    0.958740    0.607314
     54          8           0        8.035603   -0.064576   -0.131884
     55          1           0        8.802072    0.452854   -0.429017
     56          8           0        1.052507   -2.483644    0.063802
     57          1           0        0.921430   -2.663497    1.005427
     58          6           0        7.452314    8.412198   -0.689241
     59          1           0        8.335873    7.822394   -0.951110
     60          1           0        6.911005    8.583993   -1.632784
     61          6           0        7.922556    9.760915   -0.119942
     62          1           0        7.057008   10.357502    0.192307
     63          1           0        8.504762    9.580456    0.793959
     64          6           0        8.741613   10.615983   -1.105175
     65          1           0        8.945883   11.590126   -0.636471
     66          1           0        8.115798   10.829276   -1.983912
     67          6           0       10.083311   10.029589   -1.594276
     68          1           0        9.881828    9.065715   -2.083198
     69          6           0       10.712344   10.955435   -2.647872
     70          1           0       10.942987   11.938329   -2.217078
     71          1           0       11.646798   10.536997   -3.038923
     72          1           0       10.035469   11.114526   -3.495203
     73          6           0       11.068312    9.777404   -0.441775
     74          1           0       11.285710   10.709828    0.095440
     75          1           0       12.018704    9.382508   -0.818495
     76          1           0       10.678371    9.057809    0.285399
 ---------------------------------------------------------------------
 Rotational constants (GHZ):      0.3627673      0.0550777      0.0504347
 Leave Link  202 at Fri Apr 28 12:29:31 2017, MaxMem=   33554432 cpu:       0.1
 (Enter /scratch/michal/g09/l301.exe)
 Standard basis: 6-31G(d) (6D, 7F)
 Ernie: Thresh=  0.10000D-02 Tol=  0.10000D-05 Strict=F.
 AO basis set in the form of general basis input (Overlap normalization):
      1 0
 S   6 1.00       0.000000000000
      0.3047524880D+04  0.1834737132D-02
      0.4573695180D+03  0.1403732281D-01
      0.1039486850D+03  0.6884262226D-01
      0.2921015530D+02  0.2321844432D+00
      0.9286662960D+01  0.4679413484D+00
      0.3163926960D+01  0.3623119853D+00
 SP   3 1.00       0.000000000000
      0.7868272350D+01 -0.1193324198D+00  0.6899906659D-01
      0.1881288540D+01 -0.1608541517D+00  0.3164239610D+00
      0.5442492580D+00  0.1143456438D+01  0.7443082909D+00
 SP   1 1.00       0.000000000000
      0.1687144782D+00  0.1000000000D+01  0.1000000000D+01
 D   1 1.00       0.000000000000
      0.8000000000D+00  0.1000000000D+01
 ****
      2 0
 S   3 1.00       0.000000000000
      0.1873113696D+02  0.3349460434D-01
      0.2825394365D+01  0.2347269535D+00
      0.6401216923D+00  0.8137573261D+00
 S   1 1.00       0.000000000000
      0.1612777588D+00  0.1000000000D+01
 ****
      3 0
 S   6 1.00       0.000000000000
      0.3047524880D+04  0.1834737132D-02
      0.4573695180D+03  0.1403732281D-01
      0.1039486850D+03  0.6884262226D-01
      0.2921015530D+02  0.2321844432D+00
      0.9286662960D+01  0.4679413484D+00
      0.3163926960D+01  0.3623119853D+00
 SP   3 1.00       0.000000000000
      0.7868272350D+01 -0.1193324198D+00  0.6899906659D-01
      0.1881288540D+01 -0.1608541517D+00  0.3164239610D+00
      0.5442492580D+00  0.1143456438D+01  0.7443082909D+00
 SP   1 1.00       0.000000000000
      0.1687144782D+00  0.1000000000D+01  0.1000000000D+01
 D   1 1.00       0.000000000000
      0.8000000000D+00  0.1000000000D+01
 ****
      4 0
 S   3 1.00       0.000000000000
      0.1873113696D+02  0.3349460434D-01
      0.2825394365D+01  0.2347269535D+00
      0.6401216923D+00  0.8137573261D+00
 S   1 1.00       0.000000000000
      0.1612777588D+00  0.1000000000D+01
 ****
      5 0
 S   3 1.00       0.000000000000
      0.1873113696D+02  0.3349460434D-01
      0.2825394365D+01  0.2347269535D+00
      0.6401216923D+00  0.8137573261D+00
 S   1 1.00       0.000000000000
      0.1612777588D+00  0.1000000000D+01
 ****
      6 0
 S   6 1.00       0.000000000000
      0.3047524880D+04  0.1834737132D-02
      0.4573695180D+03  0.1403732281D-01
      0.1039486850D+03  0.6884262226D-01
      0.2921015530D+02  0.2321844432D+00
      0.9286662960D+01  0.4679413484D+00
      0.3163926960D+01  0.3623119853D+00
 SP   3 1.00       0.000000000000
      0.7868272350D+01 -0.1193324198D+00  0.6899906659D-01
      0.1881288540D+01 -0.1608541517D+00  0.3164239610D+00
      0.5442492580D+00  0.1143456438D+01  0.7443082909D+00
 SP   1 1.00       0.000000000000
      0.1687144782D+00  0.1000000000D+01  0.1000000000D+01
 D   1 1.00       0.000000000000
      0.8000000000D+00  0.1000000000D+01
 ****
      7 0
 S   6 1.00       0.000000000000
      0.3047524880D+04  0.1834737132D-02
      0.4573695180D+03  0.1403732281D-01
      0.1039486850D+03  0.6884262226D-01
      0.2921015530D+02  0.2321844432D+00
      0.9286662960D+01  0.4679413484D+00
      0.3163926960D+01  0.3623119853D+00
 SP   3 1.00       0.000000000000
      0.7868272350D+01 -0.1193324198D+00  0.6899906659D-01
      0.1881288540D+01 -0.1608541517D+00  0.3164239610D+00
      0.5442492580D+00  0.1143456438D+01  0.7443082909D+00
 SP   1 1.00       0.000000000000
      0.1687144782D+00  0.1000000000D+01  0.1000000000D+01
 D   1 1.00       0.000000000000
      0.8000000000D+00  0.1000000000D+01
 ****
      8 0
 S   6 1.00       0.000000000000
      0.3047524880D+04  0.1834737132D-02
      0.4573695180D+03  0.1403732281D-01
      0.1039486850D+03  0.6884262226D-01
      0.2921015530D+02  0.2321844432D+00
      0.9286662960D+01  0.4679413484D+00
      0.3163926960D+01  0.3623119853D+00
 SP   3 1.00       0.000000000000
      0.7868272350D+01 -0.1193324198D+00  0.6899906659D-01
      0.1881288540D+01 -0.1608541517D+00  0.3164239610D+00
      0.5442492580D+00  0.1143456438D+01  0.7443082909D+00
 SP   1 1.00       0.000000000000
      0.1687144782D+00  0.1000000000D+01  0.1000000000D+01
 D   1 1.00       0.000000000000
      0.8000000000D+00  0.1000000000D+01
 ****
      9 0
 S   3 1.00       0.000000000000
      0.1873113696D+02  0.3349460434D-01
      0.2825394365D+01  0.2347269535D+00
      0.6401216923D+00  0.8137573261D+00
 S   1 1.00       0.000000000000
      0.1612777588D+00  0.1000000000D+01
 ****
     10 0
 S   3 1.00       0.000000000000
      0.1873113696D+02  0.3349460434D-01
      0.2825394365D+01  0.2347269535D+00
      0.6401216923D+00  0.8137573261D+00
 S   1 1.00       0.000000000000
      0.1612777588D+00  0.1000000000D+01
 ****
     11 0
 S   6 1.00       0.000000000000
      0.3047524880D+04  0.1834737132D-02
      0.4573695180D+03  0.1403732281D-01
      0.1039486850D+03  0.6884262226D-01
      0.2921015530D+02  0.2321844432D+00
      0.9286662960D+01  0.4679413484D+00
      0.3163926960D+01  0.3623119853D+00
 SP   3 1.00       0.000000000000
      0.7868272350D+01 -0.1193324198D+00  0.6899906659D-01
      0.1881288540D+01 -0.1608541517D+00  0.3164239610D+00
      0.5442492580D+00  0.1143456438D+01  0.7443082909D+00
 SP   1 1.00       0.000000000000
      0.1687144782D+00  0.1000000000D+01  0.1000000000D+01
 D   1 1.00       0.000000000000
      0.8000000000D+00  0.1000000000D+01
 ****
     12 0
 S   3 1.00       0.000000000000
      0.1873113696D+02  0.3349460434D-01
      0.2825394365D+01  0.2347269535D+00
      0.6401216923D+00  0.8137573261D+00
 S   1 1.00       0.000000000000
      0.1612777588D+00  0.1000000000D+01
 ****
     13 0
 S   3 1.00       0.000000000000
      0.1873113696D+02  0.3349460434D-01
      0.2825394365D+01  0.2347269535D+00
      0.6401216923D+00  0.8137573261D+00
 S   1 1.00       0.000000000000
      0.1612777588D+00  0.1000000000D+01
 ****
     14 0
 S   6 1.00       0.000000000000
      0.3047524880D+04  0.1834737132D-02
      0.4573695180D+03  0.1403732281D-01
      0.1039486850D+03  0.6884262226D-01
      0.2921015530D+02  0.2321844432D+00
      0.9286662960D+01  0.4679413484D+00
      0.3163926960D+01  0.3623119853D+00
 SP   3 1.00       0.000000000000
      0.7868272350D+01 -0.1193324198D+00  0.6899906659D-01
      0.1881288540D+01 -0.1608541517D+00  0.3164239610D+00
      0.5442492580D+00  0.1143456438D+01  0.7443082909D+00
 SP   1 1.00       0.000000000000
      0.1687144782D+00  0.1000000000D+01  0.1000000000D+01
 D   1 1.00       0.000000000000
      0.8000000000D+00  0.1000000000D+01
 ****
     15 0
 S   3 1.00       0.000000000000
      0.1873113696D+02  0.3349460434D-01
      0.2825394365D+01  0.2347269535D+00
      0.6401216923D+00  0.8137573261D+00
 S   1 1.00       0.000000000000
      0.1612777588D+00  0.1000000000D+01
 ****
     16 0
 S   6 1.00       0.000000000000
      0.3047524880D+04  0.1834737132D-02
      0.4573695180D+03  0.1403732281D-01
      0.1039486850D+03  0.6884262226D-01
      0.2921015530D+02  0.2321844432D+00
      0.9286662960D+01  0.4679413484D+00
      0.3163926960D+01  0.3623119853D+00
 SP   3 1.00       0.000000000000
      0.7868272350D+01 -0.1193324198D+00  0.6899906659D-01
      0.1881288540D+01 -0.1608541517D+00  0.3164239610D+00
      0.5442492580D+00  0.1143456438D+01  0.7443082909D+00
 SP   1 1.00       0.000000000000
      0.1687144782D+00  0.1000000000D+01  0.1000000000D+01
 D   1 1.00       0.000000000000
      0.8000000000D+00  0.1000000000D+01
 ****
     17 0
 S   3 1.00       0.000000000000
      0.1873113696D+02  0.3349460434D-01
      0.2825394365D+01  0.2347269535D+00
      0.6401216923D+00  0.8137573261D+00
 S   1 1.00       0.000000000000
      0.1612777588D+00  0.1000000000D+01
 ****
     18 0
 S   6 1.00       0.000000000000
      0.3047524880D+04  0.1834737132D-02
      0.4573695180D+03  0.1403732281D-01
      0.1039486850D+03  0.6884262226D-01
      0.2921015530D+02  0.2321844432D+00
      0.9286662960D+01  0.4679413484D+00
      0.3163926960D+01  0.3623119853D+00
 SP   3 1.00       0.000000000000
      0.7868272350D+01 -0.1193324198D+00  0.6899906659D-01
      0.1881288540D+01 -0.1608541517D+00  0.3164239610D+00
      0.5442492580D+00  0.1143456438D+01  0.7443082909D+00
 SP   1 1.00       0.000000000000
      0.1687144782D+00  0.1000000000D+01  0.1000000000D+01
 D   1 1.00       0.000000000000
      0.8000000000D+00  0.1000000000D+01
 ****
     19 0
 S   3 1.00       0.000000000000
      0.1873113696D+02  0.3349460434D-01
      0.2825394365D+01  0.2347269535D+00
      0.6401216923D+00  0.8137573261D+00
 S   1 1.00       0.000000000000
      0.1612777588D+00  0.1000000000D+01
 ****
     20 0
 S   6 1.00       0.000000000000
      0.3047524880D+04  0.1834737132D-02
      0.4573695180D+03  0.1403732281D-01
      0.1039486850D+03  0.6884262226D-01
      0.2921015530D+02  0.2321844432D+00
      0.9286662960D+01  0.4679413484D+00
      0.3163926960D+01  0.3623119853D+00
 SP   3 1.00       0.000000000000
      0.7868272350D+01 -0.1193324198D+00  0.6899906659D-01
      0.1881288540D+01 -0.1608541517D+00  0.3164239610D+00
      0.5442492580D+00  0.1143456438D+01  0.7443082909D+00
 SP   1 1.00       0.000000000000
      0.1687144782D+00  0.1000000000D+01  0.1000000000D+01
 D   1 1.00       0.000000000000
      0.8000000000D+00  0.1000000000D+01
 ****
     21 0
 S   3 1.00       0.000000000000
      0.1873113696D+02  0.3349460434D-01
      0.2825394365D+01  0.2347269535D+00
      0.6401216923D+00  0.8137573261D+00
 S   1 1.00       0.000000000000
      0.1612777588D+00  0.1000000000D+01
 ****
     22 0
 S   6 1.00       0.000000000000
      0.3047524880D+04  0.1834737132D-02
      0.4573695180D+03  0.1403732281D-01
      0.1039486850D+03  0.6884262226D-01
      0.2921015530D+02  0.2321844432D+00
      0.9286662960D+01  0.4679413484D+00
      0.3163926960D+01  0.3623119853D+00
 SP   3 1.00       0.000000000000
      0.7868272350D+01 -0.1193324198D+00  0.6899906659D-01
      0.1881288540D+01 -0.1608541517D+00  0.3164239610D+00
      0.5442492580D+00  0.1143456438D+01  0.7443082909D+00
 SP   1 1.00       0.000000000000
      0.1687144782D+00  0.1000000000D+01  0.1000000000D+01
 D   1 1.00       0.000000000000
      0.8000000000D+00  0.1000000000D+01
 ****
     23 0
 S   3 1.00       0.000000000000
      0.1873113696D+02  0.3349460434D-01
      0.2825394365D+01  0.2347269535D+00
      0.6401216923D+00  0.8137573261D+00
 S   1 1.00       0.000000000000
      0.1612777588D+00  0.1000000000D+01
 ****
     24 0
 S   3 1.00       0.000000000000
      0.1873113696D+02  0.3349460434D-01
      0.2825394365D+01  0.2347269535D+00
      0.6401216923D+00  0.8137573261D+00
 S   1 1.00       0.000000000000
      0.1612777588D+00  0.1000000000D+01
 ****
     25 0
 S   6 1.00       0.000000000000
      0.3047524880D+04  0.1834737132D-02
      0.4573695180D+03  0.1403732281D-01
      0.1039486850D+03  0.6884262226D-01
      0.2921015530D+02  0.2321844432D+00
      0.9286662960D+01  0.4679413484D+00
      0.3163926960D+01  0.3623119853D+00
 SP   3 1.00       0.000000000000
      0.7868272350D+01 -0.1193324198D+00  0.6899906659D-01
      0.1881288540D+01 -0.1608541517D+00  0.3164239610D+00
      0.5442492580D+00  0.1143456438D+01  0.7443082909D+00
 SP   1 1.00       0.000000000000
      0.1687144782D+00  0.1000000000D+01  0.1000000000D+01
 D   1 1.00       0.000000000000
      0.8000000000D+00  0.1000000000D+01
 ****
     26 0
 S   3 1.00       0.000000000000
      0.1873113696D+02  0.3349460434D-01
      0.2825394365D+01  0.2347269535D+00
      0.6401216923D+00  0.8137573261D+00
 S   1 1.00       0.000000000000
      0.1612777588D+00  0.1000000000D+01
 ****
     27 0
 S   3 1.00       0.000000000000
      0.1873113696D+02  0.3349460434D-01
      0.2825394365D+01  0.2347269535D+00
      0.6401216923D+00  0.8137573261D+00
 S   1 1.00       0.000000000000
      0.1612777588D+00  0.1000000000D+01
 ****
     28 0
 S   6 1.00       0.000000000000
      0.3047524880D+04  0.1834737132D-02
      0.4573695180D+03  0.1403732281D-01
      0.1039486850D+03  0.6884262226D-01
      0.2921015530D+02  0.2321844432D+00
      0.9286662960D+01  0.4679413484D+00
      0.3163926960D+01  0.3623119853D+00
 SP   3 1.00       0.000000000000
      0.7868272350D+01 -0.1193324198D+00  0.6899906659D-01
      0.1881288540D+01 -0.1608541517D+00  0.3164239610D+00
      0.5442492580D+00  0.1143456438D+01  0.7443082909D+00
 SP   1 1.00       0.000000000000
      0.1687144782D+00  0.1000000000D+01  0.1000000000D+01
 D   1 1.00       0.000000000000
      0.8000000000D+00  0.1000000000D+01
 ****
     29 0
 S   6 1.00       0.000000000000
      0.3047524880D+04  0.1834737132D-02
      0.4573695180D+03  0.1403732281D-01
      0.1039486850D+03  0.6884262226D-01
      0.2921015530D+02  0.2321844432D+00
      0.9286662960D+01  0.4679413484D+00
      0.3163926960D+01  0.3623119853D+00
 SP   3 1.00       0.000000000000
      0.7868272350D+01 -0.1193324198D+00  0.6899906659D-01
      0.1881288540D+01 -0.1608541517D+00  0.3164239610D+00
      0.5442492580D+00  0.1143456438D+01  0.7443082909D+00
 SP   1 1.00       0.000000000000
      0.1687144782D+00  0.1000000000D+01  0.1000000000D+01
 D   1 1.00       0.000000000000
      0.8000000000D+00  0.1000000000D+01
 ****
     30 0
 S   3 1.00       0.000000000000
      0.1873113696D+02  0.3349460434D-01
      0.2825394365D+01  0.2347269535D+00
      0.6401216923D+00  0.8137573261D+00
 S   1 1.00       0.000000000000
      0.1612777588D+00  0.1000000000D+01
 ****
     31 0
 S   6 1.00       0.000000000000
      0.3047524880D+04  0.1834737132D-02
      0.4573695180D+03  0.1403732281D-01
      0.1039486850D+03  0.6884262226D-01
      0.2921015530D+02  0.2321844432D+00
      0.9286662960D+01  0.4679413484D+00
      0.3163926960D+01  0.3623119853D+00
 SP   3 1.00       0.000000000000
      0.7868272350D+01 -0.1193324198D+00  0.6899906659D-01
      0.1881288540D+01 -0.1608541517D+00  0.3164239610D+00
      0.5442492580D+00  0.1143456438D+01  0.7443082909D+00
 SP   1 1.00       0.000000000000
      0.1687144782D+00  0.1000000000D+01  0.1000000000D+01
 D   1 1.00       0.000000000000
      0.8000000000D+00  0.1000000000D+01
 ****
     32 0
 S   3 1.00       0.000000000000
      0.1873113696D+02  0.3349460434D-01
      0.2825394365D+01  0.2347269535D+00
      0.6401216923D+00  0.8137573261D+00
 S   1 1.00       0.000000000000
      0.1612777588D+00  0.1000000000D+01
 ****
     33 0
 S   3 1.00       0.000000000000
      0.1873113696D+02  0.3349460434D-01
      0.2825394365D+01  0.2347269535D+00
      0.6401216923D+00  0.8137573261D+00
 S   1 1.00       0.000000000000
      0.1612777588D+00  0.1000000000D+01
 ****
     34 0
 S   6 1.00       0.000000000000
      0.3047524880D+04  0.1834737132D-02
      0.4573695180D+03  0.1403732281D-01
      0.1039486850D+03  0.6884262226D-01
      0.2921015530D+02  0.2321844432D+00
      0.9286662960D+01  0.4679413484D+00
      0.3163926960D+01  0.3623119853D+00
 SP   3 1.00       0.000000000000
      0.7868272350D+01 -0.1193324198D+00  0.6899906659D-01
      0.1881288540D+01 -0.1608541517D+00  0.3164239610D+00
      0.5442492580D+00  0.1143456438D+01  0.7443082909D+00
 SP   1 1.00       0.000000000000
      0.1687144782D+00  0.1000000000D+01  0.1000000000D+01
 D   1 1.00       0.000000000000
      0.8000000000D+00  0.1000000000D+01
 ****
     35 0
 S   3 1.00       0.000000000000
      0.1873113696D+02  0.3349460434D-01
      0.2825394365D+01  0.2347269535D+00
      0.6401216923D+00  0.8137573261D+00
 S   1 1.00       0.000000000000
      0.1612777588D+00  0.1000000000D+01
 ****
     36 0
 S   3 1.00       0.000000000000
      0.1873113696D+02  0.3349460434D-01
      0.2825394365D+01  0.2347269535D+00
      0.6401216923D+00  0.8137573261D+00
 S   1 1.00       0.000000000000
      0.1612777588D+00  0.1000000000D+01
 ****
     37 0
 S   6 1.00       0.000000000000
      0.3047524880D+04  0.1834737132D-02
      0.4573695180D+03  0.1403732281D-01
      0.1039486850D+03  0.6884262226D-01
      0.2921015530D+02  0.2321844432D+00
      0.9286662960D+01  0.4679413484D+00
      0.3163926960D+01  0.3623119853D+00
 SP   3 1.00       0.000000000000
      0.7868272350D+01 -0.1193324198D+00  0.6899906659D-01
      0.1881288540D+01 -0.1608541517D+00  0.3164239610D+00
      0.5442492580D+00  0.1143456438D+01  0.7443082909D+00
 SP   1 1.00       0.000000000000
      0.1687144782D+00  0.1000000000D+01  0.1000000000D+01
 D   1 1.00       0.000000000000
      0.8000000000D+00  0.1000000000D+01
 ****
     38 0
 S   3 1.00       0.000000000000
      0.1873113696D+02  0.3349460434D-01
      0.2825394365D+01  0.2347269535D+00
      0.6401216923D+00  0.8137573261D+00
 S   1 1.00       0.000000000000
      0.1612777588D+00  0.1000000000D+01
 ****
     39 0
 S   6 1.00       0.000000000000
      0.3047524880D+04  0.1834737132D-02
      0.4573695180D+03  0.1403732281D-01
      0.1039486850D+03  0.6884262226D-01
      0.2921015530D+02  0.2321844432D+00
      0.9286662960D+01  0.4679413484D+00
      0.3163926960D+01  0.3623119853D+00
 SP   3 1.00       0.000000000000
      0.7868272350D+01 -0.1193324198D+00  0.6899906659D-01
      0.1881288540D+01 -0.1608541517D+00  0.3164239610D+00
      0.5442492580D+00  0.1143456438D+01  0.7443082909D+00
 SP   1 1.00       0.000000000000
      0.1687144782D+00  0.1000000000D+01  0.1000000000D+01
 D   1 1.00       0.000000000000
      0.8000000000D+00  0.1000000000D+01
 ****
     40 0
 S   3 1.00       0.000000000000
      0.1873113696D+02  0.3349460434D-01
      0.2825394365D+01  0.2347269535D+00
      0.6401216923D+00  0.8137573261D+00
 S   1 1.00       0.000000000000
      0.1612777588D+00  0.1000000000D+01
 ****
     41 0
 S   3 1.00       0.000000000000
      0.1873113696D+02  0.3349460434D-01
      0.2825394365D+01  0.2347269535D+00
      0.6401216923D+00  0.8137573261D+00
 S   1 1.00       0.000000000000
      0.1612777588D+00  0.1000000000D+01
 ****
     42 0
 S   3 1.00       0.000000000000
      0.1873113696D+02  0.3349460434D-01
      0.2825394365D+01  0.2347269535D+00
      0.6401216923D+00  0.8137573261D+00
 S   1 1.00       0.000000000000
      0.1612777588D+00  0.1000000000D+01
 ****
     43 0
 S   6 1.00       0.000000000000
      0.3047524880D+04  0.1834737132D-02
      0.4573695180D+03  0.1403732281D-01
      0.1039486850D+03  0.6884262226D-01
      0.2921015530D+02  0.2321844432D+00
      0.9286662960D+01  0.4679413484D+00
      0.3163926960D+01  0.3623119853D+00
 SP   3 1.00       0.000000000000
      0.7868272350D+01 -0.1193324198D+00  0.6899906659D-01
      0.1881288540D+01 -0.1608541517D+00  0.3164239610D+00
      0.5442492580D+00  0.1143456438D+01  0.7443082909D+00
 SP   1 1.00       0.000000000000
      0.1687144782D+00  0.1000000000D+01  0.1000000000D+01
 D   1 1.00       0.000000000000
      0.8000000000D+00  0.1000000000D+01
 ****
     44 0
 S   3 1.00       0.000000000000
      0.1873113696D+02  0.3349460434D-01
      0.2825394365D+01  0.2347269535D+00
      0.6401216923D+00  0.8137573261D+00
 S   1 1.00       0.000000000000
      0.1612777588D+00  0.1000000000D+01
 ****
     45 0
 S   6 1.00       0.000000000000
      0.3047524880D+04  0.1834737132D-02
      0.4573695180D+03  0.1403732281D-01
      0.1039486850D+03  0.6884262226D-01
      0.2921015530D+02  0.2321844432D+00
      0.9286662960D+01  0.4679413484D+00
      0.3163926960D+01  0.3623119853D+00
 SP   3 1.00       0.000000000000
      0.7868272350D+01 -0.1193324198D+00  0.6899906659D-01
      0.1881288540D+01 -0.1608541517D+00  0.3164239610D+00
      0.5442492580D+00  0.1143456438D+01  0.7443082909D+00
 SP   1 1.00       0.000000000000
      0.1687144782D+00  0.1000000000D+01  0.1000000000D+01
 D   1 1.00       0.000000000000
      0.8000000000D+00  0.1000000000D+01
 ****
     46 0
 S   3 1.00       0.000000000000
      0.1873113696D+02  0.3349460434D-01
      0.2825394365D+01  0.2347269535D+00
      0.6401216923D+00  0.8137573261D+00
 S   1 1.00       0.000000000000
      0.1612777588D+00  0.1000000000D+01
 ****
     47 0
 S   3 1.00       0.000000000000
      0.1873113696D+02  0.3349460434D-01
      0.2825394365D+01  0.2347269535D+00
      0.6401216923D+00  0.8137573261D+00
 S   1 1.00       0.000000000000
      0.1612777588D+00  0.1000000000D+01
 ****
     48 0
 S   3 1.00       0.000000000000
      0.1873113696D+02  0.3349460434D-01
      0.2825394365D+01  0.2347269535D+00
      0.6401216923D+00  0.8137573261D+00
 S   1 1.00       0.000000000000
      0.1612777588D+00  0.1000000000D+01
 ****
     49 0
 S   6 1.00       0.000000000000
      0.3047524880D+04  0.1834737132D-02
      0.4573695180D+03  0.1403732281D-01
      0.1039486850D+03  0.6884262226D-01
      0.2921015530D+02  0.2321844432D+00
      0.9286662960D+01  0.4679413484D+00
      0.3163926960D+01  0.3623119853D+00
 SP   3 1.00       0.000000000000
      0.7868272350D+01 -0.1193324198D+00  0.6899906659D-01
      0.1881288540D+01 -0.1608541517D+00  0.3164239610D+00
      0.5442492580D+00  0.1143456438D+01  0.7443082909D+00
 SP   1 1.00       0.000000000000
      0.1687144782D+00  0.1000000000D+01  0.1000000000D+01
 D   1 1.00       0.000000000000
      0.8000000000D+00  0.1000000000D+01
 ****
     50 0
 S   3 1.00       0.000000000000
      0.1873113696D+02  0.3349460434D-01
      0.2825394365D+01  0.2347269535D+00
      0.6401216923D+00  0.8137573261D+00
 S   1 1.00       0.000000000000
      0.1612777588D+00  0.1000000000D+01
 ****
     51 0
 S   3 1.00       0.000000000000
      0.1873113696D+02  0.3349460434D-01
      0.2825394365D+01  0.2347269535D+00
      0.6401216923D+00  0.8137573261D+00
 S   1 1.00       0.000000000000
      0.1612777588D+00  0.1000000000D+01
 ****
     52 0
 S   3 1.00       0.000000000000
      0.1873113696D+02  0.3349460434D-01
      0.2825394365D+01  0.2347269535D+00
      0.6401216923D+00  0.8137573261D+00
 S   1 1.00       0.000000000000
      0.1612777588D+00  0.1000000000D+01
 ****
     53 0
 S   6 1.00       0.000000000000
      0.5484671660D+04  0.1831074430D-02
      0.8252349460D+03  0.1395017220D-01
      0.1880469580D+03  0.6844507810D-01
      0.5296450000D+02  0.2327143360D+00
      0.1689757040D+02  0.4701928980D+00
      0.5799635340D+01  0.3585208530D+00
 SP   3 1.00       0.000000000000
      0.1553961625D+02 -0.1107775495D+00  0.7087426823D-01
      0.3599933586D+01 -0.1480262627D+00  0.3397528391D+00
      0.1013761750D+01  0.1130767015D+01  0.7271585773D+00
 SP   1 1.00       0.000000000000
      0.2700058226D+00  0.1000000000D+01  0.1000000000D+01
 D   1 1.00       0.000000000000
      0.8000000000D+00  0.1000000000D+01
 ****
     54 0
 S   6 1.00       0.000000000000
      0.5484671660D+04  0.1831074430D-02
      0.8252349460D+03  0.1395017220D-01
      0.1880469580D+03  0.6844507810D-01
      0.5296450000D+02  0.2327143360D+00
      0.1689757040D+02  0.4701928980D+00
      0.5799635340D+01  0.3585208530D+00
 SP   3 1.00       0.000000000000
      0.1553961625D+02 -0.1107775495D+00  0.7087426823D-01
      0.3599933586D+01 -0.1480262627D+00  0.3397528391D+00
      0.1013761750D+01  0.1130767015D+01  0.7271585773D+00
 SP   1 1.00       0.000000000000
      0.2700058226D+00  0.1000000000D+01  0.1000000000D+01
 D   1 1.00       0.000000000000
      0.8000000000D+00  0.1000000000D+01
 ****
     55 0
 S   3 1.00       0.000000000000
      0.1873113696D+02  0.3349460434D-01
      0.2825394365D+01  0.2347269535D+00
      0.6401216923D+00  0.8137573261D+00
 S   1 1.00       0.000000000000
      0.1612777588D+00  0.1000000000D+01
 ****
     56 0
 S   6 1.00       0.000000000000
      0.5484671660D+04  0.1831074430D-02
      0.8252349460D+03  0.1395017220D-01
      0.1880469580D+03  0.6844507810D-01
      0.5296450000D+02  0.2327143360D+00
      0.1689757040D+02  0.4701928980D+00
      0.5799635340D+01  0.3585208530D+00
 SP   3 1.00       0.000000000000
      0.1553961625D+02 -0.1107775495D+00  0.7087426823D-01
      0.3599933586D+01 -0.1480262627D+00  0.3397528391D+00
      0.1013761750D+01  0.1130767015D+01  0.7271585773D+00
 SP   1 1.00       0.000000000000
      0.2700058226D+00  0.1000000000D+01  0.1000000000D+01
 D   1 1.00       0.000000000000
      0.8000000000D+00  0.1000000000D+01
 ****
     57 0
 S   3 1.00       0.000000000000
      0.1873113696D+02  0.3349460434D-01
      0.2825394365D+01  0.2347269535D+00
      0.6401216923D+00  0.8137573261D+00
 S   1 1.00       0.000000000000
      0.1612777588D+00  0.1000000000D+01
 ****
     58 0
 S   6 1.00       0.000000000000
      0.3047524880D+04  0.1834737132D-02
      0.4573695180D+03  0.1403732281D-01
      0.1039486850D+03  0.6884262226D-01
      0.2921015530D+02  0.2321844432D+00
      0.9286662960D+01  0.4679413484D+00
      0.3163926960D+01  0.3623119853D+00
 SP   3 1.00       0.000000000000
      0.7868272350D+01 -0.1193324198D+00  0.6899906659D-01
      0.1881288540D+01 -0.1608541517D+00  0.3164239610D+00
      0.5442492580D+00  0.1143456438D+01  0.7443082909D+00
 SP   1 1.00       0.000000000000
      0.1687144782D+00  0.1000000000D+01  0.1000000000D+01
 D   1 1.00       0.000000000000
      0.8000000000D+00  0.1000000000D+01
 ****
     59 0
 S   3 1.00       0.000000000000
      0.1873113696D+02  0.3349460434D-01
      0.2825394365D+01  0.2347269535D+00
      0.6401216923D+00  0.8137573261D+00
 S   1 1.00       0.000000000000
      0.1612777588D+00  0.1000000000D+01
 ****
     60 0
 S   3 1.00       0.000000000000
      0.1873113696D+02  0.3349460434D-01
      0.2825394365D+01  0.2347269535D+00
      0.6401216923D+00  0.8137573261D+00
 S   1 1.00       0.000000000000
      0.1612777588D+00  0.1000000000D+01
 ****
     61 0
 S   6 1.00       0.000000000000
      0.3047524880D+04  0.1834737132D-02
      0.4573695180D+03  0.1403732281D-01
      0.1039486850D+03  0.6884262226D-01
      0.2921015530D+02  0.2321844432D+00
      0.9286662960D+01  0.4679413484D+00
      0.3163926960D+01  0.3623119853D+00
 SP   3 1.00       0.000000000000
      0.7868272350D+01 -0.1193324198D+00  0.6899906659D-01
      0.1881288540D+01 -0.1608541517D+00  0.3164239610D+00
      0.5442492580D+00  0.1143456438D+01  0.7443082909D+00
 SP   1 1.00       0.000000000000
      0.1687144782D+00  0.1000000000D+01  0.1000000000D+01
 D   1 1.00       0.000000000000
      0.8000000000D+00  0.1000000000D+01
 ****
     62 0
 S   3 1.00       0.000000000000
      0.1873113696D+02  0.3349460434D-01
      0.2825394365D+01  0.2347269535D+00
      0.6401216923D+00  0.8137573261D+00
 S   1 1.00       0.000000000000
      0.1612777588D+00  0.1000000000D+01
 ****
     63 0
 S   3 1.00       0.000000000000
      0.1873113696D+02  0.3349460434D-01
      0.2825394365D+01  0.2347269535D+00
      0.6401216923D+00  0.8137573261D+00
 S   1 1.00       0.000000000000
      0.1612777588D+00  0.1000000000D+01
 ****
     64 0
 S   6 1.00       0.000000000000
      0.3047524880D+04  0.1834737132D-02
      0.4573695180D+03  0.1403732281D-01
      0.1039486850D+03  0.6884262226D-01
      0.2921015530D+02  0.2321844432D+00
      0.9286662960D+01  0.4679413484D+00
      0.3163926960D+01  0.3623119853D+00
 SP   3 1.00       0.000000000000
      0.7868272350D+01 -0.1193324198D+00  0.6899906659D-01
      0.1881288540D+01 -0.1608541517D+00  0.3164239610D+00
      0.5442492580D+00  0.1143456438D+01  0.7443082909D+00
 SP   1 1.00       0.000000000000
      0.1687144782D+00  0.1000000000D+01  0.1000000000D+01
 D   1 1.00       0.000000000000
      0.8000000000D+00  0.1000000000D+01
 ****
     65 0
 S   3 1.00       0.000000000000
      0.1873113696D+02  0.3349460434D-01
      0.2825394365D+01  0.2347269535D+00
      0.6401216923D+00  0.8137573261D+00
 S   1 1.00       0.000000000000
      0.1612777588D+00  0.1000000000D+01
 ****
     66 0
 S   3 1.00       0.000000000000
      0.1873113696D+02  0.3349460434D-01
      0.2825394365D+01  0.2347269535D+00
      0.6401216923D+00  0.8137573261D+00
 S   1 1.00       0.000000000000
      0.1612777588D+00  0.1000000000D+01
 ****
     67 0
 S   6 1.00       0.000000000000
      0.3047524880D+04  0.1834737132D-02
      0.4573695180D+03  0.1403732281D-01
      0.1039486850D+03  0.6884262226D-01
      0.2921015530D+02  0.2321844432D+00
      0.9286662960D+01  0.4679413484D+00
      0.3163926960D+01  0.3623119853D+00
 SP   3 1.00       0.000000000000
      0.7868272350D+01 -0.1193324198D+00  0.6899906659D-01
      0.1881288540D+01 -0.1608541517D+00  0.3164239610D+00
      0.5442492580D+00  0.1143456438D+01  0.7443082909D+00
 SP   1 1.00       0.000000000000
      0.1687144782D+00  0.1000000000D+01  0.1000000000D+01
 D   1 1.00       0.000000000000
      0.8000000000D+00  0.1000000000D+01
 ****
     68 0
 S   3 1.00       0.000000000000
      0.1873113696D+02  0.3349460434D-01
      0.2825394365D+01  0.2347269535D+00
      0.6401216923D+00  0.8137573261D+00
 S   1 1.00       0.000000000000
      0.1612777588D+00  0.1000000000D+01
 ****
     69 0
 S   6 1.00       0.000000000000
      0.3047524880D+04  0.1834737132D-02
      0.4573695180D+03  0.1403732281D-01
      0.1039486850D+03  0.6884262226D-01
      0.2921015530D+02  0.2321844432D+00
      0.9286662960D+01  0.4679413484D+00
      0.3163926960D+01  0.3623119853D+00
 SP   3 1.00       0.000000000000
      0.7868272350D+01 -0.1193324198D+00  0.6899906659D-01
      0.1881288540D+01 -0.1608541517D+00  0.3164239610D+00
      0.5442492580D+00  0.1143456438D+01  0.7443082909D+00
 SP   1 1.00       0.000000000000
      0.1687144782D+00  0.1000000000D+01  0.1000000000D+01
 D   1 1.00       0.000000000000
      0.8000000000D+00  0.1000000000D+01
 ****
     70 0
 S   3 1.00       0.000000000000
      0.1873113696D+02  0.3349460434D-01
      0.2825394365D+01  0.2347269535D+00
      0.6401216923D+00  0.8137573261D+00
 S   1 1.00       0.000000000000
      0.1612777588D+00  0.1000000000D+01
 ****
     71 0
 S   3 1.00       0.000000000000
      0.1873113696D+02  0.3349460434D-01
      0.2825394365D+01  0.2347269535D+00
      0.6401216923D+00  0.8137573261D+00
 S   1 1.00       0.000000000000
      0.1612777588D+00  0.1000000000D+01
 ****
     72 0
 S   3 1.00       0.000000000000
      0.1873113696D+02  0.3349460434D-01
      0.2825394365D+01  0.2347269535D+00
      0.6401216923D+00  0.8137573261D+00
 S   1 1.00       0.000000000000
      0.1612777588D+00  0.1000000000D+01
 ****
     73 0
 S   6 1.00       0.000000000000
      0.3047524880D+04  0.1834737132D-02
      0.4573695180D+03  0.1403732281D-01
      0.1039486850D+03  0.6884262226D-01
      0.2921015530D+02  0.2321844432D+00
      0.9286662960D+01  0.4679413484D+00
      0.3163926960D+01  0.3623119853D+00
 SP   3 1.00       0.000000000000
      0.7868272350D+01 -0.1193324198D+00  0.6899906659D-01
      0.1881288540D+01 -0.1608541517D+00  0.3164239610D+00
      0.5442492580D+00  0.1143456438D+01  0.7443082909D+00
 SP   1 1.00       0.000000000000
      0.1687144782D+00  0.1000000000D+01  0.1000000000D+01
 D   1 1.00       0.000000000000
      0.8000000000D+00  0.1000000000D+01
 ****
     74 0
 S   3 1.00       0.000000000000
      0.1873113696D+02  0.3349460434D-01
      0.2825394365D+01  0.2347269535D+00
      0.6401216923D+00  0.8137573261D+00
 S   1 1.00       0.000000000000
      0.1612777588D+00  0.1000000000D+01
 ****
     75 0
 S   3 1.00       0.000000000000
      0.1873113696D+02  0.3349460434D-01
      0.2825394365D+01  0.2347269535D+00
      0.6401216923D+00  0.8137573261D+00
 S   1 1.00       0.000000000000
      0.1612777588D+00  0.1000000000D+01
 ****
     76 0
 S   3 1.00       0.000000000000
      0.1873113696D+02  0.3349460434D-01
      0.2825394365D+01  0.2347269535D+00
      0.6401216923D+00  0.8137573261D+00
 S   1 1.00       0.000000000000
      0.1612777588D+00  0.1000000000D+01
 ****

 AO basis set (Overlap normalization):
 Atom C1       Shell     1 S   6     bf    1 -     1          3.325062911701         -2.357725899277         -0.135713724692
      0.3047524880D+04  0.1834737132D-02
      0.4573695180D+03  0.1403732281D-01
      0.1039486850D+03  0.6884262226D-01
      0.2921015530D+02  0.2321844432D+00
      0.9286662960D+01  0.4679413484D+00
      0.3163926960D+01  0.3623119853D+00
 Atom C1       Shell     2 SP   3    bf    2 -     5          3.325062911701         -2.357725899277         -0.135713724692
      0.7868272350D+01 -0.1193324198D+00  0.6899906659D-01
      0.1881288540D+01 -0.1608541517D+00  0.3164239610D+00
      0.5442492580D+00  0.1143456438D+01  0.7443082909D+00
 Atom C1       Shell     3 SP   1    bf    6 -     9          3.325062911701         -2.357725899277         -0.135713724692
      0.1687144782D+00  0.1000000000D+01  0.1000000000D+01
 Atom C1       Shell     4 D   1     bf   10 -    15          3.325062911701         -2.357725899277         -0.135713724692
      0.8000000000D+00  0.1000000000D+01
 Atom H2       Shell     5 S   3     bf   16 -    16          3.539807609990         -2.119419831002         -2.183632479333
      0.1873113696D+02  0.3349460434D-01
      0.2825394365D+01  0.2347269535D+00
      0.6401216923D+00  0.8137573261D+00
 Atom H2       Shell     6 S   1     bf   17 -    17          3.539807609990         -2.119419831002         -2.183632479333
      0.1612777588D+00  0.1000000000D+01
 Atom C3       Shell     7 S   6     bf   18 -    18          5.954665089217         -2.477985197991          1.082550421108
      0.3047524880D+04  0.1834737132D-02
      0.4573695180D+03  0.1403732281D-01
      0.1039486850D+03  0.6884262226D-01
      0.2921015530D+02  0.2321844432D+00
      0.9286662960D+01  0.4679413484D+00
      0.3163926960D+01  0.3623119853D+00
 Atom C3       Shell     8 SP   3    bf   19 -    22          5.954665089217         -2.477985197991          1.082550421108
      0.7868272350D+01 -0.1193324198D+00  0.6899906659D-01
      0.1881288540D+01 -0.1608541517D+00  0.3164239610D+00
      0.5442492580D+00  0.1143456438D+01  0.7443082909D+00
 Atom C3       Shell     9 SP   1    bf   23 -    26          5.954665089217         -2.477985197991          1.082550421108
      0.1687144782D+00  0.1000000000D+01  0.1000000000D+01
 Atom C3       Shell    10 D   1     bf   27 -    32          5.954665089217         -2.477985197991          1.082550421108
      0.8000000000D+00  0.1000000000D+01
 Atom H4       Shell    11 S   3     bf   33 -    33          7.047917312874         -4.019632791192          0.243487754023
      0.1873113696D+02  0.3349460434D-01
      0.2825394365D+01  0.2347269535D+00
      0.6401216923D+00  0.8137573261D+00
 Atom H4       Shell    12 S   1     bf   34 -    34          7.047917312874         -4.019632791192          0.243487754023
      0.1612777588D+00  0.1000000000D+01
 Atom H5       Shell    13 S   3     bf   35 -    35          5.695843265871         -2.955901566826          3.093496702857
      0.1873113696D+02  0.3349460434D-01
      0.2825394365D+01  0.2347269535D+00
      0.6401216923D+00  0.8137573261D+00
 Atom H5       Shell    14 S   1     bf   36 -    36          5.695843265871         -2.955901566826          3.093496702857
      0.1612777588D+00  0.1000000000D+01
 Atom C6       Shell    15 S   6     bf   37 -    37          7.394541009100         -0.008454389054          0.861479921281
      0.3047524880D+04  0.1834737132D-02
      0.4573695180D+03  0.1403732281D-01
      0.1039486850D+03  0.6884262226D-01
      0.2921015530D+02  0.2321844432D+00
      0.9286662960D+01  0.4679413484D+00
      0.3163926960D+01  0.3623119853D+00
 Atom C6       Shell    16 SP   3    bf   38 -    41          7.394541009100         -0.008454389054          0.861479921281
      0.7868272350D+01 -0.1193324198D+00  0.6899906659D-01
      0.1881288540D+01 -0.1608541517D+00  0.3164239610D+00
      0.5442492580D+00  0.1143456438D+01  0.7443082909D+00
 Atom C6       Shell    17 SP   1    bf   42 -    45          7.394541009100         -0.008454389054          0.861479921281
      0.1687144782D+00  0.1000000000D+01  0.1000000000D+01
 Atom C6       Shell    18 D   1     bf   46 -    51          7.394541009100         -0.008454389054          0.861479921281
      0.8000000000D+00  0.1000000000D+01
 Atom C7       Shell    19 S   6     bf   52 -    52          6.022897751950          2.402038540902          1.691495335532
      0.3047524880D+04  0.1834737132D-02
      0.4573695180D+03  0.1403732281D-01
      0.1039486850D+03  0.6884262226D-01
      0.2921015530D+02  0.2321844432D+00
      0.9286662960D+01  0.4679413484D+00
      0.3163926960D+01  0.3623119853D+00
 Atom C7       Shell    20 SP   3    bf   53 -    56          6.022897751950          2.402038540902          1.691495335532
      0.7868272350D+01 -0.1193324198D+00  0.6899906659D-01
      0.1881288540D+01 -0.1608541517D+00  0.3164239610D+00
      0.5442492580D+00  0.1143456438D+01  0.7443082909D+00
 Atom C7       Shell    21 SP   1    bf   57 -    60          6.022897751950          2.402038540902          1.691495335532
      0.1687144782D+00  0.1000000000D+01  0.1000000000D+01
 Atom C7       Shell    22 D   1     bf   61 -    66          6.022897751950          2.402038540902          1.691495335532
      0.8000000000D+00  0.1000000000D+01
 Atom C8       Shell    23 S   6     bf   67 -    67          3.301320827204          2.369500329277          0.556317326637
      0.3047524880D+04  0.1834737132D-02
      0.4573695180D+03  0.1403732281D-01
      0.1039486850D+03  0.6884262226D-01
      0.2921015530D+02  0.2321844432D+00
      0.9286662960D+01  0.4679413484D+00
      0.3163926960D+01  0.3623119853D+00
 Atom C8       Shell    24 SP   3    bf   68 -    71          3.301320827204          2.369500329277          0.556317326637
      0.7868272350D+01 -0.1193324198D+00  0.6899906659D-01
      0.1881288540D+01 -0.1608541517D+00  0.3164239610D+00
      0.5442492580D+00  0.1143456438D+01  0.7443082909D+00
 Atom C8       Shell    25 SP   1    bf   72 -    75          3.301320827204          2.369500329277          0.556317326637
      0.1687144782D+00  0.1000000000D+01  0.1000000000D+01
 Atom C8       Shell    26 D   1     bf   76 -    81          3.301320827204          2.369500329277          0.556317326637
      0.8000000000D+00  0.1000000000D+01
 Atom H9       Shell    27 S   3     bf   82 -    82          3.442883707812          2.739981553369         -1.482154006764
      0.1873113696D+02  0.3349460434D-01
      0.2825394365D+01  0.2347269535D+00
      0.6401216923D+00  0.8137573261D+00
 Atom H9       Shell    28 S   1     bf   83 -    83          3.442883707812          2.739981553369         -1.482154006764
      0.1612777588D+00  0.1000000000D+01
 Atom H10      Shell    29 S   3     bf   84 -    84          2.198000709628          3.925040036275          1.360078681237
      0.1873113696D+02  0.3349460434D-01
      0.2825394365D+01  0.2347269535D+00
      0.6401216923D+00  0.8137573261D+00
 Atom H10      Shell    30 S   1     bf   85 -    85          2.198000709628          3.925040036275          1.360078681237
      0.1612777588D+00  0.1000000000D+01
 Atom C11      Shell    31 S   6     bf   86 -    86          1.847371814453         -0.116098745378          0.928935188478
      0.3047524880D+04  0.1834737132D-02
      0.4573695180D+03  0.1403732281D-01
      0.1039486850D+03  0.6884262226D-01
      0.2921015530D+02  0.2321844432D+00
      0.9286662960D+01  0.4679413484D+00
      0.3163926960D+01  0.3623119853D+00
 Atom C11      Shell    32 SP   3    bf   87 -    90          1.847371814453         -0.116098745378          0.928935188478
      0.7868272350D+01 -0.1193324198D+00  0.6899906659D-01
      0.1881288540D+01 -0.1608541517D+00  0.3164239610D+00
      0.5442492580D+00  0.1143456438D+01  0.7443082909D+00
 Atom C11      Shell    33 SP   1    bf   91 -    94          1.847371814453         -0.116098745378          0.928935188478
      0.1687144782D+00  0.1000000000D+01  0.1000000000D+01
 Atom C11      Shell    34 D   1     bf   95 -   100          1.847371814453         -0.116098745378          0.928935188478
      0.8000000000D+00  0.1000000000D+01
 Atom H12      Shell    35 S   3     bf  101 -   101          1.477686316241         -0.447088699512          2.947720451068
      0.1873113696D+02  0.3349460434D-01
      0.2825394365D+01  0.2347269535D+00
      0.6401216923D+00  0.8137573261D+00
 Atom H12      Shell    36 S   1     bf  102 -   102          1.477686316241         -0.447088699512          2.947720451068
      0.1612777588D+00  0.1000000000D+01
 Atom H13      Shell    37 S   3     bf  103 -   103          0.000000000000          0.000000000000          0.000000000000
      0.1873113696D+02  0.3349460434D-01
      0.2825394365D+01  0.2347269535D+00
      0.6401216923D+00  0.8137573261D+00
 Atom H13      Shell    38 S   1     bf  104 -   104          0.000000000000          0.000000000000          0.000000000000
      0.1612777588D+00  0.1000000000D+01
 Atom C14      Shell    39 S   6     bf  105 -   105          9.774687753054          0.000000000000          0.000000000000
      0.3047524880D+04  0.1834737132D-02
      0.4573695180D+03  0.1403732281D-01
      0.1039486850D+03  0.6884262226D-01
      0.2921015530D+02  0.2321844432D+00
      0.9286662960D+01  0.4679413484D+00
      0.3163926960D+01  0.3623119853D+00
 Atom C14      Shell    40 SP   3    bf  106 -   109          9.774687753054          0.000000000000          0.000000000000
      0.7868272350D+01 -0.1193324198D+00  0.6899906659D-01
      0.1881288540D+01 -0.1608541517D+00  0.3164239610D+00
      0.5442492580D+00  0.1143456438D+01  0.7443082909D+00
 Atom C14      Shell    41 SP   1    bf  110 -   113          9.774687753054          0.000000000000          0.000000000000
      0.1687144782D+00  0.1000000000D+01  0.1000000000D+01
 Atom C14      Shell    42 D   1     bf  114 -   119          9.774687753054          0.000000000000          0.000000000000
      0.8000000000D+00  0.1000000000D+01
 Atom H15      Shell    43 S   3     bf  120 -   120         10.655156530690         -1.764230743209         -0.580728903308
      0.1873113696D+02  0.3349460434D-01
      0.2825394365D+01  0.2347269535D+00
      0.6401216923D+00  0.8137573261D+00
 Atom H15      Shell    44 S   1     bf  121 -   121         10.655156530690         -1.764230743209         -0.580728903308
      0.1612777588D+00  0.1000000000D+01
 Atom C16      Shell    45 S   6     bf  122 -   122         11.449149909807          2.280688794621         -0.179389453021
      0.3047524880D+04  0.1834737132D-02
      0.4573695180D+03  0.1403732281D-01
      0.1039486850D+03  0.6884262226D-01
      0.2921015530D+02  0.2321844432D+00
      0.9286662960D+01  0.4679413484D+00
      0.3163926960D+01  0.3623119853D+00
 Atom C16      Shell    46 SP   3    bf  123 -   126         11.449149909807          2.280688794621         -0.179389453021
      0.7868272350D+01 -0.1193324198D+00  0.6899906659D-01
      0.1881288540D+01 -0.1608541517D+00  0.3164239610D+00
      0.5442492580D+00  0.1143456438D+01  0.7443082909D+00
 Atom C16      Shell    47 SP   1    bf  127 -   130         11.449149909807          2.280688794621         -0.179389453021
      0.1687144782D+00  0.1000000000D+01  0.1000000000D+01
 Atom C16      Shell    48 D   1     bf  131 -   136         11.449149909807          2.280688794621         -0.179389453021
      0.8000000000D+00  0.1000000000D+01
 Atom H17      Shell    49 S   3     bf  137 -   137         11.933233173110          2.658115990573         -2.167586682458
      0.1873113696D+02  0.3349460434D-01
      0.2825394365D+01  0.2347269535D+00
      0.6401216923D+00  0.8137573261D+00
 Atom H17      Shell    50 S   1     bf  138 -   138         11.933233173110          2.658115990573         -2.167586682458
      0.1612777588D+00  0.1000000000D+01
 Atom C18      Shell    51 S   6     bf  139 -   139         10.358529772296          4.674576020746          1.054397904790
      0.3047524880D+04  0.1834737132D-02
      0.4573695180D+03  0.1403732281D-01
      0.1039486850D+03  0.6884262226D-01
      0.2921015530D+02  0.2321844432D+00
      0.9286662960D+01  0.4679413484D+00
      0.3163926960D+01  0.3623119853D+00
 Atom C18      Shell    52 SP   3    bf  140 -   143         10.358529772296          4.674576020746          1.054397904790
      0.7868272350D+01 -0.1193324198D+00  0.6899906659D-01
      0.1881288540D+01 -0.1608541517D+00  0.3164239610D+00
      0.5442492580D+00  0.1143456438D+01  0.7443082909D+00
 Atom C18      Shell    53 SP   1    bf  144 -   147         10.358529772296          4.674576020746          1.054397904790
      0.1687144782D+00  0.1000000000D+01  0.1000000000D+01
 Atom C18      Shell    54 D   1     bf  148 -   153         10.358529772296          4.674576020746          1.054397904790
      0.8000000000D+00  0.1000000000D+01
 Atom H19      Shell    55 S   3     bf  154 -   154         10.767984330207          4.542309836821          3.084193826769
      0.1873113696D+02  0.3349460434D-01
      0.2825394365D+01  0.2347269535D+00
      0.6401216923D+00  0.8137573261D+00
 Atom H19      Shell    56 S   1     bf  155 -   155         10.767984330207          4.542309836821          3.084193826769
      0.1612777588D+00  0.1000000000D+01
 Atom C20      Shell    57 S   6     bf  156 -   156          7.451011638438          4.776640771690          0.647232164274
      0.3047524880D+04  0.1834737132D-02
      0.4573695180D+03  0.1403732281D-01
      0.1039486850D+03  0.6884262226D-01
      0.2921015530D+02  0.2321844432D+00
      0.9286662960D+01  0.4679413484D+00
      0.3163926960D+01  0.3623119853D+00
 Atom C20      Shell    58 SP   3    bf  157 -   160          7.451011638438          4.776640771690          0.647232164274
      0.7868272350D+01 -0.1193324198D+00  0.6899906659D-01
      0.1881288540D+01 -0.1608541517D+00  0.3164239610D+00
      0.5442492580D+00  0.1143456438D+01  0.7443082909D+00
 Atom C20      Shell    59 SP   1    bf  161 -   164          7.451011638438          4.776640771690          0.647232164274
      0.1687144782D+00  0.1000000000D+01  0.1000000000D+01
 Atom C20      Shell    60 D   1     bf  165 -   170          7.451011638438          4.776640771690          0.647232164274
      0.8000000000D+00  0.1000000000D+01
 Atom H21      Shell    61 S   3     bf  171 -   171          7.167167951367          4.735159487833         -1.415816852726
      0.1873113696D+02  0.3349460434D-01
      0.2825394365D+01  0.2347269535D+00
      0.6401216923D+00  0.8137573261D+00
 Atom H21      Shell    62 S   1     bf  172 -   172          7.167167951367          4.735159487833         -1.415816852726
      0.1612777588D+00  0.1000000000D+01
 Atom C22      Shell    63 S   6     bf  173 -   173          6.344858084395          7.305840968286          1.601809197827
      0.3047524880D+04  0.1834737132D-02
      0.4573695180D+03  0.1403732281D-01
      0.1039486850D+03  0.6884262226D-01
      0.2921015530D+02  0.2321844432D+00
      0.9286662960D+01  0.4679413484D+00
      0.3163926960D+01  0.3623119853D+00
 Atom C22      Shell    64 SP   3    bf  174 -   177          6.344858084395          7.305840968286          1.601809197827
      0.7868272350D+01 -0.1193324198D+00  0.6899906659D-01
      0.1881288540D+01 -0.1608541517D+00  0.3164239610D+00
      0.5442492580D+00  0.1143456438D+01  0.7443082909D+00
 Atom C22      Shell    65 SP   1    bf  178 -   181          6.344858084395          7.305840968286          1.601809197827
      0.1687144782D+00  0.1000000000D+01  0.1000000000D+01
 Atom C22      Shell    66 D   1     bf  182 -   187          6.344858084395          7.305840968286          1.601809197827
      0.8000000000D+00  0.1000000000D+01
 Atom H23      Shell    67 S   3     bf  188 -   188          6.408577948843          7.358354700073          3.670209654673
      0.1873113696D+02  0.3349460434D-01
      0.2825394365D+01  0.2347269535D+00
      0.6401216923D+00  0.8137573261D+00
 Atom H23      Shell    68 S   1     bf  189 -   189          6.408577948843          7.358354700073          3.670209654673
      0.1612777588D+00  0.1000000000D+01
 Atom H24      Shell    69 S   3     bf  190 -   190          4.342577803234          7.421857623961          1.089928138698
      0.1873113696D+02  0.3349460434D-01
      0.2825394365D+01  0.2347269535D+00
      0.6401216923D+00  0.8137573261D+00
 Atom H24      Shell    70 S   1     bf  191 -   191          4.342577803234          7.421857623961          1.089928138698
      0.1612777588D+00  0.1000000000D+01
 Atom C25      Shell    71 S   6     bf  192 -   192          7.694219675199          9.667709600781          0.563456674172
      0.3047524880D+04  0.1834737132D-02
      0.4573695180D+03  0.1403732281D-01
      0.1039486850D+03  0.6884262226D-01
      0.2921015530D+02  0.2321844432D+00
      0.9286662960D+01  0.4679413484D+00
      0.3163926960D+01  0.3623119853D+00
 Atom C25      Shell    72 SP   3    bf  193 -   196          7.694219675199          9.667709600781          0.563456674172
      0.7868272350D+01 -0.1193324198D+00  0.6899906659D-01
      0.1881288540D+01 -0.1608541517D+00  0.3164239610D+00
      0.5442492580D+00  0.1143456438D+01  0.7443082909D+00
 Atom C25      Shell    73 SP   1    bf  197 -   200          7.694219675199          9.667709600781          0.563456674172
      0.1687144782D+00  0.1000000000D+01  0.1000000000D+01
 Atom C25      Shell    74 D   1     bf  201 -   206          7.694219675199          9.667709600781          0.563456674172
      0.8000000000D+00  0.1000000000D+01
 Atom H26      Shell    75 S   3     bf  207 -   207          7.397273628678          9.784142260767         -1.489981422482
      0.1873113696D+02  0.3349460434D-01
      0.2825394365D+01  0.2347269535D+00
      0.6401216923D+00  0.8137573261D+00
 Atom H26      Shell    76 S   1     bf  208 -   208          7.397273628678          9.784142260767         -1.489981422482
      0.1612777588D+00  0.1000000000D+01
 Atom H27      Shell    77 S   3     bf  209 -   209          6.801014767037         11.344136316821          1.380871999282
      0.1873113696D+02  0.3349460434D-01
      0.2825394365D+01  0.2347269535D+00
      0.6401216923D+00  0.8137573261D+00
 Atom H27      Shell    78 S   1     bf  210 -   210          6.801014767037         11.344136316821          1.380871999282
      0.1612777588D+00  0.1000000000D+01
 Atom C28      Shell    79 S   6     bf  211 -   211         10.559813837957          9.605793801181          1.088392225989
      0.3047524880D+04  0.1834737132D-02
      0.4573695180D+03  0.1403732281D-01
      0.1039486850D+03  0.6884262226D-01
      0.2921015530D+02  0.2321844432D+00
      0.9286662960D+01  0.4679413484D+00
      0.3163926960D+01  0.3623119853D+00
 Atom C28      Shell    80 SP   3    bf  212 -   215         10.559813837957          9.605793801181          1.088392225989
      0.7868272350D+01 -0.1193324198D+00  0.6899906659D-01
      0.1881288540D+01 -0.1608541517D+00  0.3164239610D+00
      0.5442492580D+00  0.1143456438D+01  0.7443082909D+00
 Atom C28      Shell    81 SP   1    bf  216 -   219         10.559813837957          9.605793801181          1.088392225989
      0.1687144782D+00  0.1000000000D+01  0.1000000000D+01
 Atom C28      Shell    82 D   1     bf  220 -   225         10.559813837957          9.605793801181          1.088392225989
      0.8000000000D+00  0.1000000000D+01
 Atom C29      Shell    83 S   6     bf  226 -   226         11.567505158263          7.084251852019         -0.041925482881
      0.3047524880D+04  0.1834737132D-02
      0.4573695180D+03  0.1403732281D-01
      0.1039486850D+03  0.6884262226D-01
      0.2921015530D+02  0.2321844432D+00
      0.9286662960D+01  0.4679413484D+00
      0.3163926960D+01  0.3623119853D+00
 Atom C29      Shell    84 SP   3    bf  227 -   230         11.567505158263          7.084251852019         -0.041925482881
      0.7868272350D+01 -0.1193324198D+00  0.6899906659D-01
      0.1881288540D+01 -0.1608541517D+00  0.3164239610D+00
      0.5442492580D+00  0.1143456438D+01  0.7443082909D+00
 Atom C29      Shell    85 SP   1    bf  231 -   234         11.567505158263          7.084251852019         -0.041925482881
      0.1687144782D+00  0.1000000000D+01  0.1000000000D+01
 Atom C29      Shell    86 D   1     bf  235 -   240         11.567505158263          7.084251852019         -0.041925482881
      0.8000000000D+00  0.1000000000D+01
 Atom H30      Shell    87 S   3     bf  241 -   241         11.000875161482          7.127998728536         -2.048595767925
      0.1873113696D+02  0.3349460434D-01
      0.2825394365D+01  0.2347269535D+00
      0.6401216923D+00  0.8137573261D+00
 Atom H30      Shell    88 S   1     bf  242 -   242         11.000875161482          7.127998728536         -2.048595767925
      0.1612777588D+00  0.1000000000D+01
 Atom C31      Shell    89 S   6     bf  243 -   243         14.454501622209          7.392287397303          0.000000000000
      0.3047524880D+04  0.1834737132D-02
      0.4573695180D+03  0.1403732281D-01
      0.1039486850D+03  0.6884262226D-01
      0.2921015530D+02  0.2321844432D+00
      0.9286662960D+01  0.4679413484D+00
      0.3163926960D+01  0.3623119853D+00
 Atom C31      Shell    90 SP   3    bf  244 -   247         14.454501622209          7.392287397303          0.000000000000
      0.7868272350D+01 -0.1193324198D+00  0.6899906659D-01
      0.1881288540D+01 -0.1608541517D+00  0.3164239610D+00
      0.5442492580D+00  0.1143456438D+01  0.7443082909D+00
 Atom C31      Shell    91 SP   1    bf  248 -   251         14.454501622209          7.392287397303          0.000000000000
      0.1687144782D+00  0.1000000000D+01  0.1000000000D+01
 Atom C31      Shell    92 D   1     bf  252 -   257         14.454501622209          7.392287397303          0.000000000000
      0.8000000000D+00  0.1000000000D+01
 Atom H32      Shell    93 S   3     bf  258 -   258         15.392922291011          6.179705695779         -1.387876741625
      0.1873113696D+02  0.3349460434D-01
      0.2825394365D+01  0.2347269535D+00
      0.6401216923D+00  0.8137573261D+00
 Atom H32      Shell    94 S   1     bf  259 -   259         15.392922291011          6.179705695779         -1.387876741625
      0.1612777588D+00  0.1000000000D+01
 Atom H33      Shell    95 S   3     bf  260 -   260         15.221202423781          6.871209683592          1.849144301976
      0.1873113696D+02  0.3349460434D-01
      0.2825394365D+01  0.2347269535D+00
      0.6401216923D+00  0.8137573261D+00
 Atom H33      Shell    96 S   1     bf  261 -   261         15.221202423781          6.871209683592          1.849144301976
      0.1612777588D+00  0.1000000000D+01
 Atom C34      Shell    97 S   6     bf  262 -   262         14.857766023124         10.242003967709         -0.567674221648
      0.3047524880D+04  0.1834737132D-02
      0.4573695180D+03  0.1403732281D-01
      0.1039486850D+03  0.6884262226D-01
      0.2921015530D+02  0.2321844432D+00
      0.9286662960D+01  0.4679413484D+00
      0.3163926960D+01  0.3623119853D+00
 Atom C34      Shell    98 SP   3    bf  263 -   266         14.857766023124         10.242003967709         -0.567674221648
      0.7868272350D+01 -0.1193324198D+00  0.6899906659D-01
      0.1881288540D+01 -0.1608541517D+00  0.3164239610D+00
      0.5442492580D+00  0.1143456438D+01  0.7443082909D+00
 Atom C34      Shell    99 SP   1    bf  267 -   270         14.857766023124         10.242003967709         -0.567674221648
      0.1687144782D+00  0.1000000000D+01  0.1000000000D+01
 Atom C34      Shell   100 D   1     bf  271 -   276         14.857766023124         10.242003967709         -0.567674221648
      0.8000000000D+00  0.1000000000D+01
 Atom H35      Shell   101 S   3     bf  277 -   277         16.156709758497         11.088941709405          0.806987476157
      0.1873113696D+02  0.3349460434D-01
      0.2825394365D+01  0.2347269535D+00
      0.6401216923D+00  0.8137573261D+00
 Atom H35      Shell   102 S   1     bf  278 -   278         16.156709758497         11.088941709405          0.806987476157
      0.1612777588D+00  0.1000000000D+01
 Atom H36      Shell   103 S   3     bf  279 -   279         15.718386648138         10.517029021014         -2.427482720623
      0.1873113696D+02  0.3349460434D-01
      0.2825394365D+01  0.2347269535D+00
      0.6401216923D+00  0.8137573261D+00
 Atom H36      Shell   104 S   1     bf  280 -   280         15.718386648138         10.517029021014         -2.427482720623
      0.1612777588D+00  0.1000000000D+01
 Atom C37      Shell   105 S   6     bf  281 -   281         12.206877573605         11.551722827005         -0.425999355869
      0.3047524880D+04  0.1834737132D-02
      0.4573695180D+03  0.1403732281D-01
      0.1039486850D+03  0.6884262226D-01
      0.2921015530D+02  0.2321844432D+00
      0.9286662960D+01  0.4679413484D+00
      0.3163926960D+01  0.3623119853D+00
 Atom C37      Shell   106 SP   3    bf  282 -   285         12.206877573605         11.551722827005         -0.425999355869
      0.7868272350D+01 -0.1193324198D+00  0.6899906659D-01
      0.1881288540D+01 -0.1608541517D+00  0.3164239610D+00
      0.5442492580D+00  0.1143456438D+01  0.7443082909D+00
 Atom C37      Shell   107 SP   1    bf  286 -   289         12.206877573605         11.551722827005         -0.425999355869
      0.1687144782D+00  0.1000000000D+01  0.1000000000D+01
 Atom C37      Shell   108 D   1     bf  290 -   295         12.206877573605         11.551722827005         -0.425999355869
      0.8000000000D+00  0.1000000000D+01
 Atom H38      Shell   109 S   3     bf  296 -   296         11.412087504847         11.601077409130         -2.349848349125
      0.1873113696D+02  0.3349460434D-01
      0.2825394365D+01  0.2347269535D+00
      0.6401216923D+00  0.8137573261D+00
 Atom H38      Shell   110 S   1     bf  297 -   297         11.412087504847         11.601077409130         -2.349848349125
      0.1612777588D+00  0.1000000000D+01
 Atom C39      Shell   111 S   6     bf  298 -   298         11.095566541206          9.831343594450          3.951687518009
      0.3047524880D+04  0.1834737132D-02
      0.4573695180D+03  0.1403732281D-01
      0.1039486850D+03  0.6884262226D-01
[...]
 **** Fit       0.000756
 **** Fit       0.000373
 **** Fit       0.000175
 **** Fit       0.003316
 **** Fit       0.003536
 **** Fit       0.003811
 **** Fit       0.004128
 **** Fit       0.004402
 **** Fit       0.004471
 **** Fit       0.004157
 **** Fit       0.003411
 **** Fit       0.002398
 **** Fit       0.001397
 **** Fit       0.000624
 **** Fit       0.000144
 **** Fit      -0.000083
 **** Fit      -0.000135
 **** Fit       0.002701
 **** Fit       0.002928
 **** Fit       0.003129
 **** Fit       0.003309
 **** Fit       0.003493
 **** Fit       0.003727
 **** Fit       0.004056
 **** Fit       0.004485
 **** Fit       0.004920
 **** Fit       0.005133
 **** Fit       0.004839
 **** Fit       0.003933
 **** Fit       0.002643
 **** Fit       0.001375
 **** Fit       0.000428
 **** Fit      -0.000125
 **** Fit      -0.000360
 **** Fit      -0.000386
 **** Fit       0.002533
 **** Fit       0.002822
 **** Fit       0.003086
 **** Fit       0.003302
 **** Fit       0.003464
 **** Fit       0.003607
 **** Fit       0.003795
 **** Fit       0.004101
 **** Fit       0.004556
 **** Fit       0.005068
 **** Fit       0.005363
 **** Fit       0.005077
 **** Fit       0.004055
 **** Fit       0.002576
 **** Fit       0.001147
 **** Fit       0.000120
 **** Fit      -0.000440
 **** Fit      -0.000641
 **** Fit      -0.000622
 **** Fit       0.002253
 **** Fit       0.002585
 **** Fit       0.002926
 **** Fit       0.003229
 **** Fit       0.003448
 **** Fit       0.003567
 **** Fit       0.003619
 **** Fit       0.003688
 **** Fit       0.003868
 **** Fit       0.004209
 **** Fit       0.004628
 **** Fit       0.004856
 **** Fit       0.004522
 **** Fit       0.003476
 **** Fit       0.002008
 **** Fit       0.000631
 **** Fit      -0.000313
 **** Fit      -0.000782
 **** Fit      -0.000901
 **** Fit      -0.000816
 **** Fit       0.001886
 **** Fit       0.002209
 **** Fit       0.002582
 **** Fit       0.002968
 **** Fit       0.003304
 **** Fit       0.003517
 **** Fit       0.003569
 **** Fit       0.003493
 **** Fit       0.003385
 **** Fit       0.003356
 **** Fit       0.003461
 **** Fit       0.003632
 **** Fit       0.003646
 **** Fit       0.003220
 **** Fit       0.002257
 **** Fit       0.001014
 **** Fit      -0.000091
 **** Fit      -0.000798
 **** Fit      -0.001093
 **** Fit      -0.001095
 **** Fit      -0.000937
 **** Fit       0.001757
 **** Fit       0.002088
 **** Fit       0.002480
 **** Fit       0.002889
 **** Fit       0.003236
 **** Fit       0.003426
 **** Fit       0.003400
 **** Fit       0.003186
 **** Fit       0.002892
 **** Fit       0.002640
 **** Fit       0.002484
 **** Fit       0.002370
 **** Fit       0.002146
 **** Fit       0.001647
 **** Fit       0.000848
 **** Fit      -0.000056
 **** Fit      -0.000788
 **** Fit      -0.001194
 **** Fit      -0.001288
 **** Fit      -0.001174
 **** Fit      -0.000953
 **** Fit       0.001564
 **** Fit       0.001873
 **** Fit       0.002244
 **** Fit       0.002633
 **** Fit       0.002952
 **** Fit       0.003095
 **** Fit       0.002991
 **** Fit       0.002667
 **** Fit       0.002239
 **** Fit       0.001830
 **** Fit       0.001493
 **** Fit       0.001188
 **** Fit       0.000825
 **** Fit       0.000330
 **** Fit      -0.000270
 **** Fit      -0.000841
 **** Fit      -0.001231
 **** Fit      -0.001373
 **** Fit      -0.001303
 **** Fit      -0.001105
 **** Fit      -0.000853
 **** Fit      -0.000596
 **** Fit       0.001310
 **** Fit       0.001564
 **** Fit       0.001871
 **** Fit       0.002186
 **** Fit       0.002428
 **** Fit       0.002498
 **** Fit       0.002330
 **** Fit       0.001954
 **** Fit       0.001482
 **** Fit       0.001029
 **** Fit       0.000640
 **** Fit       0.000287
 **** Fit      -0.000081
 **** Fit      -0.000486
 **** Fit      -0.000884
 **** Fit      -0.001191
 **** Fit      -0.001332
 **** Fit      -0.001295
 **** Fit      -0.001128
 **** Fit      -0.000894
 **** Fit      -0.000646
 **** Fit      -0.000413
 **** Fit       0.001018
 **** Fit       0.001192
 **** Fit       0.001400
 **** Fit       0.001603
 **** Fit       0.001735
 **** Fit       0.001718
 **** Fit       0.001510
 **** Fit       0.001144
 **** Fit       0.000717
 **** Fit       0.000323
 **** Fit      -0.000006
 **** Fit      -0.000292
 **** Fit      -0.000566
 **** Fit      -0.000831
 **** Fit      -0.001048
 **** Fit      -0.001163
 **** Fit      -0.001148
 **** Fit      -0.001016
 **** Fit      -0.000812
 **** Fit      -0.000585
 **** Fit      -0.000369
 **** Fit      -0.000179
 **** Fit       0.000721
 **** Fit       0.000807
 **** Fit       0.000906
 **** Fit       0.000989
 **** Fit       0.001009
 **** Fit       0.000918
 **** Fit       0.000700
 **** Fit       0.000391
 **** Fit       0.000066
 **** Fit      -0.000211
 **** Fit      -0.000423
 **** Fit      -0.000589
 **** Fit      -0.000732
 **** Fit      -0.000851
 **** Fit      -0.000919
 **** Fit      -0.000906
 **** Fit      -0.000804
 **** Fit      -0.000634
 **** Fit      -0.000435
 **** Fit      -0.000240
 **** Fit      -0.000070
 **** Fit       0.000461
 **** Fit       0.000468
 **** Fit       0.000452
 **** Fit       0.000389
 **** Fit       0.000257
 **** Fit       0.000059
 **** Fit      -0.000170
 **** Fit      -0.000379
 **** Fit      -0.000529
 **** Fit      -0.000618
 **** Fit      -0.000665
 **** Fit      -0.000688
 **** Fit      -0.000687
 **** Fit      -0.000649
 **** Fit      -0.000558
 **** Fit      -0.000416
 **** Fit      -0.000244
 **** Fit      -0.000069
 **** Fit       0.000085
 **** Fit       0.000208
 **** Fit       0.000134
 **** Fit       0.000058
 **** Fit      -0.000047
 **** Fit      -0.000184
 **** Fit      -0.000340
 **** Fit      -0.000487
 **** Fit      -0.000591
 **** Fit      -0.000635
 **** Fit      -0.000626
 **** Fit      -0.000337
 **** Fit      -0.000209
 **** Fit      -0.000058
 **** Fit       0.000098
 **** Fit       0.000241
 **** Fit       0.000356
 **** Fit      -0.000179
 **** Fit      -0.000290
 **** Fit      -0.000405
 **** Fit      -0.000509
 **** Fit      -0.000581
 **** Fit      -0.000603
 **** Fit      -0.000572
 **** Fit      -0.000498
 **** Fit       0.000096
 **** Fit       0.000237
 **** Fit       0.000369
 **** Fit      -0.000454
 **** Fit      -0.000507
 **** Fit      -0.000519
 **** Fit      -0.000484
 **** Fit      -0.000406
 **** Fit      -0.000297
 **** Fit       0.002620
 **** Fit       0.002555
 **** Fit       0.002421
 **** Fit       0.002212
 **** Fit       0.001940
 **** Fit       0.001634
 **** Fit       0.001332
 **** Fit       0.002824
 **** Fit       0.002851
 **** Fit       0.002815
 **** Fit       0.002686
 **** Fit       0.002447
 **** Fit       0.002110
 **** Fit       0.001716
 **** Fit       0.001325
 **** Fit       0.000989
 **** Fit       0.002929
 **** Fit       0.003035
 **** Fit       0.003111
 **** Fit       0.003119
 **** Fit       0.003007
 **** Fit       0.002741
 **** Fit       0.002326
 **** Fit       0.001823
 **** Fit       0.001322
 **** Fit       0.000898
 **** Fit       0.000590
 **** Fit       0.003081
 **** Fit       0.003224
 **** Fit       0.003351
 **** Fit       0.003411
 **** Fit       0.003328
 **** Fit       0.003038
 **** Fit       0.002540
 **** Fit       0.001917
 **** Fit       0.001294
 **** Fit       0.000779
 **** Fit       0.000420
 **** Fit       0.000214
 **** Fit       0.003037
 **** Fit       0.003177
 **** Fit       0.003336
 **** Fit       0.003495
 **** Fit       0.003595
 **** Fit       0.003537
 **** Fit       0.003227
 **** Fit       0.002654
 **** Fit       0.001922
 **** Fit       0.001195
 **** Fit       0.000610
 **** Fit       0.000220
 **** Fit       0.000012
 **** Fit       0.002680
 **** Fit       0.002838
 **** Fit       0.002962
 **** Fit       0.003066
 **** Fit       0.003176
 **** Fit       0.003309
 **** Fit       0.003457
 **** Fit       0.003558
 **** Fit       0.003497
 **** Fit       0.003165
 **** Fit       0.002542
 **** Fit       0.001748
 **** Fit       0.000974
 **** Fit       0.000369
 **** Fit      -0.000013
 **** Fit      -0.000196
 **** Fit       0.002507
 **** Fit       0.002710
 **** Fit       0.002862
 **** Fit       0.002955
 **** Fit       0.003006
 **** Fit       0.003046
 **** Fit       0.003107
 **** Fit       0.003185
 **** Fit       0.003225
 **** Fit       0.003119
 **** Fit       0.002758
 **** Fit       0.002129
 **** Fit       0.001351
 **** Fit       0.000616
 **** Fit       0.000065
 **** Fit      -0.000260
 **** Fit      -0.000389
 **** Fit      -0.000384
 **** Fit       0.002223
 **** Fit       0.002468
 **** Fit       0.002674
 **** Fit       0.002808
 **** Fit       0.002856
 **** Fit       0.002833
 **** Fit       0.002778
 **** Fit       0.002729
 **** Fit       0.002693
 **** Fit       0.002627
 **** Fit       0.002441
 **** Fit       0.002055
 **** Fit       0.001467
 **** Fit       0.000787
 **** Fit       0.000174
 **** Fit      -0.000258
 **** Fit      -0.000485
 **** Fit      -0.000541
 **** Fit       0.001850
 **** Fit       0.002100
 **** Fit       0.002343
 **** Fit       0.002537
 **** Fit       0.002642
 **** Fit       0.002637
 **** Fit       0.002536
 **** Fit       0.002383
 **** Fit       0.002221
 **** Fit       0.002066
 **** Fit       0.001888
 **** Fit       0.001628
 **** Fit       0.001238
 **** Fit       0.000732
 **** Fit       0.000200
 **** Fit      -0.000244
 **** Fit      -0.000527
 **** Fit      -0.000640
 **** Fit      -0.000621
 **** Fit       0.001663
 **** Fit       0.001892
 **** Fit       0.002110
 **** Fit       0.002275
 **** Fit       0.002340
 **** Fit       0.002282
 **** Fit       0.002117
 **** Fit       0.001890
 **** Fit       0.001649
 **** Fit       0.001411
 **** Fit       0.001163
 **** Fit       0.000869
 **** Fit       0.000512
 **** Fit       0.000114
 **** Fit      -0.000258
 **** Fit      -0.000534
 **** Fit      -0.000675
 **** Fit      -0.000688
 **** Fit      -0.000608
 **** Fit       0.001418
 **** Fit       0.001603
 **** Fit       0.001774
 **** Fit       0.001890
 **** Fit       0.001908
 **** Fit       0.001808
 **** Fit       0.001607
 **** Fit       0.001349
 **** Fit       0.001079
 **** Fit       0.000819
 **** Fit       0.000561
 **** Fit       0.000289
 **** Fit       0.000001
 **** Fit      -0.000280
 **** Fit      -0.000508
 **** Fit      -0.000645
 **** Fit      -0.000676
 **** Fit      -0.000619
 **** Fit      -0.000502
 **** Fit       0.001133
 **** Fit       0.001259
 **** Fit       0.001368
 **** Fit       0.001424
 **** Fit       0.001396
 **** Fit       0.001270
 **** Fit       0.001064
 **** Fit       0.000819
 **** Fit       0.000573
 **** Fit       0.000345
 **** Fit       0.000131
 **** Fit      -0.000076
 **** Fit      -0.000275
 **** Fit      -0.000444
 **** Fit      -0.000555
 **** Fit      -0.000590
 **** Fit      -0.000550
 **** Fit      -0.000454
 **** Fit       0.000904
 **** Fit       0.000948
 **** Fit       0.000947
 **** Fit       0.000882
 **** Fit       0.000749
 **** Fit       0.000566
 **** Fit       0.000365
 **** Fit       0.000177
 **** Fit       0.000014
 **** Fit      -0.000127
 **** Fit      -0.000252
 **** Fit      -0.000358
 **** Fit      -0.000430
 **** Fit      -0.000454
 **** Fit      -0.000423
 **** Fit      -0.000343
 **** Fit      -0.000233
 **** Fit       0.000581
 **** Fit       0.000571
 **** Fit       0.000528
 **** Fit       0.000444
 **** Fit       0.000320
 **** Fit       0.000176
 **** Fit       0.000035
 **** Fit      -0.000083
 **** Fit       0.000277
 **** Fit       0.000212
 **** Fit       0.000126
 **** Fit       0.000026
 **** Fit      -0.000073
 **** Fit      -0.000154
 **** Fit       0.002459
 **** Fit       0.002336
 **** Fit       0.002142
 **** Fit       0.001885
 **** Fit       0.001593
 **** Fit       0.001299
 **** Fit       0.002661
 **** Fit       0.002620
 **** Fit       0.002497
 **** Fit       0.002280
 **** Fit       0.001978
 **** Fit       0.001626
 **** Fit       0.001272
 **** Fit       0.000960
 **** Fit       0.002744
 **** Fit       0.002777
 **** Fit       0.002750
 **** Fit       0.002628
 **** Fit       0.002389
 **** Fit       0.002042
 **** Fit       0.001630
 **** Fit       0.001217
 **** Fit       0.000858
 **** Fit       0.000587
 **** Fit       0.002714
 **** Fit       0.002780
 **** Fit       0.002819
 **** Fit       0.002797
 **** Fit       0.002672
 **** Fit       0.002413
 **** Fit       0.002027
 **** Fit       0.001567
 **** Fit       0.001109
 **** Fit       0.000720
 **** Fit       0.000436
 **** Fit       0.002676
 **** Fit       0.002723
 **** Fit       0.002746
 **** Fit       0.002710
 **** Fit       0.002571
 **** Fit       0.002294
 **** Fit       0.001885
 **** Fit       0.001402
 **** Fit       0.000929
 **** Fit       0.000538
 **** Fit       0.000264
 **** Fit       0.002548
 **** Fit       0.002552
 **** Fit       0.002533
 **** Fit       0.002463
 **** Fit       0.002298
 **** Fit       0.002006
 **** Fit       0.001596
 **** Fit       0.001126
 **** Fit       0.000679
 **** Fit       0.000321
 **** Fit       0.000083
 **** Fit       0.002240
 **** Fit       0.002330
 **** Fit       0.002368
 **** Fit       0.002362
 **** Fit       0.002325
 **** Fit       0.002270
 **** Fit       0.002194
 **** Fit       0.002074
 **** Fit       0.001877
 **** Fit       0.001580
 **** Fit       0.001194
 **** Fit       0.000774
 **** Fit       0.000390
 **** Fit       0.000098
 **** Fit      -0.000083
 **** Fit       0.001973
 **** Fit       0.002092
 **** Fit       0.002158
 **** Fit       0.002161
 **** Fit       0.002109
 **** Fit       0.002017
 **** Fit       0.001903
 **** Fit       0.001770
 **** Fit       0.001604
 **** Fit       0.001383
 **** Fit       0.001096
 **** Fit       0.000758
 **** Fit       0.000414
 **** Fit       0.000117
 **** Fit      -0.000093
 **** Fit      -0.000206
 **** Fit       0.001774
 **** Fit       0.001869
 **** Fit       0.001906
 **** Fit       0.001875
 **** Fit       0.001783
 **** Fit       0.001650
 **** Fit       0.001493
 **** Fit       0.001322
 **** Fit       0.001130
 **** Fit       0.000906
 **** Fit       0.000649
 **** Fit       0.000374
 **** Fit       0.000116
 **** Fit      -0.000088
 **** Fit      -0.000216
 **** Fit       0.001516
 **** Fit       0.001579
 **** Fit       0.001585
 **** Fit       0.001526
 **** Fit       0.001410
 **** Fit       0.001256
 **** Fit       0.001083
 **** Fit       0.000902
 **** Fit       0.000714
 **** Fit       0.000513
 **** Fit       0.000303
 **** Fit       0.000100
 **** Fit      -0.000074
 **** Fit      -0.000194
 **** Fit       0.001219
 **** Fit       0.001248
 **** Fit       0.001226
 **** Fit       0.001149
 **** Fit       0.001026
 **** Fit       0.000875
 **** Fit       0.000235
 **** Fit       0.000084
 **** Fit      -0.000049
 **** Fit      -0.000148
 **** Fit       0.000914
 **** Fit       0.000871
 **** Fit       0.000788
 **** Fit       0.000674
 **** Fit       0.000544
 **** Fit       0.000483
 **** Fit       0.001950
 **** Fit       0.001724
 **** Fit       0.002288
 **** Fit       0.002166
 **** Fit       0.001976
 **** Fit       0.001724
 **** Fit       0.001437
 **** Fit       0.001148
 **** Fit       0.002340
 **** Fit       0.002277
 **** Fit       0.002147
 **** Fit       0.001942
 **** Fit       0.001670
 **** Fit       0.001360
 **** Fit       0.001051
 **** Fit       0.002257
 **** Fit       0.002183
 **** Fit       0.002042
 **** Fit       0.001825
 **** Fit       0.001541
 **** Fit       0.001222
 **** Fit       0.000910
 **** Fit       0.000640
 **** Fit       0.002090
 **** Fit       0.001995
 **** Fit       0.001840
 **** Fit       0.001616
 **** Fit       0.001335
 **** Fit       0.001026
 **** Fit       0.000730
 **** Fit       0.000482
 **** Fit       0.001845
 **** Fit       0.001727
 **** Fit       0.001559
 **** Fit       0.001336
 **** Fit       0.001070
 **** Fit       0.000790
 **** Fit       0.000530
 **** Fit       0.000321
 **** Fit       0.001410
 **** Fit       0.001235
 **** Fit       0.001024
 **** Fit       0.000788
 **** Fit       0.000550
 **** Fit       0.000341
 **** Fit       0.001084
 **** Fit       0.000916
 **** Fit       0.000727
 **** Fit       0.000530
 **** Fit       0.000344
 -----------------------------------------------------------------
 Leave Link  602 at Fri Apr 28 12:30:57 2017, MaxMem=   33554432 cpu:      96.6
 (Enter /scratch/michal/g09/l9999.exe)

 Test job not archived.
 1\1\GINC-RZEPICHA\SP\RHF\6-31G(d)\C27H46O3\MICHAL\28-Apr-2017\0\\#P HF
 /6-31G* SCF(Conver=6) NoSymm Test Pop=chelpg IOp(6/33=2) GFInput GFPri
 nt\\MEP - Input generated by R.E.D.-III.x MOLECULE\\0,1\C,0,1.75954751
 ,-1.24765481,-0.07181661\H,0,1.87318551,-1.12154867,-1.15552854\C,0,3.
 15107305,-1.31129329,0.57286101\H,0,3.72959721,-2.12709806,0.12884817\
 H,0,3.01411044,-1.56419574,1.63700795\C,0,3.91302257,-0.00447387,0.455
 87554\C,0,3.18718022,1.27110405,0.89510078\C,0,1.74698374,1.25388557,0
 .29439045\H,0,1.82189559,1.44993579,-0.78432212\H,0,1.16313188,2.07704
 173,0.71972264\C,0,0.97758706,-0.06143681,0.49157133\H,0,0.78195792,-0
 .23658915,1.55986648\H,0,0.,0.,0.\C,0,5.17254198,0.,0.\H,0,5.63846599,
 -0.9335907,-0.3073085\C,0,6.05862919,1.20688853,-0.09492881\H,0,6.3147
 9502,1.4066144,-1.14703747\C,0,5.48149787,2.47367909,0.55796334\H,0,5.
 69817189,2.40368684,1.63208508\C,0,3.94290554,2.52768943,0.34250051\H,
 0,3.79270193,2.50573848,-0.74921801\C,0,3.35755429,3.86608453,0.847640
 92\H,0,3.39127339,3.8938736,1.9421913\H,0,2.2979932,3.9274779,0.576765
 13\C,0,4.07160569,5.11593158,0.29816843\H,0,3.91446861,5.17754509,-0.7
 8846421\H,0,3.59894201,6.00305839,0.73072599\C,0,5.58801281,5.08316715
 ,0.57595236\C,0,6.12126009,3.74882462,-0.02218601\H,0,5.82141241,3.771
 97447,-1.08407019\C,0,7.64899282,3.91183001,0.\H,0,8.14558365,3.270159
 41,-0.73443274\H,0,8.05471341,3.63608756,0.97852502\C,0,7.86239115,5.4
 1983507,-0.30040026\H,0,8.54976257,5.86801522,0.42703938\H,0,8.3178119
 7,5.56537206,-1.28456853\C,0,6.4596014,6.11290844,-0.22542915\H,0,6.03
 901661,6.13902576,-1.24348619\C,0,5.87152093,5.20252296,2.09114297\H,0
 ,5.44157119,4.37555861,2.66186538\H,0,6.94390651,5.21863698,2.30709267
 \H,0,5.44460157,6.12724751,2.49258069\C,0,6.54603506,7.58410594,0.2581
 9517\H,0,7.02668978,7.58299063,1.24842936\C,0,5.16930611,8.25889048,0.
 39603007\H,0,4.59893252,8.17588074,-0.537533\H,0,5.27061114,9.32356008
 ,0.62686277\H,0,4.56851144,7.81735761,1.19435436\C,0,3.10536031,1.2842
 6904,2.44504023\H,0,2.46301093,2.09440571,2.80420209\H,0,2.69081888,0.
 34947001,2.83122022\H,0,4.0962035,1.40448344,2.8930594\O,0,7.30295478,
 0.95874036,0.60731415\O,0,8.03560344,-0.06457582,-0.13188396\H,0,8.802
 07198,0.45285444,-0.4290169\O,0,1.05250746,-2.4836441,0.06380204\H,0,0
 .92143008,-2.66349724,1.0054273\C,0,7.45231353,8.41219841,-0.68924114\
 H,0,8.33587335,7.82239435,-0.95110989\H,0,6.91100462,8.58399297,-1.632
 7839\C,0,7.92255551,9.76091549,-0.11994162\H,0,7.05700838,10.35750173,
 0.19230692\H,0,8.50476218,9.58045566,0.7939585\C,0,8.74161293,10.61598
 272,-1.10517525\H,0,8.94588349,11.59012635,-0.63647103\H,0,8.11579845,
 10.82927642,-1.98391211\C,0,10.08331068,10.02958923,-1.5942762\H,0,9.8
 8182777,9.06571522,-2.08319815\C,0,10.71234388,10.95543497,-2.64787164
 \H,0,10.94298708,11.93832881,-2.21707849\H,0,11.64679847,10.53699715,-
 3.03892265\H,0,10.03546925,11.11452608,-3.49520319\C,0,11.06831191,9.7
 7740396,-0.44177539\H,0,11.28571015,10.7098276,0.09543996\H,0,12.01870
 419,9.3825083,-0.81849467\H,0,10.67837095,9.05780918,0.28539852\\Versi
 on=EM64L-G09RevC.01\HF=-1273.6829657\RMSD=5.508e-07\Dipole=-0.0017007,
 1.0404178,0.0934785\Quadrupole=0.2084615,-1.7664879,1.5580264,7.117860
 5,-7.195351,-2.7291032\PG=C01 [X(C27H46O3)]\\@


 THE REASON MAN'S BEST FRIEND IS A DOG IS BECAUSE
 HE WAGS HIS TAIL INSTEAD OF HIS TONGUE.
 Job cpu time:  0 days  0 hours 44 minutes 17.3 seconds.
 File lengths (MBytes):  RWF=    159 Int=      0 D2E=      0 Chk=     11 Scr=      1
 Normal termination of Gaussian 09 at Fri Apr 28 12:30:57 2017.
