 Entering Gaussian System, Link 0=/scratch/michal/g09//g09
 Input=JOB2-gau_m1-5-2.com
 Output=JOB2-gau_m1-5-2.log
 Initial command:
 /scratch/michal/g09/l1.exe /scratch/michal/gauss_scratch/Gau-37818.inp -scrdir=/scratch/michal/gauss_scratch/
 Entering Link 1 = /scratch/michal/g09/l1.exe PID=     37820.
  
 Copyright (c) 1988,1990,1992,1993,1995,1998,2003,2009,2011,
            Gaussian, Inc.  All Rights Reserved.
  
 This is part of the Gaussian(R) 09 program.  It is based on
 the Gaussian(R) 03 system (copyright 2003, Gaussian, Inc.),
 the Gaussian(R) 98 system (copyright 1998, Gaussian, Inc.),
 the Gaussian(R) 94 system (copyright 1995, Gaussian, Inc.),
 the Gaussian 92(TM) system (copyright 1992, Gaussian, Inc.),
 the Gaussian 90(TM) system (copyright 1990, Gaussian, Inc.),
 the Gaussian 88(TM) system (copyright 1988, Gaussian, Inc.),
 the Gaussian 86(TM) system (copyright 1986, Carnegie Mellon
 University), and the Gaussian 82(TM) system (copyright 1983,
 Carnegie Mellon University). Gaussian is a federally registered
 trademark of Gaussian, Inc.
  
 This software contains proprietary and confidential information,
 including trade secrets, belonging to Gaussian, Inc.
  
 This software is provided under written license and may be
 used, copied, transmitted, or stored only in accord with that
 written license.
  
 The following legend is applicable only to US Government
 contracts under FAR:
  
                    RESTRICTED RIGHTS LEGEND
  
 Use, reproduction and disclosure by the US Government is
 subject to restrictions as set forth in subparagraphs (a)
 and (c) of the Commercial Computer Software - Restricted
 Rights clause in FAR 52.227-19.
  
 Gaussian, Inc.
 340 Quinnipiac St., Bldg. 40, Wallingford CT 06492
  
  
 ---------------------------------------------------------------
 Warning -- This program may not be used in any manner that
 competes with the business of Gaussian, Inc. or will provide
 assistance to any competitor of Gaussian, Inc.  The licensee
 of this program is prohibited from giving any competitor of
 Gaussian, Inc. access to this program.  By using this program,
 the user acknowledges that Gaussian, Inc. is engaged in the
 business of creating and licensing software in the field of
 computational chemistry and represents and warrants to the
 licensee that it is not a competitor of Gaussian, Inc. and that
 it will not use this program in any manner prohibited above.
 ---------------------------------------------------------------
  

 Cite this work as:
 Gaussian 09, Revision C.01,
 M. J. Frisch, G. W. Trucks, H. B. Schlegel, G. E. Scuseria, 
 M. A. Robb, J. R. Cheeseman, G. Scalmani, V. Barone, B. Mennucci, 
 G. A. Petersson, H. Nakatsuji, M. Caricato, X. Li, H. P. Hratchian, 
 A. F. Izmaylov, J. Bloino, G. Zheng, J. L. Sonnenberg, M. Hada, 
 M. Ehara, K. Toyota, R. Fukuda, J. Hasegawa, M. Ishida, T. Nakajima, 
 Y. Honda, O. Kitao, H. Nakai, T. Vreven, J. A. Montgomery, Jr., 
 J. E. Peralta, F. Ogliaro, M. Bearpark, J. J. Heyd, E. Brothers, 
 K. N. Kudin, V. N. Staroverov, T. Keith, R. Kobayashi, J. Normand, 
 K. Raghavachari, A. Rendell, J. C. Burant, S. S. Iyengar, J. Tomasi, 
 M. Cossi, N. Rega, J. M. Millam, M. Klene, J. E. Knox, J. B. Cross, 
 V. Bakken, C. Adamo, J. Jaramillo, R. Gomperts, R. E. Stratmann, 
 O. Yazyev, A. J. Austin, R. Cammi, C. Pomelli, J. W. Ochterski, 
 R. L. Martin, K. Morokuma, V. G. Zakrzewski, G. A. Voth, 
 P. Salvador, J. J. Dannenberg, S. Dapprich, A. D. Daniels, 
 O. Farkas, J. B. Foresman, J. V. Ortiz, J. Cioslowski, 
 and D. J. Fox, Gaussian, Inc., Wallingford CT, 2010.
 
 ******************************************
 Gaussian 09:  EM64L-G09RevC.01 23-Sep-2011
                28-Apr-2017 
 ******************************************
 %Mem=256MB
 %NProc=48
 Will use up to   48 processors via shared memory.
 ----------------------------------------------------------------------
 #P HF/6-31G* SCF(Conver=6) NoSymm Test Pop=chelpg IOp(6/33=2) GFInput 
 GFPrint
 ----------------------------------------------------------------------
 1/38=1/1;
 2/12=2,15=1,17=6,18=5,40=1/2;
 3/5=1,6=6,7=1,11=9,16=1,24=110,25=1,30=1/1,2,3;
 4//1;
 5/5=2,6=6,38=5/2;
 6/7=2,8=2,9=2,10=2,15=8,20=3,28=1,33=2/1,2;
 99/5=1,9=1/99;
 Leave Link    1 at Fri Apr 28 12:20:17 2017, MaxMem=   33554432 cpu:       5.1
 (Enter /scratch/michal/g09/l101.exe)
 ----------------------------------------------
 MEP - Input generated by R.E.D.-III.x MOLECULE
 ----------------------------------------------
 Charge =  0 Multiplicity = 1
 Symbolic Z-Matrix:
 C                     7.5175    2.21514   0.06869 
 H                     7.3556    2.18417   1.15312 
 C                     6.82215   1.00738  -0.57558 
 H                     7.20523   0.08099  -0.13604 
 H                     7.10345   0.99211  -1.64115 
 C                     5.31128   1.06234  -0.45374 
 C                     4.61626   2.36057  -0.87867 
 C                     5.40988   3.5648   -0.2822 
 H                     5.2117    3.60662   0.79786 
 H                     5.0243    4.49868  -0.70419 
 C                     6.93126   3.51094  -0.48957 
 H                     7.17686   3.58334  -1.55957 
 H                     7.40583   4.36893   0. 
 C                     4.63254   0.        0. 
 H                     5.17674  -0.89066   0.31602 
 C                     3.13946  -0.09981   0.10919 
 H                     2.85601  -0.19299   1.17026 
 C                     2.37492   1.06855  -0.53156 
 H                     2.31697   0.85618  -1.60465 
 C                     3.15616   2.39285  -0.30556 
 H                     3.27165   2.49371   0.78648 
 C                     2.33973   3.61668  -0.77929 
 H                     2.2903    3.62744  -1.87354 
 H                     2.85745   4.53808  -0.49097 
 C                     0.9051    3.67103  -0.21935 
 H                     0.94397   3.81123   0.87071 
 H                     0.40802   4.55608  -0.62822 
 C                     0.11874   2.38002  -0.52293 
 C                     0.95714   1.20138   0.05258 
 H                     1.09597   1.44467   1.12096 
 C                     0.        0.        0. 
 H                     0.27465  -0.78599   0.70807 
 H                     0.01656  -0.46399  -0.99145 
 C                    -1.38657   0.62364   0.31323 
 H                    -2.13419   0.30047  -0.42125 
 H                    -1.75479   0.29677   1.29044 
 C                    -1.21894   2.18076   0.27224 
 H                    -1.0167    2.52822   1.2982 
 C                    -0.13276   2.23514  -2.04167 
 H                     0.79595   2.15775  -2.61262 
 H                    -0.72682   1.34667  -2.2743 
 H                    -0.67803   3.1027   -2.42763 
 C                    -2.5069    2.90707  -0.19694 
 H                    -2.76497   2.51994  -1.19454 
 C                    -2.34055   4.43323  -0.30734 
 H                    -1.98798   4.8582    0.64096 
 H                    -3.28946   4.91858  -0.55433 
 H                    -1.62788   4.71651  -1.08506 
 C                     4.63029   2.4412   -2.42845 
 H                     4.27676   3.41577  -2.77893 
 H                     5.6389    2.30247  -2.82735 
 H                     3.99882   1.66475  -2.86975 
 O                     2.68617  -1.39293  -0.36595 
 O                     2.93514  -1.48952  -1.79944 
 H                     3.73022  -2.0472   -1.81219 
 O                     8.93868   2.14724  -0.07456 
 H                     9.15848   2.20114  -1.01529 
 C                    -3.68779   2.56343   0.74548 
 H                    -3.70036   1.48412   0.93383 
 H                    -3.50906   3.0398    1.72192 
 C                    -5.08061   2.96386   0.23247 
 H                    -5.13169   4.04815   0.08447 
 H                    -5.24288   2.50891  -0.75622 
 C                    -6.20707   2.5221    1.17908 
 H                    -6.07035   3.00624   2.15839 
 H                    -6.10899   1.44197   1.35929 
 C                    -7.63992   2.8034    0.68229 
 H                    -7.74156   2.34585  -0.31409 
 C                    -8.67116   2.13965   1.60882 
 H                    -8.61223   2.55803   2.62189 
 H                    -9.69294   2.29632   1.24458 
 H                    -8.50362   1.05918   1.68499 
 C                    -7.93331   4.3061    0.54264 
 H                    -7.81801   4.81552   1.50836 
 H                    -8.96096   4.4739    0.20055 
 H                    -7.26458   4.79313  -0.17404 
 
 NAtoms=     76 NQM=        0 NQMF=       0 NMMI=     76 NMMIF=      0
                NMic=       0 NMicF=      0.
                    Isotopes and Nuclear Properties:
 (Nuclear quadrupole moments (NQMom) in fm**2, nuclear magnetic moments (NMagM)
  in nuclear magnetons)

  Atom         1           2           3           4           5           6           7           8           9          10
 IAtWgt=          12           1          12           1           1          12          12          12           1           1
 AtmWgt=  12.0000000   1.0078250  12.0000000   1.0078250   1.0078250  12.0000000  12.0000000  12.0000000   1.0078250   1.0078250
 NucSpn=           0           1           0           1           1           0           0           0           1           1
 AtZEff=   0.0000000   0.0000000   0.0000000   0.0000000   0.0000000   0.0000000   0.0000000   0.0000000   0.0000000   0.0000000
 NQMom=    0.0000000   0.0000000   0.0000000   0.0000000   0.0000000   0.0000000   0.0000000   0.0000000   0.0000000   0.0000000
 NMagM=    0.0000000   2.7928460   0.0000000   2.7928460   2.7928460   0.0000000   0.0000000   0.0000000   2.7928460   2.7928460

  Atom        11          12          13          14          15          16          17          18          19          20
 IAtWgt=          12           1           1          12           1          12           1          12           1          12
 AtmWgt=  12.0000000   1.0078250   1.0078250  12.0000000   1.0078250  12.0000000   1.0078250  12.0000000   1.0078250  12.0000000
 NucSpn=           0           1           1           0           1           0           1           0           1           0
 AtZEff=   0.0000000   0.0000000   0.0000000   0.0000000   0.0000000   0.0000000   0.0000000   0.0000000   0.0000000   0.0000000
 NQMom=    0.0000000   0.0000000   0.0000000   0.0000000   0.0000000   0.0000000   0.0000000   0.0000000   0.0000000   0.0000000
 NMagM=    0.0000000   2.7928460   2.7928460   0.0000000   2.7928460   0.0000000   2.7928460   0.0000000   2.7928460   0.0000000

  Atom        21          22          23          24          25          26          27          28          29          30
 IAtWgt=           1          12           1           1          12           1           1          12          12           1
 AtmWgt=   1.0078250  12.0000000   1.0078250   1.0078250  12.0000000   1.0078250   1.0078250  12.0000000  12.0000000   1.0078250
 NucSpn=           1           0           1           1           0           1           1           0           0           1
 AtZEff=   0.0000000   0.0000000   0.0000000   0.0000000   0.0000000   0.0000000   0.0000000   0.0000000   0.0000000   0.0000000
 NQMom=    0.0000000   0.0000000   0.0000000   0.0000000   0.0000000   0.0000000   0.0000000   0.0000000   0.0000000   0.0000000
 NMagM=    2.7928460   0.0000000   2.7928460   2.7928460   0.0000000   2.7928460   2.7928460   0.0000000   0.0000000   2.7928460

  Atom        31          32          33          34          35          36          37          38          39          40
 IAtWgt=          12           1           1          12           1           1          12           1          12           1
 AtmWgt=  12.0000000   1.0078250   1.0078250  12.0000000   1.0078250   1.0078250  12.0000000   1.0078250  12.0000000   1.0078250
 NucSpn=           0           1           1           0           1           1           0           1           0           1
 AtZEff=   0.0000000   0.0000000   0.0000000   0.0000000   0.0000000   0.0000000   0.0000000   0.0000000   0.0000000   0.0000000
 NQMom=    0.0000000   0.0000000   0.0000000   0.0000000   0.0000000   0.0000000   0.0000000   0.0000000   0.0000000   0.0000000
 NMagM=    0.0000000   2.7928460   2.7928460   0.0000000   2.7928460   2.7928460   0.0000000   2.7928460   0.0000000   2.7928460

  Atom        41          42          43          44          45          46          47          48          49          50
 IAtWgt=           1           1          12           1          12           1           1           1          12           1
 AtmWgt=   1.0078250   1.0078250  12.0000000   1.0078250  12.0000000   1.0078250   1.0078250   1.0078250  12.0000000   1.0078250
 NucSpn=           1           1           0           1           0           1           1           1           0           1
 AtZEff=   0.0000000   0.0000000   0.0000000   0.0000000   0.0000000   0.0000000   0.0000000   0.0000000   0.0000000   0.0000000
 NQMom=    0.0000000   0.0000000   0.0000000   0.0000000   0.0000000   0.0000000   0.0000000   0.0000000   0.0000000   0.0000000
 NMagM=    2.7928460   2.7928460   0.0000000   2.7928460   0.0000000   2.7928460   2.7928460   2.7928460   0.0000000   2.7928460

  Atom        51          52          53          54          55          56          57          58          59          60
 IAtWgt=           1           1          16          16           1          16           1          12           1           1
 AtmWgt=   1.0078250   1.0078250  15.9949146  15.9949146   1.0078250  15.9949146   1.0078250  12.0000000   1.0078250   1.0078250
 NucSpn=           1           1           0           0           1           0           1           0           1           1
 AtZEff=   0.0000000   0.0000000   0.0000000   0.0000000   0.0000000   0.0000000   0.0000000   0.0000000   0.0000000   0.0000000
 NQMom=    0.0000000   0.0000000   0.0000000   0.0000000   0.0000000   0.0000000   0.0000000   0.0000000   0.0000000   0.0000000
 NMagM=    2.7928460   2.7928460   0.0000000   0.0000000   2.7928460   0.0000000   2.7928460   0.0000000   2.7928460   2.7928460

  Atom        61          62          63          64          65          66          67          68          69          70
 IAtWgt=          12           1           1          12           1           1          12           1          12           1
 AtmWgt=  12.0000000   1.0078250   1.0078250  12.0000000   1.0078250   1.0078250  12.0000000   1.0078250  12.0000000   1.0078250
 NucSpn=           0           1           1           0           1           1           0           1           0           1
 AtZEff=   0.0000000   0.0000000   0.0000000   0.0000000   0.0000000   0.0000000   0.0000000   0.0000000   0.0000000   0.0000000
 NQMom=    0.0000000   0.0000000   0.0000000   0.0000000   0.0000000   0.0000000   0.0000000   0.0000000   0.0000000   0.0000000
 NMagM=    0.0000000   2.7928460   2.7928460   0.0000000   2.7928460   2.7928460   0.0000000   2.7928460   0.0000000   2.7928460

  Atom        71          72          73          74          75          76
 IAtWgt=           1           1          12           1           1           1
 AtmWgt=   1.0078250   1.0078250  12.0000000   1.0078250   1.0078250   1.0078250
 NucSpn=           1           1           0           1           1           1
 AtZEff=   0.0000000   0.0000000   0.0000000   0.0000000   0.0000000   0.0000000
 NQMom=    0.0000000   0.0000000   0.0000000   0.0000000   0.0000000   0.0000000
 NMagM=    2.7928460   2.7928460   0.0000000   2.7928460   2.7928460   2.7928460
 Leave Link  101 at Fri Apr 28 12:20:18 2017, MaxMem=   33554432 cpu:      13.5
 (Enter /scratch/michal/g09/l202.exe)
 Symmetry turned off by external request.
 Stoichiometry    C27H46O3
 Framework group  C1[X(C27H46O3)]
 Deg. of freedom   222
 Full point group                 C1      NOp   1
                          Input orientation:                          
 ---------------------------------------------------------------------
 Center     Atomic      Atomic             Coordinates (Angstroms)
 Number     Number       Type             X           Y           Z
 ---------------------------------------------------------------------
      1          6           0        7.517498    2.215136    0.068695
      2          1           0        7.355603    2.184173    1.153122
      3          6           0        6.822151    1.007377   -0.575580
      4          1           0        7.205228    0.080993   -0.136043
      5          1           0        7.103453    0.992106   -1.641151
      6          6           0        5.311278    1.062336   -0.453745
      7          6           0        4.616261    2.360572   -0.878668
      8          6           0        5.409876    3.564803   -0.282204
      9          1           0        5.211700    3.606620    0.797865
     10          1           0        5.024305    4.498681   -0.704193
     11          6           0        6.931257    3.510936   -0.489571
     12          1           0        7.176860    3.583344   -1.559569
     13          1           0        7.405825    4.368927    0.000000
     14          6           0        4.632544    0.000000    0.000000
     15          1           0        5.176744   -0.890658    0.316025
     16          6           0        3.139458   -0.099813    0.109188
     17          1           0        2.856015   -0.192986    1.170256
     18          6           0        2.374920    1.068549   -0.531559
     19          1           0        2.316974    0.856183   -1.604646
     20          6           0        3.156157    2.392852   -0.305556
     21          1           0        3.271651    2.493709    0.786484
     22          6           0        2.339727    3.616675   -0.779286
     23          1           0        2.290298    3.627443   -1.873545
     24          1           0        2.857447    4.538081   -0.490971
     25          6           0        0.905099    3.671028   -0.219351
     26          1           0        0.943971    3.811226    0.870707
     27          1           0        0.408019    4.556079   -0.628222
     28          6           0        0.118745    2.380018   -0.522933
     29          6           0        0.957135    1.201376    0.052582
     30          1           0        1.095975    1.444673    1.120961
     31          6           0        0.000000    0.000000    0.000000
     32          1           0        0.274655   -0.785986    0.708075
     33          1           0        0.016564   -0.463992   -0.991453
     34          6           0       -1.386571    0.623638    0.313228
     35          1           0       -2.134187    0.300472   -0.421252
     36          1           0       -1.754790    0.296775    1.290440
     37          6           0       -1.218939    2.180756    0.272243
     38          1           0       -1.016703    2.528222    1.298204
     39          6           0       -0.132757    2.235139   -2.041669
     40          1           0        0.795946    2.157750   -2.612618
     41          1           0       -0.726824    1.346669   -2.274298
     42          1           0       -0.678031    3.102705   -2.427625
     43          6           0       -2.506899    2.907068   -0.196935
     44          1           0       -2.764972    2.519938   -1.194536
     45          6           0       -2.340552    4.433234   -0.307344
     46          1           0       -1.987975    4.858196    0.640958
     47          1           0       -3.289457    4.918575   -0.554335
     48          1           0       -1.627877    4.716512   -1.085057
     49          6           0        4.630294    2.441199   -2.428448
     50          1           0        4.276759    3.415770   -2.778933
     51          1           0        5.638905    2.302466   -2.827354
     52          1           0        3.998819    1.664751   -2.869750
     53          8           0        2.686175   -1.392928   -0.365948
     54          8           0        2.935138   -1.489522   -1.799445
     55          1           0        3.730220   -2.047196   -1.812186
     56          8           0        8.938681    2.147236   -0.074559
     57          1           0        9.158483    2.201136   -1.015292
     58          6           0       -3.687789    2.563427    0.745480
     59          1           0       -3.700358    1.484119    0.933827
     60          1           0       -3.509057    3.039802    1.721920
     61          6           0       -5.080607    2.963863    0.232473
     62          1           0       -5.131692    4.048150    0.084469
     63          1           0       -5.242882    2.508912   -0.756222
     64          6           0       -6.207069    2.522095    1.179080
     65          1           0       -6.070350    3.006237    2.158392
     66          1           0       -6.108992    1.441970    1.359294
     67          6           0       -7.639916    2.803399    0.682288
     68          1           0       -7.741560    2.345852   -0.314086
     69          6           0       -8.671164    2.139653    1.608816
     70          1           0       -8.612232    2.558025    2.621892
     71          1           0       -9.692940    2.296322    1.244580
     72          1           0       -8.503619    1.059181    1.684986
     73          6           0       -7.933313    4.306103    0.542638
     74          1           0       -7.818013    4.815521    1.508363
     75          1           0       -8.960960    4.473901    0.200545
     76          1           0       -7.264584    4.793131   -0.174042
 ---------------------------------------------------------------------
 Rotational constants (GHZ):      0.4156373      0.0503978      0.0471128
 Leave Link  202 at Fri Apr 28 12:20:18 2017, MaxMem=   33554432 cpu:       0.1
 (Enter /scratch/michal/g09/l301.exe)
 Standard basis: 6-31G(d) (6D, 7F)
 Ernie: Thresh=  0.10000D-02 Tol=  0.10000D-05 Strict=F.
 AO basis set in the form of general basis input (Overlap normalization):
      1 0
 S   6 1.00       0.000000000000
      0.3047524880D+04  0.1834737132D-02
      0.4573695180D+03  0.1403732281D-01
      0.1039486850D+03  0.6884262226D-01
      0.2921015530D+02  0.2321844432D+00
      0.9286662960D+01  0.4679413484D+00
      0.3163926960D+01  0.3623119853D+00
 SP   3 1.00       0.000000000000
      0.7868272350D+01 -0.1193324198D+00  0.6899906659D-01
      0.1881288540D+01 -0.1608541517D+00  0.3164239610D+00
      0.5442492580D+00  0.1143456438D+01  0.7443082909D+00
 SP   1 1.00       0.000000000000
      0.1687144782D+00  0.1000000000D+01  0.1000000000D+01
 D   1 1.00       0.000000000000
      0.8000000000D+00  0.1000000000D+01
 ****
      2 0
 S   3 1.00       0.000000000000
      0.1873113696D+02  0.3349460434D-01
      0.2825394365D+01  0.2347269535D+00
      0.6401216923D+00  0.8137573261D+00
 S   1 1.00       0.000000000000
      0.1612777588D+00  0.1000000000D+01
 ****
      3 0
 S   6 1.00       0.000000000000
      0.3047524880D+04  0.1834737132D-02
      0.4573695180D+03  0.1403732281D-01
      0.1039486850D+03  0.6884262226D-01
      0.2921015530D+02  0.2321844432D+00
      0.9286662960D+01  0.4679413484D+00
      0.3163926960D+01  0.3623119853D+00
 SP   3 1.00       0.000000000000
      0.7868272350D+01 -0.1193324198D+00  0.6899906659D-01
      0.1881288540D+01 -0.1608541517D+00  0.3164239610D+00
      0.5442492580D+00  0.1143456438D+01  0.7443082909D+00
 SP   1 1.00       0.000000000000
      0.1687144782D+00  0.1000000000D+01  0.1000000000D+01
 D   1 1.00       0.000000000000
      0.8000000000D+00  0.1000000000D+01
 ****
      4 0
 S   3 1.00       0.000000000000
      0.1873113696D+02  0.3349460434D-01
      0.2825394365D+01  0.2347269535D+00
      0.6401216923D+00  0.8137573261D+00
 S   1 1.00       0.000000000000
      0.1612777588D+00  0.1000000000D+01
 ****
      5 0
 S   3 1.00       0.000000000000
      0.1873113696D+02  0.3349460434D-01
      0.2825394365D+01  0.2347269535D+00
      0.6401216923D+00  0.8137573261D+00
 S   1 1.00       0.000000000000
      0.1612777588D+00  0.1000000000D+01
 ****
      6 0
 S   6 1.00       0.000000000000
      0.3047524880D+04  0.1834737132D-02
      0.4573695180D+03  0.1403732281D-01
      0.1039486850D+03  0.6884262226D-01
      0.2921015530D+02  0.2321844432D+00
      0.9286662960D+01  0.4679413484D+00
      0.3163926960D+01  0.3623119853D+00
 SP   3 1.00       0.000000000000
      0.7868272350D+01 -0.1193324198D+00  0.6899906659D-01
      0.1881288540D+01 -0.1608541517D+00  0.3164239610D+00
      0.5442492580D+00  0.1143456438D+01  0.7443082909D+00
 SP   1 1.00       0.000000000000
      0.1687144782D+00  0.1000000000D+01  0.1000000000D+01
 D   1 1.00       0.000000000000
      0.8000000000D+00  0.1000000000D+01
 ****
      7 0
 S   6 1.00       0.000000000000
      0.3047524880D+04  0.1834737132D-02
      0.4573695180D+03  0.1403732281D-01
      0.1039486850D+03  0.6884262226D-01
      0.2921015530D+02  0.2321844432D+00
      0.9286662960D+01  0.4679413484D+00
      0.3163926960D+01  0.3623119853D+00
 SP   3 1.00       0.000000000000
      0.7868272350D+01 -0.1193324198D+00  0.6899906659D-01
      0.1881288540D+01 -0.1608541517D+00  0.3164239610D+00
      0.5442492580D+00  0.1143456438D+01  0.7443082909D+00
 SP   1 1.00       0.000000000000
      0.1687144782D+00  0.1000000000D+01  0.1000000000D+01
 D   1 1.00       0.000000000000
      0.8000000000D+00  0.1000000000D+01
 ****
      8 0
 S   6 1.00       0.000000000000
      0.3047524880D+04  0.1834737132D-02
      0.4573695180D+03  0.1403732281D-01
      0.1039486850D+03  0.6884262226D-01
      0.2921015530D+02  0.2321844432D+00
      0.9286662960D+01  0.4679413484D+00
      0.3163926960D+01  0.3623119853D+00
 SP   3 1.00       0.000000000000
      0.7868272350D+01 -0.1193324198D+00  0.6899906659D-01
      0.1881288540D+01 -0.1608541517D+00  0.3164239610D+00
      0.5442492580D+00  0.1143456438D+01  0.7443082909D+00
 SP   1 1.00       0.000000000000
      0.1687144782D+00  0.1000000000D+01  0.1000000000D+01
 D   1 1.00       0.000000000000
      0.8000000000D+00  0.1000000000D+01
 ****
      9 0
 S   3 1.00       0.000000000000
      0.1873113696D+02  0.3349460434D-01
      0.2825394365D+01  0.2347269535D+00
      0.6401216923D+00  0.8137573261D+00
 S   1 1.00       0.000000000000
      0.1612777588D+00  0.1000000000D+01
 ****
     10 0
 S   3 1.00       0.000000000000
      0.1873113696D+02  0.3349460434D-01
      0.2825394365D+01  0.2347269535D+00
      0.6401216923D+00  0.8137573261D+00
 S   1 1.00       0.000000000000
      0.1612777588D+00  0.1000000000D+01
 ****
     11 0
 S   6 1.00       0.000000000000
      0.3047524880D+04  0.1834737132D-02
      0.4573695180D+03  0.1403732281D-01
      0.1039486850D+03  0.6884262226D-01
      0.2921015530D+02  0.2321844432D+00
      0.9286662960D+01  0.4679413484D+00
      0.3163926960D+01  0.3623119853D+00
 SP   3 1.00       0.000000000000
      0.7868272350D+01 -0.1193324198D+00  0.6899906659D-01
      0.1881288540D+01 -0.1608541517D+00  0.3164239610D+00
      0.5442492580D+00  0.1143456438D+01  0.7443082909D+00
 SP   1 1.00       0.000000000000
      0.1687144782D+00  0.1000000000D+01  0.1000000000D+01
 D   1 1.00       0.000000000000
      0.8000000000D+00  0.1000000000D+01
 ****
     12 0
 S   3 1.00       0.000000000000
      0.1873113696D+02  0.3349460434D-01
      0.2825394365D+01  0.2347269535D+00
      0.6401216923D+00  0.8137573261D+00
 S   1 1.00       0.000000000000
      0.1612777588D+00  0.1000000000D+01
 ****
     13 0
 S   3 1.00       0.000000000000
      0.1873113696D+02  0.3349460434D-01
      0.2825394365D+01  0.2347269535D+00
      0.6401216923D+00  0.8137573261D+00
 S   1 1.00       0.000000000000
      0.1612777588D+00  0.1000000000D+01
 ****
     14 0
 S   6 1.00       0.000000000000
      0.3047524880D+04  0.1834737132D-02
      0.4573695180D+03  0.1403732281D-01
      0.1039486850D+03  0.6884262226D-01
      0.2921015530D+02  0.2321844432D+00
      0.9286662960D+01  0.4679413484D+00
      0.3163926960D+01  0.3623119853D+00
 SP   3 1.00       0.000000000000
      0.7868272350D+01 -0.1193324198D+00  0.6899906659D-01
      0.1881288540D+01 -0.1608541517D+00  0.3164239610D+00
      0.5442492580D+00  0.1143456438D+01  0.7443082909D+00
 SP   1 1.00       0.000000000000
      0.1687144782D+00  0.1000000000D+01  0.1000000000D+01
 D   1 1.00       0.000000000000
      0.8000000000D+00  0.1000000000D+01
 ****
     15 0
 S   3 1.00       0.000000000000
      0.1873113696D+02  0.3349460434D-01
      0.2825394365D+01  0.2347269535D+00
      0.6401216923D+00  0.8137573261D+00
 S   1 1.00       0.000000000000
      0.1612777588D+00  0.1000000000D+01
 ****
     16 0
 S   6 1.00       0.000000000000
      0.3047524880D+04  0.1834737132D-02
      0.4573695180D+03  0.1403732281D-01
      0.1039486850D+03  0.6884262226D-01
      0.2921015530D+02  0.2321844432D+00
      0.9286662960D+01  0.4679413484D+00
      0.3163926960D+01  0.3623119853D+00
 SP   3 1.00       0.000000000000
      0.7868272350D+01 -0.1193324198D+00  0.6899906659D-01
      0.1881288540D+01 -0.1608541517D+00  0.3164239610D+00
      0.5442492580D+00  0.1143456438D+01  0.7443082909D+00
 SP   1 1.00       0.000000000000
      0.1687144782D+00  0.1000000000D+01  0.1000000000D+01
 D   1 1.00       0.000000000000
      0.8000000000D+00  0.1000000000D+01
 ****
     17 0
 S   3 1.00       0.000000000000
      0.1873113696D+02  0.3349460434D-01
      0.2825394365D+01  0.2347269535D+00
      0.6401216923D+00  0.8137573261D+00
 S   1 1.00       0.000000000000
      0.1612777588D+00  0.1000000000D+01
 ****
     18 0
 S   6 1.00       0.000000000000
      0.3047524880D+04  0.1834737132D-02
      0.4573695180D+03  0.1403732281D-01
      0.1039486850D+03  0.6884262226D-01
      0.2921015530D+02  0.2321844432D+00
      0.9286662960D+01  0.4679413484D+00
      0.3163926960D+01  0.3623119853D+00
 SP   3 1.00       0.000000000000
      0.7868272350D+01 -0.1193324198D+00  0.6899906659D-01
      0.1881288540D+01 -0.1608541517D+00  0.3164239610D+00
      0.5442492580D+00  0.1143456438D+01  0.7443082909D+00
 SP   1 1.00       0.000000000000
      0.1687144782D+00  0.1000000000D+01  0.1000000000D+01
 D   1 1.00       0.000000000000
      0.8000000000D+00  0.1000000000D+01
 ****
     19 0
 S   3 1.00       0.000000000000
      0.1873113696D+02  0.3349460434D-01
      0.2825394365D+01  0.2347269535D+00
      0.6401216923D+00  0.8137573261D+00
 S   1 1.00       0.000000000000
      0.1612777588D+00  0.1000000000D+01
 ****
     20 0
 S   6 1.00       0.000000000000
      0.3047524880D+04  0.1834737132D-02
      0.4573695180D+03  0.1403732281D-01
      0.1039486850D+03  0.6884262226D-01
      0.2921015530D+02  0.2321844432D+00
      0.9286662960D+01  0.4679413484D+00
      0.3163926960D+01  0.3623119853D+00
 SP   3 1.00       0.000000000000
      0.7868272350D+01 -0.1193324198D+00  0.6899906659D-01
      0.1881288540D+01 -0.1608541517D+00  0.3164239610D+00
      0.5442492580D+00  0.1143456438D+01  0.7443082909D+00
 SP   1 1.00       0.000000000000
      0.1687144782D+00  0.1000000000D+01  0.1000000000D+01
 D   1 1.00       0.000000000000
      0.8000000000D+00  0.1000000000D+01
 ****
     21 0
 S   3 1.00       0.000000000000
      0.1873113696D+02  0.3349460434D-01
      0.2825394365D+01  0.2347269535D+00
      0.6401216923D+00  0.8137573261D+00
 S   1 1.00       0.000000000000
      0.1612777588D+00  0.1000000000D+01
 ****
     22 0
 S   6 1.00       0.000000000000
      0.3047524880D+04  0.1834737132D-02
      0.4573695180D+03  0.1403732281D-01
      0.1039486850D+03  0.6884262226D-01
      0.2921015530D+02  0.2321844432D+00
      0.9286662960D+01  0.4679413484D+00
      0.3163926960D+01  0.3623119853D+00
 SP   3 1.00       0.000000000000
      0.7868272350D+01 -0.1193324198D+00  0.6899906659D-01
      0.1881288540D+01 -0.1608541517D+00  0.3164239610D+00
      0.5442492580D+00  0.1143456438D+01  0.7443082909D+00
 SP   1 1.00       0.000000000000
      0.1687144782D+00  0.1000000000D+01  0.1000000000D+01
 D   1 1.00       0.000000000000
      0.8000000000D+00  0.1000000000D+01
 ****
     23 0
 S   3 1.00       0.000000000000
      0.1873113696D+02  0.3349460434D-01
      0.2825394365D+01  0.2347269535D+00
      0.6401216923D+00  0.8137573261D+00
 S   1 1.00       0.000000000000
      0.1612777588D+00  0.1000000000D+01
 ****
     24 0
 S   3 1.00       0.000000000000
      0.1873113696D+02  0.3349460434D-01
      0.2825394365D+01  0.2347269535D+00
      0.6401216923D+00  0.8137573261D+00
 S   1 1.00       0.000000000000
      0.1612777588D+00  0.1000000000D+01
 ****
     25 0
 S   6 1.00       0.000000000000
      0.3047524880D+04  0.1834737132D-02
      0.4573695180D+03  0.1403732281D-01
      0.1039486850D+03  0.6884262226D-01
      0.2921015530D+02  0.2321844432D+00
      0.9286662960D+01  0.4679413484D+00
      0.3163926960D+01  0.3623119853D+00
 SP   3 1.00       0.000000000000
      0.7868272350D+01 -0.1193324198D+00  0.6899906659D-01
      0.1881288540D+01 -0.1608541517D+00  0.3164239610D+00
      0.5442492580D+00  0.1143456438D+01  0.7443082909D+00
 SP   1 1.00       0.000000000000
      0.1687144782D+00  0.1000000000D+01  0.1000000000D+01
 D   1 1.00       0.000000000000
      0.8000000000D+00  0.1000000000D+01
 ****
     26 0
 S   3 1.00       0.000000000000
      0.1873113696D+02  0.3349460434D-01
      0.2825394365D+01  0.2347269535D+00
      0.6401216923D+00  0.8137573261D+00
 S   1 1.00       0.000000000000
      0.1612777588D+00  0.1000000000D+01
 ****
     27 0
 S   3 1.00       0.000000000000
      0.1873113696D+02  0.3349460434D-01
      0.2825394365D+01  0.2347269535D+00
      0.6401216923D+00  0.8137573261D+00
 S   1 1.00       0.000000000000
      0.1612777588D+00  0.1000000000D+01
 ****
     28 0
 S   6 1.00       0.000000000000
      0.3047524880D+04  0.1834737132D-02
      0.4573695180D+03  0.1403732281D-01
      0.1039486850D+03  0.6884262226D-01
      0.2921015530D+02  0.2321844432D+00
      0.9286662960D+01  0.4679413484D+00
      0.3163926960D+01  0.3623119853D+00
 SP   3 1.00       0.000000000000
      0.7868272350D+01 -0.1193324198D+00  0.6899906659D-01
      0.1881288540D+01 -0.1608541517D+00  0.3164239610D+00
      0.5442492580D+00  0.1143456438D+01  0.7443082909D+00
 SP   1 1.00       0.000000000000
      0.1687144782D+00  0.1000000000D+01  0.1000000000D+01
 D   1 1.00       0.000000000000
      0.8000000000D+00  0.1000000000D+01
 ****
     29 0
 S   6 1.00       0.000000000000
      0.3047524880D+04  0.1834737132D-02
      0.4573695180D+03  0.1403732281D-01
      0.1039486850D+03  0.6884262226D-01
      0.2921015530D+02  0.2321844432D+00
      0.9286662960D+01  0.4679413484D+00
      0.3163926960D+01  0.3623119853D+00
 SP   3 1.00       0.000000000000
      0.7868272350D+01 -0.1193324198D+00  0.6899906659D-01
      0.1881288540D+01 -0.1608541517D+00  0.3164239610D+00
      0.5442492580D+00  0.1143456438D+01  0.7443082909D+00
 SP   1 1.00       0.000000000000
      0.1687144782D+00  0.1000000000D+01  0.1000000000D+01
 D   1 1.00       0.000000000000
      0.8000000000D+00  0.1000000000D+01
 ****
     30 0
 S   3 1.00       0.000000000000
      0.1873113696D+02  0.3349460434D-01
      0.2825394365D+01  0.2347269535D+00
      0.6401216923D+00  0.8137573261D+00
 S   1 1.00       0.000000000000
      0.1612777588D+00  0.1000000000D+01
 ****
     31 0
 S   6 1.00       0.000000000000
      0.3047524880D+04  0.1834737132D-02
      0.4573695180D+03  0.1403732281D-01
      0.1039486850D+03  0.6884262226D-01
      0.2921015530D+02  0.2321844432D+00
      0.9286662960D+01  0.4679413484D+00
      0.3163926960D+01  0.3623119853D+00
 SP   3 1.00       0.000000000000
      0.7868272350D+01 -0.1193324198D+00  0.6899906659D-01
      0.1881288540D+01 -0.1608541517D+00  0.3164239610D+00
      0.5442492580D+00  0.1143456438D+01  0.7443082909D+00
 SP   1 1.00       0.000000000000
      0.1687144782D+00  0.1000000000D+01  0.1000000000D+01
 D   1 1.00       0.000000000000
      0.8000000000D+00  0.1000000000D+01
 ****
     32 0
 S   3 1.00       0.000000000000
      0.1873113696D+02  0.3349460434D-01
      0.2825394365D+01  0.2347269535D+00
      0.6401216923D+00  0.8137573261D+00
 S   1 1.00       0.000000000000
      0.1612777588D+00  0.1000000000D+01
 ****
     33 0
 S   3 1.00       0.000000000000
      0.1873113696D+02  0.3349460434D-01
      0.2825394365D+01  0.2347269535D+00
      0.6401216923D+00  0.8137573261D+00
 S   1 1.00       0.000000000000
      0.1612777588D+00  0.1000000000D+01
 ****
     34 0
 S   6 1.00       0.000000000000
      0.3047524880D+04  0.1834737132D-02
      0.4573695180D+03  0.1403732281D-01
      0.1039486850D+03  0.6884262226D-01
      0.2921015530D+02  0.2321844432D+00
      0.9286662960D+01  0.4679413484D+00
      0.3163926960D+01  0.3623119853D+00
 SP   3 1.00       0.000000000000
      0.7868272350D+01 -0.1193324198D+00  0.6899906659D-01
      0.1881288540D+01 -0.1608541517D+00  0.3164239610D+00
      0.5442492580D+00  0.1143456438D+01  0.7443082909D+00
 SP   1 1.00       0.000000000000
      0.1687144782D+00  0.1000000000D+01  0.1000000000D+01
 D   1 1.00       0.000000000000
      0.8000000000D+00  0.1000000000D+01
 ****
     35 0
 S   3 1.00       0.000000000000
      0.1873113696D+02  0.3349460434D-01
      0.2825394365D+01  0.2347269535D+00
      0.6401216923D+00  0.8137573261D+00
 S   1 1.00       0.000000000000
      0.1612777588D+00  0.1000000000D+01
 ****
     36 0
 S   3 1.00       0.000000000000
      0.1873113696D+02  0.3349460434D-01
      0.2825394365D+01  0.2347269535D+00
      0.6401216923D+00  0.8137573261D+00
 S   1 1.00       0.000000000000
      0.1612777588D+00  0.1000000000D+01
 ****
     37 0
 S   6 1.00       0.000000000000
      0.3047524880D+04  0.1834737132D-02
      0.4573695180D+03  0.1403732281D-01
      0.1039486850D+03  0.6884262226D-01
      0.2921015530D+02  0.2321844432D+00
      0.9286662960D+01  0.4679413484D+00
      0.3163926960D+01  0.3623119853D+00
 SP   3 1.00       0.000000000000
      0.7868272350D+01 -0.1193324198D+00  0.6899906659D-01
      0.1881288540D+01 -0.1608541517D+00  0.3164239610D+00
      0.5442492580D+00  0.1143456438D+01  0.7443082909D+00
 SP   1 1.00       0.000000000000
      0.1687144782D+00  0.1000000000D+01  0.1000000000D+01
 D   1 1.00       0.000000000000
      0.8000000000D+00  0.1000000000D+01
 ****
     38 0
 S   3 1.00       0.000000000000
      0.1873113696D+02  0.3349460434D-01
      0.2825394365D+01  0.2347269535D+00
      0.6401216923D+00  0.8137573261D+00
 S   1 1.00       0.000000000000
      0.1612777588D+00  0.1000000000D+01
 ****
     39 0
 S   6 1.00       0.000000000000
      0.3047524880D+04  0.1834737132D-02
      0.4573695180D+03  0.1403732281D-01
      0.1039486850D+03  0.6884262226D-01
      0.2921015530D+02  0.2321844432D+00
      0.9286662960D+01  0.4679413484D+00
      0.3163926960D+01  0.3623119853D+00
 SP   3 1.00       0.000000000000
      0.7868272350D+01 -0.1193324198D+00  0.6899906659D-01
      0.1881288540D+01 -0.1608541517D+00  0.3164239610D+00
      0.5442492580D+00  0.1143456438D+01  0.7443082909D+00
 SP   1 1.00       0.000000000000
      0.1687144782D+00  0.1000000000D+01  0.1000000000D+01
 D   1 1.00       0.000000000000
      0.8000000000D+00  0.1000000000D+01
 ****
     40 0
 S   3 1.00       0.000000000000
      0.1873113696D+02  0.3349460434D-01
      0.2825394365D+01  0.2347269535D+00
      0.6401216923D+00  0.8137573261D+00
 S   1 1.00       0.000000000000
      0.1612777588D+00  0.1000000000D+01
 ****
     41 0
 S   3 1.00       0.000000000000
      0.1873113696D+02  0.3349460434D-01
      0.2825394365D+01  0.2347269535D+00
      0.6401216923D+00  0.8137573261D+00
 S   1 1.00       0.000000000000
      0.1612777588D+00  0.1000000000D+01
 ****
     42 0
 S   3 1.00       0.000000000000
      0.1873113696D+02  0.3349460434D-01
      0.2825394365D+01  0.2347269535D+00
      0.6401216923D+00  0.8137573261D+00
 S   1 1.00       0.000000000000
      0.1612777588D+00  0.1000000000D+01
 ****
     43 0
 S   6 1.00       0.000000000000
      0.3047524880D+04  0.1834737132D-02
      0.4573695180D+03  0.1403732281D-01
      0.1039486850D+03  0.6884262226D-01
      0.2921015530D+02  0.2321844432D+00
      0.9286662960D+01  0.4679413484D+00
      0.3163926960D+01  0.3623119853D+00
 SP   3 1.00       0.000000000000
      0.7868272350D+01 -0.1193324198D+00  0.6899906659D-01
      0.1881288540D+01 -0.1608541517D+00  0.3164239610D+00
      0.5442492580D+00  0.1143456438D+01  0.7443082909D+00
 SP   1 1.00       0.000000000000
      0.1687144782D+00  0.1000000000D+01  0.1000000000D+01
 D   1 1.00       0.000000000000
      0.8000000000D+00  0.1000000000D+01
 ****
     44 0
 S   3 1.00       0.000000000000
      0.1873113696D+02  0.3349460434D-01
      0.2825394365D+01  0.2347269535D+00
      0.6401216923D+00  0.8137573261D+00
 S   1 1.00       0.000000000000
      0.1612777588D+00  0.1000000000D+01
 ****
     45 0
 S   6 1.00       0.000000000000
      0.3047524880D+04  0.1834737132D-02
      0.4573695180D+03  0.1403732281D-01
      0.1039486850D+03  0.6884262226D-01
      0.2921015530D+02  0.2321844432D+00
      0.9286662960D+01  0.4679413484D+00
      0.3163926960D+01  0.3623119853D+00
 SP   3 1.00       0.000000000000
      0.7868272350D+01 -0.1193324198D+00  0.6899906659D-01
      0.1881288540D+01 -0.1608541517D+00  0.3164239610D+00
      0.5442492580D+00  0.1143456438D+01  0.7443082909D+00
 SP   1 1.00       0.000000000000
      0.1687144782D+00  0.1000000000D+01  0.1000000000D+01
 D   1 1.00       0.000000000000
      0.8000000000D+00  0.1000000000D+01
 ****
     46 0
 S   3 1.00       0.000000000000
      0.1873113696D+02  0.3349460434D-01
      0.2825394365D+01  0.2347269535D+00
      0.6401216923D+00  0.8137573261D+00
 S   1 1.00       0.000000000000
      0.1612777588D+00  0.1000000000D+01
 ****
     47 0
 S   3 1.00       0.000000000000
      0.1873113696D+02  0.3349460434D-01
      0.2825394365D+01  0.2347269535D+00
      0.6401216923D+00  0.8137573261D+00
 S   1 1.00       0.000000000000
      0.1612777588D+00  0.1000000000D+01
 ****
     48 0
 S   3 1.00       0.000000000000
      0.1873113696D+02  0.3349460434D-01
      0.2825394365D+01  0.2347269535D+00
      0.6401216923D+00  0.8137573261D+00
 S   1 1.00       0.000000000000
      0.1612777588D+00  0.1000000000D+01
 ****
     49 0
 S   6 1.00       0.000000000000
      0.3047524880D+04  0.1834737132D-02
      0.4573695180D+03  0.1403732281D-01
      0.1039486850D+03  0.6884262226D-01
      0.2921015530D+02  0.2321844432D+00
      0.9286662960D+01  0.4679413484D+00
      0.3163926960D+01  0.3623119853D+00
 SP   3 1.00       0.000000000000
      0.7868272350D+01 -0.1193324198D+00  0.6899906659D-01
      0.1881288540D+01 -0.1608541517D+00  0.3164239610D+00
      0.5442492580D+00  0.1143456438D+01  0.7443082909D+00
 SP   1 1.00       0.000000000000
      0.1687144782D+00  0.1000000000D+01  0.1000000000D+01
 D   1 1.00       0.000000000000
      0.8000000000D+00  0.1000000000D+01
 ****
     50 0
 S   3 1.00       0.000000000000
      0.1873113696D+02  0.3349460434D-01
      0.2825394365D+01  0.2347269535D+00
      0.6401216923D+00  0.8137573261D+00
 S   1 1.00       0.000000000000
      0.1612777588D+00  0.1000000000D+01
 ****
     51 0
 S   3 1.00       0.000000000000
      0.1873113696D+02  0.3349460434D-01
      0.2825394365D+01  0.2347269535D+00
      0.6401216923D+00  0.8137573261D+00
 S   1 1.00       0.000000000000
      0.1612777588D+00  0.1000000000D+01
 ****
     52 0
 S   3 1.00       0.000000000000
      0.1873113696D+02  0.3349460434D-01
      0.2825394365D+01  0.2347269535D+00
      0.6401216923D+00  0.8137573261D+00
 S   1 1.00       0.000000000000
      0.1612777588D+00  0.1000000000D+01
 ****
     53 0
 S   6 1.00       0.000000000000
      0.5484671660D+04  0.1831074430D-02
      0.8252349460D+03  0.1395017220D-01
      0.1880469580D+03  0.6844507810D-01
      0.5296450000D+02  0.2327143360D+00
      0.1689757040D+02  0.4701928980D+00
      0.5799635340D+01  0.3585208530D+00
 SP   3 1.00       0.000000000000
      0.1553961625D+02 -0.1107775495D+00  0.7087426823D-01
      0.3599933586D+01 -0.1480262627D+00  0.3397528391D+00
      0.1013761750D+01  0.1130767015D+01  0.7271585773D+00
 SP   1 1.00       0.000000000000
      0.2700058226D+00  0.1000000000D+01  0.1000000000D+01
 D   1 1.00       0.000000000000
      0.8000000000D+00  0.1000000000D+01
 ****
     54 0
 S   6 1.00       0.000000000000
      0.5484671660D+04  0.1831074430D-02
      0.8252349460D+03  0.1395017220D-01
      0.1880469580D+03  0.6844507810D-01
      0.5296450000D+02  0.2327143360D+00
      0.1689757040D+02  0.4701928980D+00
      0.5799635340D+01  0.3585208530D+00
 SP   3 1.00       0.000000000000
      0.1553961625D+02 -0.1107775495D+00  0.7087426823D-01
      0.3599933586D+01 -0.1480262627D+00  0.3397528391D+00
      0.1013761750D+01  0.1130767015D+01  0.7271585773D+00
 SP   1 1.00       0.000000000000
      0.2700058226D+00  0.1000000000D+01  0.1000000000D+01
 D   1 1.00       0.000000000000
      0.8000000000D+00  0.1000000000D+01
 ****
     55 0
 S   3 1.00       0.000000000000
      0.1873113696D+02  0.3349460434D-01
      0.2825394365D+01  0.2347269535D+00
      0.6401216923D+00  0.8137573261D+00
 S   1 1.00       0.000000000000
      0.1612777588D+00  0.1000000000D+01
 ****
     56 0
 S   6 1.00       0.000000000000
      0.5484671660D+04  0.1831074430D-02
      0.8252349460D+03  0.1395017220D-01
      0.1880469580D+03  0.6844507810D-01
      0.5296450000D+02  0.2327143360D+00
      0.1689757040D+02  0.4701928980D+00
      0.5799635340D+01  0.3585208530D+00
 SP   3 1.00       0.000000000000
      0.1553961625D+02 -0.1107775495D+00  0.7087426823D-01
      0.3599933586D+01 -0.1480262627D+00  0.3397528391D+00
      0.1013761750D+01  0.1130767015D+01  0.7271585773D+00
 SP   1 1.00       0.000000000000
      0.2700058226D+00  0.1000000000D+01  0.1000000000D+01
 D   1 1.00       0.000000000000
      0.8000000000D+00  0.1000000000D+01
 ****
     57 0
 S   3 1.00       0.000000000000
      0.1873113696D+02  0.3349460434D-01
      0.2825394365D+01  0.2347269535D+00
      0.6401216923D+00  0.8137573261D+00
 S   1 1.00       0.000000000000
      0.1612777588D+00  0.1000000000D+01
 ****
     58 0
 S   6 1.00       0.000000000000
      0.3047524880D+04  0.1834737132D-02
      0.4573695180D+03  0.1403732281D-01
      0.1039486850D+03  0.6884262226D-01
      0.2921015530D+02  0.2321844432D+00
      0.9286662960D+01  0.4679413484D+00
      0.3163926960D+01  0.3623119853D+00
 SP   3 1.00       0.000000000000
      0.7868272350D+01 -0.1193324198D+00  0.6899906659D-01
      0.1881288540D+01 -0.1608541517D+00  0.3164239610D+00
      0.5442492580D+00  0.1143456438D+01  0.7443082909D+00
 SP   1 1.00       0.000000000000
      0.1687144782D+00  0.1000000000D+01  0.1000000000D+01
 D   1 1.00       0.000000000000
      0.8000000000D+00  0.1000000000D+01
 ****
     59 0
 S   3 1.00       0.000000000000
      0.1873113696D+02  0.3349460434D-01
      0.2825394365D+01  0.2347269535D+00
      0.6401216923D+00  0.8137573261D+00
 S   1 1.00       0.000000000000
      0.1612777588D+00  0.1000000000D+01
 ****
     60 0
 S   3 1.00       0.000000000000
      0.1873113696D+02  0.3349460434D-01
      0.2825394365D+01  0.2347269535D+00
      0.6401216923D+00  0.8137573261D+00
 S   1 1.00       0.000000000000
      0.1612777588D+00  0.1000000000D+01
 ****
     61 0
 S   6 1.00       0.000000000000
      0.3047524880D+04  0.1834737132D-02
      0.4573695180D+03  0.1403732281D-01
      0.1039486850D+03  0.6884262226D-01
      0.2921015530D+02  0.2321844432D+00
      0.9286662960D+01  0.4679413484D+00
      0.3163926960D+01  0.3623119853D+00
 SP   3 1.00       0.000000000000
      0.7868272350D+01 -0.1193324198D+00  0.6899906659D-01
      0.1881288540D+01 -0.1608541517D+00  0.3164239610D+00
      0.5442492580D+00  0.1143456438D+01  0.7443082909D+00
 SP   1 1.00       0.000000000000
      0.1687144782D+00  0.1000000000D+01  0.1000000000D+01
 D   1 1.00       0.000000000000
      0.8000000000D+00  0.1000000000D+01
 ****
     62 0
 S   3 1.00       0.000000000000
      0.1873113696D+02  0.3349460434D-01
      0.2825394365D+01  0.2347269535D+00
      0.6401216923D+00  0.8137573261D+00
 S   1 1.00       0.000000000000
      0.1612777588D+00  0.1000000000D+01
 ****
     63 0
 S   3 1.00       0.000000000000
      0.1873113696D+02  0.3349460434D-01
      0.2825394365D+01  0.2347269535D+00
      0.6401216923D+00  0.8137573261D+00
 S   1 1.00       0.000000000000
      0.1612777588D+00  0.1000000000D+01
 ****
     64 0
 S   6 1.00       0.000000000000
      0.3047524880D+04  0.1834737132D-02
      0.4573695180D+03  0.1403732281D-01
      0.1039486850D+03  0.6884262226D-01
      0.2921015530D+02  0.2321844432D+00
      0.9286662960D+01  0.4679413484D+00
      0.3163926960D+01  0.3623119853D+00
 SP   3 1.00       0.000000000000
      0.7868272350D+01 -0.1193324198D+00  0.6899906659D-01
      0.1881288540D+01 -0.1608541517D+00  0.3164239610D+00
      0.5442492580D+00  0.1143456438D+01  0.7443082909D+00
 SP   1 1.00       0.000000000000
      0.1687144782D+00  0.1000000000D+01  0.1000000000D+01
 D   1 1.00       0.000000000000
      0.8000000000D+00  0.1000000000D+01
 ****
     65 0
 S   3 1.00       0.000000000000
      0.1873113696D+02  0.3349460434D-01
      0.2825394365D+01  0.2347269535D+00
      0.6401216923D+00  0.8137573261D+00
 S   1 1.00       0.000000000000
      0.1612777588D+00  0.1000000000D+01
 ****
     66 0
 S   3 1.00       0.000000000000
      0.1873113696D+02  0.3349460434D-01
      0.2825394365D+01  0.2347269535D+00
      0.6401216923D+00  0.8137573261D+00
 S   1 1.00       0.000000000000
      0.1612777588D+00  0.1000000000D+01
 ****
     67 0
 S   6 1.00       0.000000000000
      0.3047524880D+04  0.1834737132D-02
      0.4573695180D+03  0.1403732281D-01
      0.1039486850D+03  0.6884262226D-01
      0.2921015530D+02  0.2321844432D+00
      0.9286662960D+01  0.4679413484D+00
      0.3163926960D+01  0.3623119853D+00
 SP   3 1.00       0.000000000000
      0.7868272350D+01 -0.1193324198D+00  0.6899906659D-01
      0.1881288540D+01 -0.1608541517D+00  0.3164239610D+00
      0.5442492580D+00  0.1143456438D+01  0.7443082909D+00
 SP   1 1.00       0.000000000000
      0.1687144782D+00  0.1000000000D+01  0.1000000000D+01
 D   1 1.00       0.000000000000
      0.8000000000D+00  0.1000000000D+01
 ****
     68 0
 S   3 1.00       0.000000000000
      0.1873113696D+02  0.3349460434D-01
      0.2825394365D+01  0.2347269535D+00
      0.6401216923D+00  0.8137573261D+00
 S   1 1.00       0.000000000000
      0.1612777588D+00  0.1000000000D+01
 ****
     69 0
 S   6 1.00       0.000000000000
      0.3047524880D+04  0.1834737132D-02
      0.4573695180D+03  0.1403732281D-01
      0.1039486850D+03  0.6884262226D-01
      0.2921015530D+02  0.2321844432D+00
      0.9286662960D+01  0.4679413484D+00
      0.3163926960D+01  0.3623119853D+00
 SP   3 1.00       0.000000000000
      0.7868272350D+01 -0.1193324198D+00  0.6899906659D-01
      0.1881288540D+01 -0.1608541517D+00  0.3164239610D+00
      0.5442492580D+00  0.1143456438D+01  0.7443082909D+00
 SP   1 1.00       0.000000000000
      0.1687144782D+00  0.1000000000D+01  0.1000000000D+01
 D   1 1.00       0.000000000000
      0.8000000000D+00  0.1000000000D+01
 ****
     70 0
 S   3 1.00       0.000000000000
      0.1873113696D+02  0.3349460434D-01
      0.2825394365D+01  0.2347269535D+00
      0.6401216923D+00  0.8137573261D+00
 S   1 1.00       0.000000000000
      0.1612777588D+00  0.1000000000D+01
 ****
     71 0
 S   3 1.00       0.000000000000
      0.1873113696D+02  0.3349460434D-01
      0.2825394365D+01  0.2347269535D+00
      0.6401216923D+00  0.8137573261D+00
 S   1 1.00       0.000000000000
      0.1612777588D+00  0.1000000000D+01
 ****
     72 0
 S   3 1.00       0.000000000000
      0.1873113696D+02  0.3349460434D-01
      0.2825394365D+01  0.2347269535D+00
      0.6401216923D+00  0.8137573261D+00
 S   1 1.00       0.000000000000
      0.1612777588D+00  0.1000000000D+01
 ****
     73 0
 S   6 1.00       0.000000000000
      0.3047524880D+04  0.1834737132D-02
      0.4573695180D+03  0.1403732281D-01
      0.1039486850D+03  0.6884262226D-01
      0.2921015530D+02  0.2321844432D+00
      0.9286662960D+01  0.4679413484D+00
      0.3163926960D+01  0.3623119853D+00
 SP   3 1.00       0.000000000000
      0.7868272350D+01 -0.1193324198D+00  0.6899906659D-01
      0.1881288540D+01 -0.1608541517D+00  0.3164239610D+00
      0.5442492580D+00  0.1143456438D+01  0.7443082909D+00
 SP   1 1.00       0.000000000000
      0.1687144782D+00  0.1000000000D+01  0.1000000000D+01
 D   1 1.00       0.000000000000
      0.8000000000D+00  0.1000000000D+01
 ****
     74 0
 S   3 1.00       0.000000000000
      0.1873113696D+02  0.3349460434D-01
      0.2825394365D+01  0.2347269535D+00
      0.6401216923D+00  0.8137573261D+00
 S   1 1.00       0.000000000000
      0.1612777588D+00  0.1000000000D+01
 ****
     75 0
 S   3 1.00       0.000000000000
      0.1873113696D+02  0.3349460434D-01
      0.2825394365D+01  0.2347269535D+00
      0.6401216923D+00  0.8137573261D+00
 S   1 1.00       0.000000000000
      0.1612777588D+00  0.1000000000D+01
 ****
     76 0
 S   3 1.00       0.000000000000
      0.1873113696D+02  0.3349460434D-01
      0.2825394365D+01  0.2347269535D+00
      0.6401216923D+00  0.8137573261D+00
 S   1 1.00       0.000000000000
      0.1612777588D+00  0.1000000000D+01
 ****

 AO basis set (Overlap normalization):
 Atom C1       Shell     1 S   6     bf    1 -     1         14.206012915844          4.186000235918          0.129814283164
      0.3047524880D+04  0.1834737132D-02
      0.4573695180D+03  0.1403732281D-01
      0.1039486850D+03  0.6884262226D-01
      0.2921015530D+02  0.2321844432D+00
      0.9286662960D+01  0.4679413484D+00
      0.3163926960D+01  0.3623119853D+00
 Atom C1       Shell     2 SP   3    bf    2 -     5         14.206012915844          4.186000235918          0.129814283164
      0.7868272350D+01 -0.1193324198D+00  0.6899906659D-01
      0.1881288540D+01 -0.1608541517D+00  0.3164239610D+00
      0.5442492580D+00  0.1143456438D+01  0.7443082909D+00
 Atom C1       Shell     3 SP   1    bf    6 -     9         14.206012915844          4.186000235918          0.129814283164
      0.1687144782D+00  0.1000000000D+01  0.1000000000D+01
 Atom C1       Shell     4 D   1     bf   10 -    15         14.206012915844          4.186000235918          0.129814283164
      0.8000000000D+00  0.1000000000D+01
 Atom H2       Shell     5 S   3     bf   16 -    16         13.900074626417          4.127487965364          2.179085117956
      0.1873113696D+02  0.3349460434D-01
      0.2825394365D+01  0.2347269535D+00
      0.6401216923D+00  0.8137573261D+00
 Atom H2       Shell     6 S   1     bf   17 -    17         13.900074626417          4.127487965364          2.179085117956
      0.1612777588D+00  0.1000000000D+01
 Atom C3       Shell     7 S   6     bf   18 -    18         12.891997801980          1.903667436253         -1.087688057340
      0.3047524880D+04  0.1834737132D-02
      0.4573695180D+03  0.1403732281D-01
      0.1039486850D+03  0.6884262226D-01
      0.2921015530D+02  0.2321844432D+00
      0.9286662960D+01  0.4679413484D+00
      0.3163926960D+01  0.3623119853D+00
 Atom C3       Shell     8 SP   3    bf   19 -    22         12.891997801980          1.903667436253         -1.087688057340
      0.7868272350D+01 -0.1193324198D+00  0.6899906659D-01
      0.1881288540D+01 -0.1608541517D+00  0.3164239610D+00
      0.5442492580D+00  0.1143456438D+01  0.7443082909D+00
 Atom C3       Shell     9 SP   1    bf   23 -    26         12.891997801980          1.903667436253         -1.087688057340
      0.1687144782D+00  0.1000000000D+01  0.1000000000D+01
 Atom C3       Shell    10 D   1     bf   27 -    32         12.891997801980          1.903667436253         -1.087688057340
      0.8000000000D+00  0.1000000000D+01
 Atom H4       Shell    11 S   3     bf   33 -    33         13.615907701691          0.153055439058         -0.257083955604
      0.1873113696D+02  0.3349460434D-01
      0.2825394365D+01  0.2347269535D+00
      0.6401216923D+00  0.8137573261D+00
 Atom H4       Shell    12 S   1     bf   34 -    34         13.615907701691          0.153055439058         -0.257083955604
      0.1612777588D+00  0.1000000000D+01
 Atom H5       Shell    13 S   3     bf   35 -    35         13.423580862311          1.874809031635         -3.101325932711
      0.1873113696D+02  0.3349460434D-01
      0.2825394365D+01  0.2347269535D+00
      0.6401216923D+00  0.8137573261D+00
 Atom H5       Shell    14 S   1     bf   36 -    36         13.423580862311          1.874809031635         -3.101325932711
      0.1612777588D+00  0.1000000000D+01
 Atom C6       Shell    15 S   6     bf   37 -    37         10.036860023038          2.007523704263         -0.857452971584
      0.3047524880D+04  0.1834737132D-02
      0.4573695180D+03  0.1403732281D-01
      0.1039486850D+03  0.6884262226D-01
      0.2921015530D+02  0.2321844432D+00
      0.9286662960D+01  0.4679413484D+00
      0.3163926960D+01  0.3623119853D+00
 Atom C6       Shell    16 SP   3    bf   38 -    41         10.036860023038          2.007523704263         -0.857452971584
      0.7868272350D+01 -0.1193324198D+00  0.6899906659D-01
      0.1881288540D+01 -0.1608541517D+00  0.3164239610D+00
      0.5442492580D+00  0.1143456438D+01  0.7443082909D+00
 Atom C6       Shell    17 SP   1    bf   42 -    45         10.036860023038          2.007523704263         -0.857452971584
      0.1687144782D+00  0.1000000000D+01  0.1000000000D+01
 Atom C6       Shell    18 D   1     bf   46 -    51         10.036860023038          2.007523704263         -0.857452971584
      0.8000000000D+00  0.1000000000D+01
 Atom C7       Shell    19 S   6     bf   52 -    52          8.723469822709          4.460835239465         -1.660441428196
      0.3047524880D+04  0.1834737132D-02
      0.4573695180D+03  0.1403732281D-01
      0.1039486850D+03  0.6884262226D-01
      0.2921015530D+02  0.2321844432D+00
      0.9286662960D+01  0.4679413484D+00
      0.3163926960D+01  0.3623119853D+00
 Atom C7       Shell    20 SP   3    bf   53 -    56          8.723469822709          4.460835239465         -1.660441428196
      0.7868272350D+01 -0.1193324198D+00  0.6899906659D-01
      0.1881288540D+01 -0.1608541517D+00  0.3164239610D+00
      0.5442492580D+00  0.1143456438D+01  0.7443082909D+00
 Atom C7       Shell    21 SP   1    bf   57 -    60          8.723469822709          4.460835239465         -1.660441428196
      0.1687144782D+00  0.1000000000D+01  0.1000000000D+01
 Atom C7       Shell    22 D   1     bf   61 -    66          8.723469822709          4.460835239465         -1.660441428196
      0.8000000000D+00  0.1000000000D+01
 Atom C8       Shell    23 S   6     bf   67 -    67         10.223184430816          6.736502181374         -0.533287404331
      0.3047524880D+04  0.1834737132D-02
      0.4573695180D+03  0.1403732281D-01
      0.1039486850D+03  0.6884262226D-01
      0.2921015530D+02  0.2321844432D+00
      0.9286662960D+01  0.4679413484D+00
      0.3163926960D+01  0.3623119853D+00
 Atom C8       Shell    24 SP   3    bf   68 -    71         10.223184430816          6.736502181374         -0.533287404331
      0.7868272350D+01 -0.1193324198D+00  0.6899906659D-01
      0.1881288540D+01 -0.1608541517D+00  0.3164239610D+00
      0.5442492580D+00  0.1143456438D+01  0.7443082909D+00
 Atom C8       Shell    25 SP   1    bf   72 -    75         10.223184430816          6.736502181374         -0.533287404331
      0.1687144782D+00  0.1000000000D+01  0.1000000000D+01
 Atom C8       Shell    26 D   1     bf   76 -    81         10.223184430816          6.736502181374         -0.533287404331
      0.8000000000D+00  0.1000000000D+01
 Atom H9       Shell    27 S   3     bf   82 -    82          9.848685308815          6.815524688998          1.507746057556
      0.1873113696D+02  0.3349460434D-01
      0.2825394365D+01  0.2347269535D+00
      0.6401216923D+00  0.8137573261D+00
 Atom H9       Shell    28 S   1     bf   83 -    83          9.848685308815          6.815524688998          1.507746057556
      0.1612777588D+00  0.1000000000D+01
 Atom H10      Shell    29 S   3     bf   84 -    84          9.494560439191          8.501275124805         -1.330732802866
      0.1873113696D+02  0.3349460434D-01
      0.2825394365D+01  0.2347269535D+00
      0.6401216923D+00  0.8137573261D+00
 Atom H10      Shell    30 S   1     bf   85 -    85          9.494560439191          8.501275124805         -1.330732802866
      0.1612777588D+00  0.1000000000D+01
 Atom C11      Shell    31 S   6     bf   86 -    86         13.098176938626          6.634708303774         -0.925155433856
      0.3047524880D+04  0.1834737132D-02
      0.4573695180D+03  0.1403732281D-01
      0.1039486850D+03  0.6884262226D-01
      0.2921015530D+02  0.2321844432D+00
      0.9286662960D+01  0.4679413484D+00
      0.3163926960D+01  0.3623119853D+00
 Atom C11      Shell    32 SP   3    bf   87 -    90         13.098176938626          6.634708303774         -0.925155433856
      0.7868272350D+01 -0.1193324198D+00  0.6899906659D-01
      0.1881288540D+01 -0.1608541517D+00  0.3164239610D+00
      0.5442492580D+00  0.1143456438D+01  0.7443082909D+00
 Atom C11      Shell    33 SP   1    bf   91 -    94         13.098176938626          6.634708303774         -0.925155433856
      0.1687144782D+00  0.1000000000D+01  0.1000000000D+01
 Atom C11      Shell    34 D   1     bf   95 -   100         13.098176938626          6.634708303774         -0.925155433856
      0.8000000000D+00  0.1000000000D+01
 Atom H12      Shell    35 S   3     bf  101 -   101         13.562300177521          6.771538781022         -2.947158767770
      0.1873113696D+02  0.3349460434D-01
      0.2825394365D+01  0.2347269535D+00
      0.6401216923D+00  0.8137573261D+00
 Atom H12      Shell    36 S   1     bf  102 -   102         13.562300177521          6.771538781022         -2.947158767770
      0.1612777588D+00  0.1000000000D+01
 Atom H13      Shell    37 S   3     bf  103 -   103         13.994981378229          8.256076167077          0.000000000000
      0.1873113696D+02  0.3349460434D-01
      0.2825394365D+01  0.2347269535D+00
      0.6401216923D+00  0.8137573261D+00
 Atom H13      Shell    38 S   1     bf  104 -   104         13.994981378229          8.256076167077          0.000000000000
      0.1612777588D+00  0.1000000000D+01
 Atom C14      Shell    39 S   6     bf  105 -   105          8.754238532577          0.000000000000          0.000000000000
      0.3047524880D+04  0.1834737132D-02
      0.4573695180D+03  0.1403732281D-01
      0.1039486850D+03  0.6884262226D-01
      0.2921015530D+02  0.2321844432D+00
      0.9286662960D+01  0.4679413484D+00
      0.3163926960D+01  0.3623119853D+00
 Atom C14      Shell    40 SP   3    bf  106 -   109          8.754238532577          0.000000000000          0.000000000000
      0.7868272350D+01 -0.1193324198D+00  0.6899906659D-01
      0.1881288540D+01 -0.1608541517D+00  0.3164239610D+00
      0.5442492580D+00  0.1143456438D+01  0.7443082909D+00
 Atom C14      Shell    41 SP   1    bf  110 -   113          8.754238532577          0.000000000000          0.000000000000
      0.1687144782D+00  0.1000000000D+01  0.1000000000D+01
 Atom C14      Shell    42 D   1     bf  114 -   119          8.754238532577          0.000000000000          0.000000000000
      0.8000000000D+00  0.1000000000D+01
 Atom H15      Shell    43 S   3     bf  120 -   120          9.782628627929         -1.683099868139          0.597200436584
      0.1873113696D+02  0.3349460434D-01
      0.2825394365D+01  0.2347269535D+00
      0.6401216923D+00  0.8137573261D+00
 Atom H15      Shell    44 S   1     bf  121 -   121          9.782628627929         -1.683099868139          0.597200436584
      0.1612777588D+00  0.1000000000D+01
 Atom C16      Shell    45 S   6     bf  122 -   122          5.932715769005         -0.188618591995          0.206334698902
      0.3047524880D+04  0.1834737132D-02
      0.4573695180D+03  0.1403732281D-01
      0.1039486850D+03  0.6884262226D-01
      0.2921015530D+02  0.2321844432D+00
      0.9286662960D+01  0.4679413484D+00
      0.3163926960D+01  0.3623119853D+00
 Atom C16      Shell    46 SP   3    bf  123 -   126          5.932715769005         -0.188618591995          0.206334698902
      0.7868272350D+01 -0.1193324198D+00  0.6899906659D-01
      0.1881288540D+01 -0.1608541517D+00  0.3164239610D+00
      0.5442492580D+00  0.1143456438D+01  0.7443082909D+00
 Atom C16      Shell    47 SP   1    bf  127 -   130          5.932715769005         -0.188618591995          0.206334698902
      0.1687144782D+00  0.1000000000D+01  0.1000000000D+01
 Atom C16      Shell    48 D   1     bf  131 -   136          5.932715769005         -0.188618591995          0.206334698902
      0.8000000000D+00  0.1000000000D+01
 Atom H17      Shell    49 S   3     bf  137 -   137          5.397085595598         -0.364690309536          2.211464214640
      0.1873113696D+02  0.3349460434D-01
      0.2825394365D+01  0.2347269535D+00
      0.6401216923D+00  0.8137573261D+00
 Atom H17      Shell    50 S   1     bf  138 -   138          5.397085595598         -0.364690309536          2.211464214640
      0.1612777588D+00  0.1000000000D+01
 Atom C18      Shell    51 S   6     bf  139 -   139          4.487948614280          2.019264969569         -1.004500064197
      0.3047524880D+04  0.1834737132D-02
      0.4573695180D+03  0.1403732281D-01
      0.1039486850D+03  0.6884262226D-01
      0.2921015530D+02  0.2321844432D+00
      0.9286662960D+01  0.4679413484D+00
      0.3163926960D+01  0.3623119853D+00
 Atom C18      Shell    52 SP   3    bf  140 -   143          4.487948614280          2.019264969569         -1.004500064197
      0.7868272350D+01 -0.1193324198D+00  0.6899906659D-01
      0.1881288540D+01 -0.1608541517D+00  0.3164239610D+00
      0.5442492580D+00  0.1143456438D+01  0.7443082909D+00
 Atom C18      Shell    53 SP   1    bf  144 -   147          4.487948614280          2.019264969569         -1.004500064197
      0.1687144782D+00  0.1000000000D+01  0.1000000000D+01
 Atom C18      Shell    54 D   1     bf  148 -   153          4.487948614280          2.019264969569         -1.004500064197
      0.8000000000D+00  0.1000000000D+01
 Atom H19      Shell    55 S   3     bf  154 -   154          4.378447035113          1.617951503016         -3.032341877073
      0.1873113696D+02  0.3349460434D-01
      0.2825394365D+01  0.2347269535D+00
      0.6401216923D+00  0.8137573261D+00
 Atom H19      Shell    56 S   1     bf  155 -   155          4.378447035113          1.617951503016         -3.032341877073
      0.1612777588D+00  0.1000000000D+01
 Atom C20      Shell    57 S   6     bf  156 -   156          5.964271455321          4.521835032117         -0.577416515753
      0.3047524880D+04  0.1834737132D-02
      0.4573695180D+03  0.1403732281D-01
      0.1039486850D+03  0.6884262226D-01
      0.2921015530D+02  0.2321844432D+00
      0.9286662960D+01  0.4679413484D+00
      0.3163926960D+01  0.3623119853D+00
 Atom C20      Shell    58 SP   3    bf  157 -   160          5.964271455321          4.521835032117         -0.577416515753
      0.7868272350D+01 -0.1193324198D+00  0.6899906659D-01
      0.1881288540D+01 -0.1608541517D+00  0.3164239610D+00
      0.5442492580D+00  0.1143456438D+01  0.7443082909D+00
 Atom C20      Shell    59 SP   1    bf  161 -   164          5.964271455321          4.521835032117         -0.577416515753
      0.1687144782D+00  0.1000000000D+01  0.1000000000D+01
 Atom C20      Shell    60 D   1     bf  165 -   170          5.964271455321          4.521835032117         -0.577416515753
      0.8000000000D+00  0.1000000000D+01
 Atom H21      Shell    61 S   3     bf  171 -   171          6.182523447518          4.712427405263          1.486239141129
      0.1873113696D+02  0.3349460434D-01
      0.2825394365D+01  0.2347269535D+00
      0.6401216923D+00  0.8137573261D+00
 Atom H21      Shell    62 S   1     bf  172 -   172          6.182523447518          4.712427405263          1.486239141129
      0.1612777588D+00  0.1000000000D+01
 Atom C22      Shell    63 S   6     bf  173 -   173          4.421442802184          6.834526187620         -1.472638026260
      0.3047524880D+04  0.1834737132D-02
      0.4573695180D+03  0.1403732281D-01
      0.1039486850D+03  0.6884262226D-01
      0.2921015530D+02  0.2321844432D+00
      0.9286662960D+01  0.4679413484D+00
      0.3163926960D+01  0.3623119853D+00
 Atom C22      Shell    64 SP   3    bf  174 -   177          4.421442802184          6.834526187620         -1.472638026260
      0.7868272350D+01 -0.1193324198D+00  0.6899906659D-01
      0.1881288540D+01 -0.1608541517D+00  0.3164239610D+00
      0.5442492580D+00  0.1143456438D+01  0.7443082909D+00
 Atom C22      Shell    65 SP   1    bf  178 -   181          4.421442802184          6.834526187620         -1.472638026260
      0.1687144782D+00  0.1000000000D+01  0.1000000000D+01
 Atom C22      Shell    66 D   1     bf  182 -   187          4.421442802184          6.834526187620         -1.472638026260
      0.8000000000D+00  0.1000000000D+01
 Atom H23      Shell    67 S   3     bf  188 -   188          4.328035302394          6.854874172804         -3.540486305130
      0.1873113696D+02  0.3349460434D-01
      0.2825394365D+01  0.2347269535D+00
      0.6401216923D+00  0.8137573261D+00
 Atom H23      Shell    68 S   1     bf  189 -   189          4.328035302394          6.854874172804         -3.540486305130
      0.1612777588D+00  0.1000000000D+01
 Atom H24      Shell    69 S   3     bf  190 -   190          5.399792288133          8.575729880907         -0.927800993751
      0.1873113696D+02  0.3349460434D-01
      0.2825394365D+01  0.2347269535D+00
      0.6401216923D+00  0.8137573261D+00
 Atom H24      Shell    70 S   1     bf  191 -   191          5.399792288133          8.575729880907         -0.927800993751
      0.1612777588D+00  0.1000000000D+01
 Atom C25      Shell    71 S   6     bf  192 -   192          1.710388326080          6.937237206004         -0.414512617776
      0.3047524880D+04  0.1834737132D-02
      0.4573695180D+03  0.1403732281D-01
      0.1039486850D+03  0.6884262226D-01
      0.2921015530D+02  0.2321844432D+00
      0.9286662960D+01  0.4679413484D+00
      0.3163926960D+01  0.3623119853D+00
 Atom C25      Shell    72 SP   3    bf  193 -   196          1.710388326080          6.937237206004         -0.414512617776
      0.7868272350D+01 -0.1193324198D+00  0.6899906659D-01
      0.1881288540D+01 -0.1608541517D+00  0.3164239610D+00
      0.5442492580D+00  0.1143456438D+01  0.7443082909D+00
 Atom C25      Shell    73 SP   1    bf  197 -   200          1.710388326080          6.937237206004         -0.414512617776
      0.1687144782D+00  0.1000000000D+01  0.1000000000D+01
 Atom C25      Shell    74 D   1     bf  201 -   206          1.710388326080          6.937237206004         -0.414512617776
      0.8000000000D+00  0.1000000000D+01
 Atom H26      Shell    75 S   3     bf  207 -   207          1.783845873701          7.202173219355          1.645398565671
      0.1873113696D+02  0.3349460434D-01
      0.2825394365D+01  0.2347269535D+00
      0.6401216923D+00  0.8137573261D+00
 Atom H26      Shell    76 S   1     bf  208 -   208          1.783845873701          7.202173219355          1.645398565671
      0.1612777588D+00  0.1000000000D+01
 Atom H27      Shell    77 S   3     bf  209 -   209          0.771044544959          8.609741908839         -1.187167568448
      0.1873113696D+02  0.3349460434D-01
      0.2825394365D+01  0.2347269535D+00
      0.6401216923D+00  0.8137573261D+00
 Atom H27      Shell    78 S   1     bf  210 -   210          0.771044544959          8.609741908839         -1.187167568448
      0.1612777588D+00  0.1000000000D+01
 Atom C28      Shell    79 S   6     bf  211 -   211          0.224395265088          4.497581625523         -0.988200514896
      0.3047524880D+04  0.1834737132D-02
      0.4573695180D+03  0.1403732281D-01
      0.1039486850D+03  0.6884262226D-01
      0.2921015530D+02  0.2321844432D+00
      0.9286662960D+01  0.4679413484D+00
      0.3163926960D+01  0.3623119853D+00
 Atom C28      Shell    80 SP   3    bf  212 -   215          0.224395265088          4.497581625523         -0.988200514896
      0.7868272350D+01 -0.1193324198D+00  0.6899906659D-01
      0.1881288540D+01 -0.1608541517D+00  0.3164239610D+00
      0.5442492580D+00  0.1143456438D+01  0.7443082909D+00
 Atom C28      Shell    81 SP   1    bf  216 -   219          0.224395265088          4.497581625523         -0.988200514896
      0.1687144782D+00  0.1000000000D+01  0.1000000000D+01
 Atom C28      Shell    82 D   1     bf  220 -   225          0.224395265088          4.497581625523         -0.988200514896
      0.8000000000D+00  0.1000000000D+01
 Atom C29      Shell    83 S   6     bf  226 -   226          1.808723513528          2.270271981670          0.099366316513
      0.3047524880D+04  0.1834737132D-02
      0.4573695180D+03  0.1403732281D-01
      0.1039486850D+03  0.6884262226D-01
      0.2921015530D+02  0.2321844432D+00
      0.9286662960D+01  0.4679413484D+00
      0.3163926960D+01  0.3623119853D+00
 Atom C29      Shell    84 SP   3    bf  227 -   230          1.808723513528          2.270271981670          0.099366316513
      0.7868272350D+01 -0.1193324198D+00  0.6899906659D-01
      0.1881288540D+01 -0.1608541517D+00  0.3164239610D+00
      0.5442492580D+00  0.1143456438D+01  0.7443082909D+00
 Atom C29      Shell    85 SP   1    bf  231 -   234          1.808723513528          2.270271981670          0.099366316513
      0.1687144782D+00  0.1000000000D+01  0.1000000000D+01
 Atom C29      Shell    86 D   1     bf  235 -   240          1.808723513528          2.270271981670          0.099366316513
      0.8000000000D+00  0.1000000000D+01
 Atom H30      Shell    87 S   3     bf  241 -   241          2.071092466209          2.730035471198          2.118309598002
      0.1873113696D+02  0.3349460434D-01
      0.2825394365D+01  0.2347269535D+00
      0.6401216923D+00  0.8137573261D+00
 Atom H30      Shell    88 S   1     bf  242 -   242          2.071092466209          2.730035471198          2.118309598002
      0.1612777588D+00  0.1000000000D+01
 Atom C31      Shell    89 S   6     bf  243 -   243          0.000000000000          0.000000000000          0.000000000000
      0.3047524880D+04  0.1834737132D-02
      0.4573695180D+03  0.1403732281D-01
      0.1039486850D+03  0.6884262226D-01
      0.2921015530D+02  0.2321844432D+00
      0.9286662960D+01  0.4679413484D+00
      0.3163926960D+01  0.3623119853D+00
 Atom C31      Shell    90 SP   3    bf  244 -   247          0.000000000000          0.000000000000          0.000000000000
      0.7868272350D+01 -0.1193324198D+00  0.6899906659D-01
      0.1881288540D+01 -0.1608541517D+00  0.3164239610D+00
      0.5442492580D+00  0.1143456438D+01  0.7443082909D+00
 Atom C31      Shell    91 SP   1    bf  248 -   251          0.000000000000          0.000000000000          0.000000000000
      0.1687144782D+00  0.1000000000D+01  0.1000000000D+01
 Atom C31      Shell    92 D   1     bf  252 -   257          0.000000000000          0.000000000000          0.000000000000
      0.8000000000D+00  0.1000000000D+01
 Atom H32      Shell    93 S   3     bf  258 -   258          0.519022560952         -1.485298208693          1.338067018961
      0.1873113696D+02  0.3349460434D-01
      0.2825394365D+01  0.2347269535D+00
      0.6401216923D+00  0.8137573261D+00
 Atom H32      Shell    94 S   1     bf  259 -   259          0.519022560952         -1.485298208693          1.338067018961
      0.1612777588D+00  0.1000000000D+01
 Atom H33      Shell    95 S   3     bf  260 -   260          0.031300535494         -0.876818166898         -1.873575361724
      0.1873113696D+02  0.3349460434D-01
      0.2825394365D+01  0.2347269535D+00
      0.6401216923D+00  0.8137573261D+00
 Atom H33      Shell    96 S   1     bf  261 -   261          0.031300535494         -0.876818166898         -1.873575361724
      0.1612777588D+00  0.1000000000D+01
 Atom C34      Shell    97 S   6     bf  262 -   262         -2.620238527836          1.178504534732          0.591915193843
      0.3047524880D+04  0.1834737132D-02
      0.4573695180D+03  0.1403732281D-01
      0.1039486850D+03  0.6884262226D-01
      0.2921015530D+02  0.2321844432D+00
      0.9286662960D+01  0.4679413484D+00
      0.3163926960D+01  0.3623119853D+00
 Atom C34      Shell    98 SP   3    bf  263 -   266         -2.620238527836          1.178504534732          0.591915193843
      0.7868272350D+01 -0.1193324198D+00  0.6899906659D-01
      0.1881288540D+01 -0.1608541517D+00  0.3164239610D+00
      0.5442492580D+00  0.1143456438D+01  0.7443082909D+00
 Atom C34      Shell    99 SP   1    bf  267 -   270         -2.620238527836          1.178504534732          0.591915193843
      0.1687144782D+00  0.1000000000D+01  0.1000000000D+01
 Atom C34      Shell   100 D   1     bf  271 -   276         -2.620238527836          1.178504534732          0.591915193843
      0.8000000000D+00  0.1000000000D+01
 Atom H35      Shell   101 S   3     bf  277 -   277         -4.033029135337          0.567809242580         -0.796050289321
      0.1873113696D+02  0.3349460434D-01
      0.2825394365D+01  0.2347269535D+00
      0.6401216923D+00  0.8137573261D+00
 Atom H35      Shell   102 S   1     bf  278 -   278         -4.033029135337          0.567809242580         -0.796050289321
      0.1612777588D+00  0.1000000000D+01
 Atom H36      Shell   103 S   3     bf  279 -   279         -3.316072974261          0.560822849478          2.438577378339
      0.1873113696D+02  0.3349460434D-01
      0.2825394365D+01  0.2347269535D+00
      0.6401216923D+00  0.8137573261D+00
 Atom H36      Shell   104 S   1     bf  280 -   280         -3.316072974261          0.560822849478          2.438577378339
      0.1612777588D+00  0.1000000000D+01
 Atom C37      Shell   105 S   6     bf  281 -   281         -2.303460277981          4.121030979038          0.514464087986
      0.3047524880D+04  0.1834737132D-02
      0.4573695180D+03  0.1403732281D-01
      0.1039486850D+03  0.6884262226D-01
      0.2921015530D+02  0.2321844432D+00
      0.9286662960D+01  0.4679413484D+00
      0.3163926960D+01  0.3623119853D+00
 Atom C37      Shell   106 SP   3    bf  282 -   285         -2.303460277981          4.121030979038          0.514464087986
      0.7868272350D+01 -0.1193324198D+00  0.6899906659D-01
      0.1881288540D+01 -0.1608541517D+00  0.3164239610D+00
      0.5442492580D+00  0.1143456438D+01  0.7443082909D+00
 Atom C37      Shell   107 SP   1    bf  286 -   289         -2.303460277981          4.121030979038          0.514464087986
      0.1687144782D+00  0.1000000000D+01  0.1000000000D+01
 Atom C37      Shell   108 D   1     bf  290 -   295         -2.303460277981          4.121030979038          0.514464087986
      0.8000000000D+00  0.1000000000D+01
 Atom H38      Shell   109 S   3     bf  296 -   296         -1.921290341867          4.777646465040          2.453249098651
      0.1873113696D+02  0.3349460434D-01
      0.2825394365D+01  0.2347269535D+00
      0.6401216923D+00  0.8137573261D+00
 Atom H38      Shell   110 S   1     bf  297 -   297         -1.921290341867          4.777646465040          2.453249098651
      0.1612777588D+00  0.1000000000D+01
 Atom C39      Shell   111 S   6     bf  298 -   298         -0.250873654128          4.223800578932         -3.858195944304
      0.3047524880D+04  0.1834737132D-02
      0.4573695180D+03  0.1403732281D-01
      0.1039486850D+03  0.6884262226D-01
[...]
 **** Fit      -0.036630
 **** Fit      -0.030247
 **** Fit      -0.024810
 **** Fit       0.015827
 **** Fit       0.018126
 **** Fit       0.020788
 **** Fit       0.023695
 **** Fit       0.026438
 **** Fit       0.028025
 **** Fit       0.026648
 **** Fit      -0.055701
 **** Fit      -0.051996
 **** Fit      -0.045247
 **** Fit      -0.037864
 **** Fit      -0.031112
 **** Fit      -0.025408
 **** Fit       0.015936
 **** Fit       0.018276
 **** Fit       0.020997
 **** Fit       0.023987
 **** Fit       0.026840
 **** Fit       0.028564
 **** Fit       0.027329
 **** Fit      -0.055181
 **** Fit      -0.051537
 **** Fit      -0.044871
 **** Fit      -0.037567
 **** Fit      -0.030880
 **** Fit      -0.025226
 **** Fit       0.015521
 **** Fit       0.017683
 **** Fit       0.020137
 **** Fit       0.022734
 **** Fit       0.025040
 **** Fit       0.026096
 **** Fit       0.024270
 **** Fit       0.017676
 **** Fit      -0.010672
 **** Fit      -0.050125
 **** Fit      -0.051929
 **** Fit      -0.048541
 **** Fit      -0.042463
 **** Fit      -0.035766
 **** Fit      -0.029571
 **** Fit      -0.024278
 **** Fit       0.014656
 **** Fit       0.016473
 **** Fit       0.018429
 **** Fit       0.020325
 **** Fit       0.021709
 **** Fit       0.021728
 **** Fit       0.019100
 **** Fit       0.012519
 **** Fit       0.001600
 **** Fit      -0.012343
 **** Fit      -0.026620
 **** Fit      -0.038231
 **** Fit      -0.044976
 **** Fit      -0.046331
 **** Fit      -0.043501
 **** Fit      -0.038428
 **** Fit      -0.032738
 **** Fit      -0.027360
 **** Fit       0.014862
 **** Fit       0.016231
 **** Fit       0.017352
 **** Fit       0.017805
 **** Fit       0.016904
 **** Fit       0.013762
 **** Fit       0.007613
 **** Fit      -0.001603
 **** Fit      -0.012814
 **** Fit      -0.024013
 **** Fit      -0.032987
 **** Fit      -0.038191
 **** Fit      -0.039332
 **** Fit      -0.037287
 **** Fit      -0.033424
 **** Fit      -0.028927
 **** Fit      -0.024534
 **** Fit       0.013081
 **** Fit       0.013897
 **** Fit       0.014350
 **** Fit       0.014086
 **** Fit       0.012615
 **** Fit       0.009385
 **** Fit       0.004017
 **** Fit      -0.003368
 **** Fit      -0.011945
 **** Fit      -0.020321
 **** Fit      -0.027009
 **** Fit      -0.030995
 **** Fit      -0.032086
 **** Fit      -0.030838
 **** Fit      -0.028138
 **** Fit      -0.024806
 **** Fit       0.011688
 **** Fit       0.011652
 **** Fit       0.010947
 **** Fit       0.009247
 **** Fit       0.006246
 **** Fit       0.001796
 **** Fit      -0.003918
 **** Fit      -0.010291
 **** Fit      -0.016407
 **** Fit      -0.021318
 **** Fit      -0.024379
 **** Fit      -0.025449
 **** Fit      -0.024840
 **** Fit      -0.023097
 **** Fit       0.009404
 **** Fit       0.008486
 **** Fit       0.006797
 **** Fit       0.004182
 **** Fit       0.000614
 **** Fit      -0.003721
 **** Fit      -0.008400
 **** Fit      -0.012834
 **** Fit      -0.016434
 **** Fit      -0.018797
 **** Fit      -0.019811
 **** Fit      -0.019641
 **** Fit       0.005098
 **** Fit       0.002909
 **** Fit       0.000104
 **** Fit      -0.003159
 **** Fit      -0.006590
 **** Fit      -0.009815
 **** Fit      -0.012471
 **** Fit       0.005322
 **** Fit       0.003463
 **** Fit       0.000894
 **** Fit      -0.002351
 **** Fit      -0.006088
 **** Fit      -0.009982
 **** Fit      -0.013599
 **** Fit      -0.016520
 **** Fit      -0.018453
 **** Fit      -0.019309
 **** Fit       0.008145
 **** Fit       0.006981
 **** Fit       0.005003
 **** Fit       0.002061
 **** Fit      -0.001864
 **** Fit      -0.006567
 **** Fit      -0.011593
 **** Fit      -0.016319
 **** Fit      -0.020115
 **** Fit      -0.022548
 **** Fit      -0.023495
 **** Fit      -0.023137
 **** Fit       0.010360
 **** Fit       0.010078
 **** Fit       0.009107
 **** Fit       0.007145
 **** Fit       0.003915
 **** Fit      -0.000695
 **** Fit      -0.006486
 **** Fit      -0.012870
 **** Fit      -0.018972
 **** Fit      -0.023877
 **** Fit      -0.026947
 **** Fit      -0.028011
 **** Fit      -0.027351
 **** Fit      -0.025498
 **** Fit       0.011633
 **** Fit       0.012139
 **** Fit       0.012240
 **** Fit       0.011618
 **** Fit       0.009852
 **** Fit       0.006498
 **** Fit       0.001290
 **** Fit      -0.005617
 **** Fit      -0.013502
 **** Fit      -0.021192
 **** Fit      -0.027420
 **** Fit      -0.031274
 **** Fit      -0.032509
 **** Fit      -0.031528
 **** Fit      -0.029083
 **** Fit      -0.025922
 **** Fit       0.012964
 **** Fit       0.013856
 **** Fit       0.014411
 **** Fit       0.014261
 **** Fit       0.012867
 **** Fit       0.009595
 **** Fit       0.003973
 **** Fit      -0.003936
 **** Fit      -0.013289
 **** Fit      -0.022611
 **** Fit      -0.030256
 **** Fit      -0.034999
 **** Fit      -0.036480
 **** Fit      -0.035224
 **** Fit      -0.032223
 **** Fit      -0.028438
 **** Fit      -0.024544
 **** Fit       0.014034
 **** Fit       0.015271
 **** Fit       0.016258
 **** Fit       0.016597
 **** Fit       0.015653
 **** Fit       0.012617
 **** Fit       0.006802
 **** Fit      -0.001844
 **** Fit      -0.012392
 **** Fit      -0.023104
 **** Fit      -0.032010
 **** Fit      -0.037593
 **** Fit      -0.039363
 **** Fit      -0.037936
 **** Fit      -0.034515
 **** Fit      -0.030251
 **** Fit      -0.025925
 **** Fit       0.014682
 **** Fit       0.016144
 **** Fit       0.017420
 **** Fit       0.018102
 **** Fit       0.017503
 **** Fit       0.014701
 **** Fit       0.008860
 **** Fit      -0.000162
 **** Fit      -0.011390
 **** Fit      -0.022925
 **** Fit      -0.032601
 **** Fit      -0.038723
 **** Fit      -0.040714
 **** Fit      -0.039235
 **** Fit      -0.035612
 **** Fit      -0.031109
 **** Fit      -0.026567
 **** Fit       0.014806
 **** Fit       0.016309
 **** Fit       0.017639
 **** Fit       0.018387
 **** Fit       0.017863
 **** Fit       0.015135
 **** Fit       0.009351
 **** Fit       0.000355
 **** Fit      -0.010877
 **** Fit      -0.022431
 **** Fit      -0.032130
 **** Fit      -0.038281
 **** Fit      -0.040313
 **** Fit      -0.038888
 **** Fit      -0.035323
 **** Fit      -0.030873
 **** Fit      -0.026377
 **** Fit       0.014389
 **** Fit       0.015744
 **** Fit       0.016882
 **** Fit       0.017405
 **** Fit       0.016670
 **** Fit       0.013840
 **** Fit       0.008190
 **** Fit      -0.000368
 **** Fit      -0.010904
 **** Fit      -0.021654
 **** Fit      -0.030622
 **** Fit      -0.036294
 **** Fit      -0.038192
 **** Fit      -0.036926
 **** Fit      -0.033674
 **** Fit      -0.029565
 **** Fit      -0.025371
 **** Fit       0.013514
 **** Fit       0.014580
 **** Fit       0.015357
 **** Fit       0.015475
 **** Fit       0.014380
 **** Fit       0.011408
 **** Fit       0.006037
 **** Fit      -0.001709
 **** Fit      -0.011000
 **** Fit      -0.020339
 **** Fit      -0.028066
 **** Fit      -0.032957
 **** Fit      -0.034649
 **** Fit      -0.033649
 **** Fit      -0.030909
 **** Fit      -0.027362
 **** Fit      -0.023671
 **** Fit       0.012324
 **** Fit       0.013039
 **** Fit       0.013400
 **** Fit       0.013087
 **** Fit       0.011664
 **** Fit       0.008657
 **** Fit       0.003754
 **** Fit      -0.002930
 **** Fit      -0.010692
 **** Fit      -0.018363
 **** Fit      -0.024674
 **** Fit      -0.028712
 **** Fit      -0.030212
 **** Fit      -0.029545
 **** Fit      -0.027418
 **** Fit      -0.024548
 **** Fit       0.011355
 **** Fit       0.011342
 **** Fit       0.010687
 **** Fit       0.009072
 **** Fit       0.006195
 **** Fit       0.001906
 **** Fit      -0.003630
 **** Fit      -0.009855
 **** Fit      -0.015908
 **** Fit      -0.020884
 **** Fit      -0.024139
 **** Fit      -0.025478
 **** Fit      -0.025144
 **** Fit      -0.023623
 **** Fit       0.009421
 **** Fit       0.008554
 **** Fit       0.006901
 **** Fit       0.004289
 **** Fit       0.000671
 **** Fit      -0.003779
 **** Fit      -0.008636
 **** Fit      -0.013297
 **** Fit      -0.017144
 **** Fit      -0.019738
 **** Fit      -0.020934
 **** Fit      -0.020874
 **** Fit       0.006806
 **** Fit       0.005233
 **** Fit       0.002956
 **** Fit      -0.000014
 **** Fit      -0.003522
 **** Fit      -0.007255
 **** Fit      -0.010801
 **** Fit      -0.013751
 **** Fit      -0.015809
 **** Fit      -0.000298
 **** Fit      -0.003032
 **** Fit      -0.002342
 **** Fit      -0.005321
 **** Fit       0.005281
 **** Fit       0.003509
 **** Fit       0.001045
 **** Fit      -0.002087
 **** Fit      -0.005718
 **** Fit      -0.009537
 **** Fit      -0.013132
 **** Fit      -0.016098
 **** Fit      -0.018141
 **** Fit       0.007801
 **** Fit       0.006721
 **** Fit       0.004892
 **** Fit       0.002177
 **** Fit      -0.001438
 **** Fit      -0.005778
 **** Fit      -0.010446
 **** Fit      -0.014896
 **** Fit      -0.018570
 **** Fit      -0.021060
 **** Fit      -0.022217
 **** Fit      -0.022156
 **** Fit       0.009592
 **** Fit       0.009285
 **** Fit       0.008358
 **** Fit       0.006563
 **** Fit       0.003679
 **** Fit      -0.000372
 **** Fit      -0.005416
 **** Fit      -0.010978
 **** Fit      -0.016359
 **** Fit      -0.020820
 **** Fit      -0.023817
 **** Fit      -0.025152
 **** Fit      -0.024984
 **** Fit      -0.023695
 **** Fit       0.010800
 **** Fit       0.010733
 **** Fit       0.010020
 **** Fit       0.008343
 **** Fit       0.005390
 **** Fit       0.001004
 **** Fit      -0.004665
 **** Fit      -0.011069
 **** Fit      -0.017357
 **** Fit      -0.022607
 **** Fit      -0.026126
 **** Fit      -0.027658
 **** Fit      -0.027405
 **** Fit      -0.025851
 **** Fit       0.011782
 **** Fit       0.011941
 **** Fit       0.011450
 **** Fit       0.009932
 **** Fit       0.006995
 **** Fit       0.002400
 **** Fit      -0.003730
 **** Fit      -0.010798
 **** Fit      -0.017827
 **** Fit      -0.023739
 **** Fit      -0.027710
 **** Fit      -0.029430
 **** Fit      -0.029132
 **** Fit      -0.027386
 **** Fit      -0.024824
 **** Fit       0.011734
 **** Fit       0.012388
 **** Fit       0.012700
 **** Fit       0.012367
 **** Fit       0.010980
 **** Fit       0.008096
 **** Fit       0.003422
 **** Fit      -0.002945
 **** Fit      -0.010380
 **** Fit      -0.017833
 **** Fit      -0.024134
 **** Fit      -0.028380
 **** Fit      -0.030229
 **** Fit      -0.029928
 **** Fit      -0.028096
 **** Fit      -0.025413
 **** Fit       0.011834
 **** Fit       0.012517
 **** Fit       0.012865
 **** Fit       0.012574
 **** Fit       0.011232
 **** Fit       0.008391
 **** Fit       0.003752
 **** Fit      -0.002593
 **** Fit      -0.010020
 **** Fit      -0.017476
 **** Fit      -0.023789
 **** Fit      -0.028057
 **** Fit      -0.029935
 **** Fit      -0.029670
 **** Fit      -0.027875
 **** Fit      -0.025228
 **** Fit       0.012156
 **** Fit       0.012417
 **** Fit       0.012044
 **** Fit       0.010652
 **** Fit       0.007837
 **** Fit       0.003345
 **** Fit      -0.002718
 **** Fit      -0.009757
 **** Fit      -0.016791
 **** Fit      -0.022737
 **** Fit      -0.026769
 **** Fit      -0.028575
 **** Fit      -0.028380
 **** Fit      -0.026742
 **** Fit      -0.024283
 **** Fit       0.011380
 **** Fit       0.011466
 **** Fit       0.010928
 **** Fit       0.009439
 **** Fit       0.006670
 **** Fit       0.002441
 **** Fit      -0.003116
 **** Fit      -0.009463
 **** Fit      -0.015747
 **** Fit      -0.021044
 **** Fit      -0.024656
 **** Fit      -0.026322
 **** Fit      -0.026228
 **** Fit      -0.024841
 **** Fit       0.010324
 **** Fit       0.010201
 **** Fit       0.009484
 **** Fit       0.007913
 **** Fit       0.005251
 **** Fit       0.001395
 **** Fit      -0.003503
 **** Fit      -0.008981
 **** Fit      -0.014343
 **** Fit      -0.018853
 **** Fit      -0.021962
 **** Fit      -0.023461
 **** Fit      -0.023487
 **** Fit      -0.022402
 **** Fit       0.008822
 **** Fit       0.007964
 **** Fit       0.006373
 **** Fit       0.003893
 **** Fit       0.000488
 **** Fit      -0.003685
 **** Fit      -0.008249
 **** Fit      -0.012667
 **** Fit      -0.016384
 **** Fit      -0.018988
 **** Fit      -0.020316
 **** Fit      -0.020461
 **** Fit       0.006553
 **** Fit       0.005012
 **** Fit       0.002778
 **** Fit      -0.000144
 **** Fit      -0.003607
 **** Fit      -0.007313
 **** Fit      -0.010866
 **** Fit      -0.013864
 **** Fit      -0.016009
 **** Fit      -0.000492
 **** Fit      -0.003310
 **** Fit      -0.006270
 **** Fit       0.003240
 **** Fit       0.000985
 **** Fit      -0.001859
 **** Fit      -0.005148
 **** Fit      -0.008615
 **** Fit      -0.011912
 **** Fit       0.005941
 **** Fit       0.004267
 **** Fit       0.001853
 **** Fit      -0.001300
 **** Fit      -0.005042
 **** Fit      -0.009056
 **** Fit      -0.012913
 **** Fit      -0.016174
 **** Fit      -0.018501
 **** Fit      -0.019747
 **** Fit       0.007936
 **** Fit       0.006990
 **** Fit       0.005329
 **** Fit       0.002814
 **** Fit      -0.000588
 **** Fit      -0.004722
 **** Fit      -0.009233
 **** Fit      -0.013614
 **** Fit      -0.017332
 **** Fit      -0.019979
 **** Fit      -0.021374
 **** Fit      -0.021582
 **** Fit       0.008729
 **** Fit       0.007877
 **** Fit       0.006259
 **** Fit       0.003697
 **** Fit       0.000132
 **** Fit      -0.004291
 **** Fit      -0.009183
 **** Fit      -0.013975
 **** Fit      -0.018061
 **** Fit      -0.020970
 **** Fit      -0.022494
 **** Fit      -0.022707
 **** Fit       0.009228
 **** Fit       0.008449
 **** Fit       0.006878
 **** Fit       0.004313
 **** Fit       0.000676
 **** Fit      -0.003893
 **** Fit      -0.008990
 **** Fit      -0.014010
 **** Fit      -0.018306
 **** Fit      -0.021370
 **** Fit      -0.022977
 **** Fit      -0.023206
 **** Fit       0.009355
 **** Fit       0.008602
 **** Fit       0.007059
 **** Fit       0.004522
 **** Fit       0.000907
 **** Fit      -0.003646
 **** Fit      -0.008735
 **** Fit      -0.013755
 **** Fit      -0.018057
 **** Fit      -0.021135
 **** Fit      -0.022761
 **** Fit      -0.023012
 **** Fit       0.009095
 **** Fit       0.008320
 **** Fit       0.006784
 **** Fit       0.004299
 **** Fit       0.000799
 **** Fit      -0.003577
 **** Fit      -0.008444
 **** Fit      -0.013234
 **** Fit      -0.017338
 **** Fit      -0.020285
 **** Fit      -0.021864
 **** Fit      -0.022142
 **** Fit       0.008507
 **** Fit       0.007678
 **** Fit       0.006141
 **** Fit       0.003743
 **** Fit       0.000443
 **** Fit      -0.003616
 **** Fit      -0.008084
 **** Fit      -0.012457
 **** Fit      -0.016201
 **** Fit      -0.018905
 **** Fit      -0.020384
 **** Fit       0.006811
 **** Fit       0.005288
 **** Fit       0.003020
 **** Fit      -0.000006
 **** Fit      -0.003650
 **** Fit      -0.007606
 **** Fit      -0.011448
 **** Fit      -0.014736
 **** Fit      -0.017132
 **** Fit       0.004385
 **** Fit       0.002290
 **** Fit      -0.000413
 **** Fit      -0.003590
 **** Fit      -0.006986
 **** Fit      -0.010260
 **** Fit      -0.001774
 **** Fit      -0.004595
 **** Fit       0.003330
 **** Fit       0.001239
 **** Fit      -0.001406
 **** Fit      -0.004480
 **** Fit      -0.007746
 **** Fit      -0.010893
 **** Fit       0.003886
 **** Fit       0.001740
 **** Fit      -0.001026
 **** Fit      -0.004283
 **** Fit      -0.007776
 **** Fit      -0.011162
 **** Fit       0.005770
 **** Fit       0.004264
 **** Fit       0.002101
 **** Fit      -0.000719
 **** Fit      -0.004068
 **** Fit      -0.007681
 **** Fit      -0.011197
 **** Fit      -0.014240
 **** Fit       0.005886
 **** Fit       0.004399
 **** Fit       0.002253
 **** Fit      -0.000552
 **** Fit      -0.003890
 **** Fit      -0.007497
 **** Fit      -0.011012
 **** Fit      -0.014058
 **** Fit       0.004277
 **** Fit       0.002181
 **** Fit      -0.000541
 **** Fit      -0.003765
 **** Fit      -0.007240
 **** Fit      -0.010622
 **** Fit       0.003942
 **** Fit       0.001929
 **** Fit      -0.000648
 **** Fit      -0.003671
 **** Fit      -0.006906
 **** Fit      -0.010044
 **** Fit      -0.000808
 **** Fit      -0.003562
 -----------------------------------------------------------------
 Leave Link  602 at Fri Apr 28 12:21:36 2017, MaxMem=   33554432 cpu:      96.0
 (Enter /scratch/michal/g09/l9999.exe)

 Test job not archived.
 1\1\GINC-RZEPICHA\SP\RHF\6-31G(d)\C27H46O3\MICHAL\28-Apr-2017\0\\#P HF
 /6-31G* SCF(Conver=6) NoSymm Test Pop=chelpg IOp(6/33=2) GFInput GFPri
 nt\\MEP - Input generated by R.E.D.-III.x MOLECULE\\0,1\C,0,7.51749826
 ,2.21513592,0.06869476\H,0,7.35560269,2.18417256,1.15312218\C,0,6.8221
 5141,1.00737742,-0.57557973\H,0,7.20522803,0.08099345,-0.13604297\H,0,
 7.10345305,0.99210621,-1.641151\C,0,5.31127757,1.06233579,-0.45374457\
 C,0,4.61626141,2.36057234,-0.87866776\C,0,5.4098762,3.56480342,-0.2822
 0354\H,0,5.2116998,3.60662033,0.79786485\H,0,5.02430499,4.49868104,-0.
 70419347\C,0,6.93125671,3.51093642,-0.48957117\H,0,7.17686015,3.583343
 99,-1.55956925\H,0,7.40582518,4.36892734,0.\C,0,4.63254351,0.,0.\H,0,5
 .17674411,-0.89065809,0.31602486\C,0,3.13945797,-0.09981266,0.10918762
 \H,0,2.85601469,-0.1929858,1.17025646\C,0,2.37492012,1.068549,-0.53155
 854\H,0,2.31697438,0.85618306,-1.60464621\C,0,3.15615652,2.39285204,-0
 .30555566\H,0,3.2716505,2.49370918,0.78648388\C,0,2.33972676,3.6166754
 9,-0.77928648\H,0,2.29029764,3.62744318,-1.87354466\H,0,2.85744701,4.5
 380808,-0.49097114\C,0,0.90509852,3.67102782,-0.21935063\H,0,0.9439705
 8,3.81122592,0.87070742\H,0,0.4080192,4.55607919,-0.62822202\C,0,0.118
 74486,2.38001769,-0.52293319\C,0,0.95713526,1.20137619,0.05258239\H,0,
 1.09597493,1.44467255,1.12096116\C,0,0.,0.,0.\H,0,0.27465491,-0.785985
 96,0.70807457\H,0,0.01656353,-0.46399219,-0.99145338\C,0,-1.38657051,0
 .62363774,0.31322803\H,0,-2.1341871,0.30047171,-0.42125167\H,0,-1.7547
 9024,0.29677467,1.29043957\C,0,-1.21893868,2.18075567,0.27224267\H,0,-
 1.01670306,2.52822162,1.29820351\C,0,-0.13275662,2.235139,-2.04166936\
 H,0,0.79594635,2.15775002,-2.61261844\H,0,-0.72682384,1.34666931,-2.27
 429789\H,0,-0.67803077,3.10270464,-2.42762549\C,0,-2.50689864,2.907067
 64,-0.19693525\H,0,-2.76497195,2.51993757,-1.1945356\C,0,-2.34055186,4
 .43323374,-0.30734399\H,0,-1.98797545,4.85819649,0.64095789\H,0,-3.289
 45667,4.91857509,-0.55433462\H,0,-1.62787664,4.71651175,-1.08505664\C,
 0,4.63029448,2.44119949,-2.42844778\H,0,4.27675879,3.41576966,-2.77893
 287\H,0,5.63890469,2.30246555,-2.82735379\H,0,3.99881936,1.66475069,-2
 .86974984\O,0,2.6861748,-1.39292792,-0.36594793\O,0,2.93513826,-1.4895
 2217,-1.79944464\H,0,3.73021972,-2.04719553,-1.81218598\O,0,8.93868097
 ,2.14723609,-0.07455856\H,0,9.1584829,2.20113641,-1.01529183\C,0,-3.68
 778898,2.56342665,0.74548008\H,0,-3.70035762,1.48411852,0.9338274\H,0,
 -3.50905741,3.03980183,1.7219198\C,0,-5.08060738,2.96386274,0.23247342
 \H,0,-5.131692,4.04814974,0.08446897\H,0,-5.24288235,2.50891197,-0.756
 22154\C,0,-6.20706909,2.52209508,1.17907952\H,0,-6.07034967,3.00623712
 ,2.15839225\H,0,-6.1089921,1.44196971,1.35929432\C,0,-7.63991631,2.803
 39873,0.68228817\H,0,-7.74156014,2.34585187,-0.31408647\C,0,-8.6711640
 4,2.13965304,1.6088162\H,0,-8.61223193,2.5580252,2.62189151\H,0,-9.692
 93974,2.2963223,1.24457976\H,0,-8.50361916,1.05918109,1.68498578\C,0,-
 7.93331339,4.30610331,0.54263808\H,0,-7.81801308,4.8155207,1.50836337\
 H,0,-8.96096035,4.47390057,0.2005454\H,0,-7.26458397,4.79313118,-0.174
 0417\\Version=EM64L-G09RevC.01\HF=-1273.6849484\RMSD=5.088e-07\Dipole=
 0.2794342,0.4681931,-0.4402012\Quadrupole=-5.4022441,2.8020015,2.60024
 26,-0.1367084,-10.2330501,-2.3179219\PG=C01 [X(C27H46O3)]\\@


 ONE BIG VICE IN A MAN IS APT TO KEEP OUT MANY SMALLER ONES.

                           -- BRET HARTE
 Job cpu time:  0 days  0 hours 39 minutes  1.3 seconds.
 File lengths (MBytes):  RWF=    159 Int=      0 D2E=      0 Chk=     11 Scr=      1
 Normal termination of Gaussian 09 at Fri Apr 28 12:21:36 2017.
