 Entering Gaussian System, Link 0=/scratch/michal/g09//g09
 Input=JOB2-gau_m1-4-3.com
 Output=JOB2-gau_m1-4-3.log
 Initial command:
 /scratch/michal/g09/l1.exe /scratch/michal/gauss_scratch/Gau-36250.inp -scrdir=/scratch/michal/gauss_scratch/
 Entering Link 1 = /scratch/michal/g09/l1.exe PID=     36252.
  
 Copyright (c) 1988,1990,1992,1993,1995,1998,2003,2009,2011,
            Gaussian, Inc.  All Rights Reserved.
  
 This is part of the Gaussian(R) 09 program.  It is based on
 the Gaussian(R) 03 system (copyright 2003, Gaussian, Inc.),
 the Gaussian(R) 98 system (copyright 1998, Gaussian, Inc.),
 the Gaussian(R) 94 system (copyright 1995, Gaussian, Inc.),
 the Gaussian 92(TM) system (copyright 1992, Gaussian, Inc.),
 the Gaussian 90(TM) system (copyright 1990, Gaussian, Inc.),
 the Gaussian 88(TM) system (copyright 1988, Gaussian, Inc.),
 the Gaussian 86(TM) system (copyright 1986, Carnegie Mellon
 University), and the Gaussian 82(TM) system (copyright 1983,
 Carnegie Mellon University). Gaussian is a federally registered
 trademark of Gaussian, Inc.
  
 This software contains proprietary and confidential information,
 including trade secrets, belonging to Gaussian, Inc.
  
 This software is provided under written license and may be
 used, copied, transmitted, or stored only in accord with that
 written license.
  
 The following legend is applicable only to US Government
 contracts under FAR:
  
                    RESTRICTED RIGHTS LEGEND
  
 Use, reproduction and disclosure by the US Government is
 subject to restrictions as set forth in subparagraphs (a)
 and (c) of the Commercial Computer Software - Restricted
 Rights clause in FAR 52.227-19.
  
 Gaussian, Inc.
 340 Quinnipiac St., Bldg. 40, Wallingford CT 06492
  
  
 ---------------------------------------------------------------
 Warning -- This program may not be used in any manner that
 competes with the business of Gaussian, Inc. or will provide
 assistance to any competitor of Gaussian, Inc.  The licensee
 of this program is prohibited from giving any competitor of
 Gaussian, Inc. access to this program.  By using this program,
 the user acknowledges that Gaussian, Inc. is engaged in the
 business of creating and licensing software in the field of
 computational chemistry and represents and warrants to the
 licensee that it is not a competitor of Gaussian, Inc. and that
 it will not use this program in any manner prohibited above.
 ---------------------------------------------------------------
  

 Cite this work as:
 Gaussian 09, Revision C.01,
 M. J. Frisch, G. W. Trucks, H. B. Schlegel, G. E. Scuseria, 
 M. A. Robb, J. R. Cheeseman, G. Scalmani, V. Barone, B. Mennucci, 
 G. A. Petersson, H. Nakatsuji, M. Caricato, X. Li, H. P. Hratchian, 
 A. F. Izmaylov, J. Bloino, G. Zheng, J. L. Sonnenberg, M. Hada, 
 M. Ehara, K. Toyota, R. Fukuda, J. Hasegawa, M. Ishida, T. Nakajima, 
 Y. Honda, O. Kitao, H. Nakai, T. Vreven, J. A. Montgomery, Jr., 
 J. E. Peralta, F. Ogliaro, M. Bearpark, J. J. Heyd, E. Brothers, 
 K. N. Kudin, V. N. Staroverov, T. Keith, R. Kobayashi, J. Normand, 
 K. Raghavachari, A. Rendell, J. C. Burant, S. S. Iyengar, J. Tomasi, 
 M. Cossi, N. Rega, J. M. Millam, M. Klene, J. E. Knox, J. B. Cross, 
 V. Bakken, C. Adamo, J. Jaramillo, R. Gomperts, R. E. Stratmann, 
 O. Yazyev, A. J. Austin, R. Cammi, C. Pomelli, J. W. Ochterski, 
 R. L. Martin, K. Morokuma, V. G. Zakrzewski, G. A. Voth, 
 P. Salvador, J. J. Dannenberg, S. Dapprich, A. D. Daniels, 
 O. Farkas, J. B. Foresman, J. V. Ortiz, J. Cioslowski, 
 and D. J. Fox, Gaussian, Inc., Wallingford CT, 2010.
 
 ******************************************
 Gaussian 09:  EM64L-G09RevC.01 23-Sep-2011
                28-Apr-2017 
 ******************************************
 %Mem=256MB
 %NProc=48
 Will use up to   48 processors via shared memory.
 ----------------------------------------------------------------------
 #P HF/6-31G* SCF(Conver=6) NoSymm Test Pop=chelpg IOp(6/33=2) GFInput 
 GFPrint
 ----------------------------------------------------------------------
 1/38=1/1;
 2/12=2,15=1,17=6,18=5,40=1/2;
 3/5=1,6=6,7=1,11=9,16=1,24=110,25=1,30=1/1,2,3;
 4//1;
 5/5=2,6=6,38=5/2;
 6/7=2,8=2,9=2,10=2,15=8,20=3,28=1,33=2/1,2;
 99/5=1,9=1/99;
 Leave Link    1 at Fri Apr 28 12:16:18 2017, MaxMem=   33554432 cpu:       8.7
 (Enter /scratch/michal/g09/l101.exe)
 ----------------------------------------------
 MEP - Input generated by R.E.D.-III.x MOLECULE
 ----------------------------------------------
 Charge =  0 Multiplicity = 1
 Symbolic Z-Matrix:
 C                    -1.01097   1.98342   1.68385 
 H                    -0.99219   1.00621   2.1818 
 C                     0.31614   2.70667   1.95172 
 H                     0.47529   2.80426   3.02992 
 H                     0.22464   3.73003   1.55235 
 C                     1.5028    2.01482   1.30743 
 C                     1.38592   1.66238  -0.17877 
 C                    -0.01136   1.01296  -0.42599 
 H                     0.        0.        0. 
 H                    -0.17477   0.89514  -1.50247 
 C                    -1.19835   1.77667   0.18114 
 H                    -1.31349   2.75751  -0.30354 
 H                    -2.12881   1.22663   0. 
 C                     2.5997    1.75108   2.02957 
 H                     2.62733   2.01421   3.08462 
 C                     3.86396   1.14163   1.49947 
 H                     4.04526   0.1677    1.98014 
 C                     3.90592   0.99172  -0.03019 
 H                     4.20852   1.96597  -0.43615 
 C                     2.49372   0.6236   -0.56554 
 H                     2.21358  -0.31108  -0.05287 
 C                     2.53698   0.30833  -2.07804 
 H                     2.71186   1.23074  -2.64239 
 H                     1.55892  -0.0631   -2.40246 
 C                     3.60568  -0.72702  -2.47795 
 H                     3.35363  -1.70127  -2.03461 
 H                     3.56819  -0.86132  -3.56331 
 C                     5.01356  -0.31747  -2.00023 
 C                     4.91233  -0.09059  -0.4636 
 H                     4.51676  -1.03885  -0.06062 
 C                     6.37443   0.        0. 
 H                     6.48986  -0.24888   1.05948 
 H                     6.75875   1.01739  -0.12404 
 C                     7.11591  -1.00481  -0.92211 
 H                     8.00546  -0.54168  -1.36571 
 H                     7.47001  -1.87285  -0.35796 
 C                     6.11058  -1.43863  -2.04223 
 H                     5.61162  -2.36348  -1.71117 
 C                     5.50326   0.94285  -2.7498 
 H                     4.85876   1.80815  -2.57556 
 H                     6.51536   1.23019  -2.44978 
 H                     5.52152   0.7669   -3.83021 
 C                     6.8193   -1.77058  -3.3817 
 H                     7.3798   -0.87629  -3.69442 
 C                     5.84297  -2.13952  -4.51274 
 H                     5.19551  -2.97389  -4.21474 
 H                     6.38029  -2.44426  -5.41559 
 H                     5.19994  -1.30272  -4.79399 
 C                     1.50764   2.96888  -1.00793 
 H                     1.27768   2.79459  -2.06372 
 H                     0.81545   3.73546  -0.65002 
 H                     2.51526   3.38946  -0.93876 
 O                     4.99234   1.99335   1.82258 
 O                     5.1765    1.95939   3.27006 
 H                     6.03964   1.51709   3.32375 
 O                    -2.11779   2.66082   2.28557 
 H                    -2.19063   3.54277   1.89438 
 C                     7.85237  -2.90611  -3.17258 
 H                     8.45337  -2.69057  -2.28192 
 H                     7.31094  -3.83967  -2.95443 
 C                     8.82204  -3.14246  -4.34255 
 H                     8.26768  -3.44378  -5.23845 
 H                     9.31627  -2.1926   -4.58813 
 C                     9.87791  -4.21034  -4.01259 
 H                     9.36095  -5.14081  -3.73622 
 H                     10.42996  -3.89374  -3.1158 
 C                     10.90354  -4.53731  -5.12304 
 H                     11.56856  -5.30553  -4.70132 
 C                     10.24975  -5.14589  -6.37484 
 H                     9.61523  -4.41868  -6.89449 
 H                     11.01133  -5.48191  -7.08778 
 H                     9.6269   -6.01124  -6.11925 
 C                     11.78377  -3.33118  -5.49045 
 H                     11.20293  -2.54032  -5.97894 
 H                     12.58008  -3.62638  -6.18323 
 H                     12.25797  -2.89774  -4.60197 
 
 NAtoms=     76 NQM=        0 NQMF=       0 NMMI=     76 NMMIF=      0
                NMic=       0 NMicF=      0.
                    Isotopes and Nuclear Properties:
 (Nuclear quadrupole moments (NQMom) in fm**2, nuclear magnetic moments (NMagM)
  in nuclear magnetons)

  Atom         1           2           3           4           5           6           7           8           9          10
 IAtWgt=          12           1          12           1           1          12          12          12           1           1
 AtmWgt=  12.0000000   1.0078250  12.0000000   1.0078250   1.0078250  12.0000000  12.0000000  12.0000000   1.0078250   1.0078250
 NucSpn=           0           1           0           1           1           0           0           0           1           1
 AtZEff=   0.0000000   0.0000000   0.0000000   0.0000000   0.0000000   0.0000000   0.0000000   0.0000000   0.0000000   0.0000000
 NQMom=    0.0000000   0.0000000   0.0000000   0.0000000   0.0000000   0.0000000   0.0000000   0.0000000   0.0000000   0.0000000
 NMagM=    0.0000000   2.7928460   0.0000000   2.7928460   2.7928460   0.0000000   0.0000000   0.0000000   2.7928460   2.7928460

  Atom        11          12          13          14          15          16          17          18          19          20
 IAtWgt=          12           1           1          12           1          12           1          12           1          12
 AtmWgt=  12.0000000   1.0078250   1.0078250  12.0000000   1.0078250  12.0000000   1.0078250  12.0000000   1.0078250  12.0000000
 NucSpn=           0           1           1           0           1           0           1           0           1           0
 AtZEff=   0.0000000   0.0000000   0.0000000   0.0000000   0.0000000   0.0000000   0.0000000   0.0000000   0.0000000   0.0000000
 NQMom=    0.0000000   0.0000000   0.0000000   0.0000000   0.0000000   0.0000000   0.0000000   0.0000000   0.0000000   0.0000000
 NMagM=    0.0000000   2.7928460   2.7928460   0.0000000   2.7928460   0.0000000   2.7928460   0.0000000   2.7928460   0.0000000

  Atom        21          22          23          24          25          26          27          28          29          30
 IAtWgt=           1          12           1           1          12           1           1          12          12           1
 AtmWgt=   1.0078250  12.0000000   1.0078250   1.0078250  12.0000000   1.0078250   1.0078250  12.0000000  12.0000000   1.0078250
 NucSpn=           1           0           1           1           0           1           1           0           0           1
 AtZEff=   0.0000000   0.0000000   0.0000000   0.0000000   0.0000000   0.0000000   0.0000000   0.0000000   0.0000000   0.0000000
 NQMom=    0.0000000   0.0000000   0.0000000   0.0000000   0.0000000   0.0000000   0.0000000   0.0000000   0.0000000   0.0000000
 NMagM=    2.7928460   0.0000000   2.7928460   2.7928460   0.0000000   2.7928460   2.7928460   0.0000000   0.0000000   2.7928460

  Atom        31          32          33          34          35          36          37          38          39          40
 IAtWgt=          12           1           1          12           1           1          12           1          12           1
 AtmWgt=  12.0000000   1.0078250   1.0078250  12.0000000   1.0078250   1.0078250  12.0000000   1.0078250  12.0000000   1.0078250
 NucSpn=           0           1           1           0           1           1           0           1           0           1
 AtZEff=   0.0000000   0.0000000   0.0000000   0.0000000   0.0000000   0.0000000   0.0000000   0.0000000   0.0000000   0.0000000
 NQMom=    0.0000000   0.0000000   0.0000000   0.0000000   0.0000000   0.0000000   0.0000000   0.0000000   0.0000000   0.0000000
 NMagM=    0.0000000   2.7928460   2.7928460   0.0000000   2.7928460   2.7928460   0.0000000   2.7928460   0.0000000   2.7928460

  Atom        41          42          43          44          45          46          47          48          49          50
 IAtWgt=           1           1          12           1          12           1           1           1          12           1
 AtmWgt=   1.0078250   1.0078250  12.0000000   1.0078250  12.0000000   1.0078250   1.0078250   1.0078250  12.0000000   1.0078250
 NucSpn=           1           1           0           1           0           1           1           1           0           1
 AtZEff=   0.0000000   0.0000000   0.0000000   0.0000000   0.0000000   0.0000000   0.0000000   0.0000000   0.0000000   0.0000000
 NQMom=    0.0000000   0.0000000   0.0000000   0.0000000   0.0000000   0.0000000   0.0000000   0.0000000   0.0000000   0.0000000
 NMagM=    2.7928460   2.7928460   0.0000000   2.7928460   0.0000000   2.7928460   2.7928460   2.7928460   0.0000000   2.7928460

  Atom        51          52          53          54          55          56          57          58          59          60
 IAtWgt=           1           1          16          16           1          16           1          12           1           1
 AtmWgt=   1.0078250   1.0078250  15.9949146  15.9949146   1.0078250  15.9949146   1.0078250  12.0000000   1.0078250   1.0078250
 NucSpn=           1           1           0           0           1           0           1           0           1           1
 AtZEff=   0.0000000   0.0000000   0.0000000   0.0000000   0.0000000   0.0000000   0.0000000   0.0000000   0.0000000   0.0000000
 NQMom=    0.0000000   0.0000000   0.0000000   0.0000000   0.0000000   0.0000000   0.0000000   0.0000000   0.0000000   0.0000000
 NMagM=    2.7928460   2.7928460   0.0000000   0.0000000   2.7928460   0.0000000   2.7928460   0.0000000   2.7928460   2.7928460

  Atom        61          62          63          64          65          66          67          68          69          70
 IAtWgt=          12           1           1          12           1           1          12           1          12           1
 AtmWgt=  12.0000000   1.0078250   1.0078250  12.0000000   1.0078250   1.0078250  12.0000000   1.0078250  12.0000000   1.0078250
 NucSpn=           0           1           1           0           1           1           0           1           0           1
 AtZEff=   0.0000000   0.0000000   0.0000000   0.0000000   0.0000000   0.0000000   0.0000000   0.0000000   0.0000000   0.0000000
 NQMom=    0.0000000   0.0000000   0.0000000   0.0000000   0.0000000   0.0000000   0.0000000   0.0000000   0.0000000   0.0000000
 NMagM=    0.0000000   2.7928460   2.7928460   0.0000000   2.7928460   2.7928460   0.0000000   2.7928460   0.0000000   2.7928460

  Atom        71          72          73          74          75          76
 IAtWgt=           1           1          12           1           1           1
 AtmWgt=   1.0078250   1.0078250  12.0000000   1.0078250   1.0078250   1.0078250
 NucSpn=           1           1           0           1           1           1
 AtZEff=   0.0000000   0.0000000   0.0000000   0.0000000   0.0000000   0.0000000
 NQMom=    0.0000000   0.0000000   0.0000000   0.0000000   0.0000000   0.0000000
 NMagM=    2.7928460   2.7928460   0.0000000   2.7928460   2.7928460   2.7928460
 Leave Link  101 at Fri Apr 28 12:16:18 2017, MaxMem=   33554432 cpu:       7.8
 (Enter /scratch/michal/g09/l202.exe)
 Symmetry turned off by external request.
 Stoichiometry    C27H46O3
 Framework group  C1[X(C27H46O3)]
 Deg. of freedom   222
 Full point group                 C1      NOp   1
                          Input orientation:                          
 ---------------------------------------------------------------------
 Center     Atomic      Atomic             Coordinates (Angstroms)
 Number     Number       Type             X           Y           Z
 ---------------------------------------------------------------------
      1          6           0       -1.010965    1.983423    1.683847
      2          1           0       -0.992189    1.006214    2.181799
      3          6           0        0.316136    2.706673    1.951716
      4          1           0        0.475292    2.804255    3.029921
      5          1           0        0.224635    3.730031    1.552348
      6          6           0        1.502805    2.014824    1.307431
      7          6           0        1.385923    1.662377   -0.178771
      8          6           0       -0.011357    1.012959   -0.425989
      9          1           0        0.000000    0.000000    0.000000
     10          1           0       -0.174771    0.895142   -1.502473
     11          6           0       -1.198347    1.776670    0.181137
     12          1           0       -1.313490    2.757508   -0.303542
     13          1           0       -2.128806    1.226633    0.000000
     14          6           0        2.599705    1.751085    2.029571
     15          1           0        2.627335    2.014214    3.084621
     16          6           0        3.863960    1.141633    1.499465
     17          1           0        4.045264    0.167702    1.980142
     18          6           0        3.905919    0.991716   -0.030185
     19          1           0        4.208520    1.965968   -0.436146
     20          6           0        2.493717    0.623597   -0.565540
     21          1           0        2.213578   -0.311077   -0.052873
     22          6           0        2.536983    0.308334   -2.078042
     23          1           0        2.711858    1.230739   -2.642394
     24          1           0        1.558917   -0.063102   -2.402456
     25          6           0        3.605677   -0.727015   -2.477946
     26          1           0        3.353628   -1.701267   -2.034611
     27          1           0        3.568190   -0.861323   -3.563314
     28          6           0        5.013560   -0.317471   -2.000235
     29          6           0        4.912328   -0.090590   -0.463600
     30          1           0        4.516761   -1.038847   -0.060623
     31          6           0        6.374426    0.000000    0.000000
     32          1           0        6.489863   -0.248881    1.059482
     33          1           0        6.758745    1.017388   -0.124044
     34          6           0        7.115912   -1.004811   -0.922112
     35          1           0        8.005459   -0.541684   -1.365711
     36          1           0        7.470007   -1.872853   -0.357963
     37          6           0        6.110576   -1.438629   -2.042231
     38          1           0        5.611622   -2.363483   -1.711172
     39          6           0        5.503256    0.942853   -2.749803
     40          1           0        4.858762    1.808150   -2.575557
     41          1           0        6.515356    1.230187   -2.449778
     42          1           0        5.521523    0.766902   -3.830215
     43          6           0        6.819302   -1.770579   -3.381697
     44          1           0        7.379799   -0.876285   -3.694425
     45          6           0        5.842972   -2.139520   -4.512735
     46          1           0        5.195513   -2.973891   -4.214738
     47          1           0        6.380289   -2.444256   -5.415594
     48          1           0        5.199938   -1.302718   -4.793990
     49          6           0        1.507645    2.968882   -1.007927
     50          1           0        1.277677    2.794585   -2.063717
     51          1           0        0.815446    3.735460   -0.650020
     52          1           0        2.515263    3.389460   -0.938759
     53          8           0        4.992336    1.993354    1.822582
     54          8           0        5.176504    1.959390    3.270055
     55          1           0        6.039641    1.517087    3.323751
     56          8           0       -2.117791    2.660819    2.285573
     57          1           0       -2.190626    3.542772    1.894381
     58          6           0        7.852365   -2.906107   -3.172581
     59          1           0        8.453369   -2.690569   -2.281920
     60          1           0        7.310936   -3.839667   -2.954427
     61          6           0        8.822041   -3.142463   -4.342548
     62          1           0        8.267676   -3.443781   -5.238446
     63          1           0        9.316271   -2.192596   -4.588127
     64          6           0        9.877913   -4.210336   -4.012588
     65          1           0        9.360955   -5.140806   -3.736217
     66          1           0       10.429965   -3.893737   -3.115798
     67          6           0       10.903537   -4.537308   -5.123042
     68          1           0       11.568562   -5.305526   -4.701316
     69          6           0       10.249750   -5.145887   -6.374840
     70          1           0        9.615231   -4.418679   -6.894493
     71          1           0       11.011330   -5.481911   -7.087777
     72          1           0        9.626899   -6.011237   -6.119245
     73          6           0       11.783765   -3.331185   -5.490445
     74          1           0       11.202931   -2.540315   -5.978938
     75          1           0       12.580077   -3.626384   -6.183233
     76          1           0       12.257968   -2.897737   -4.601968
 ---------------------------------------------------------------------
 Rotational constants (GHZ):      0.3879618      0.0516075      0.0475253
 Leave Link  202 at Fri Apr 28 12:16:18 2017, MaxMem=   33554432 cpu:       0.3
 (Enter /scratch/michal/g09/l301.exe)
 Standard basis: 6-31G(d) (6D, 7F)
 Ernie: Thresh=  0.10000D-02 Tol=  0.10000D-05 Strict=F.
 AO basis set in the form of general basis input (Overlap normalization):
      1 0
 S   6 1.00       0.000000000000
      0.3047524880D+04  0.1834737132D-02
      0.4573695180D+03  0.1403732281D-01
      0.1039486850D+03  0.6884262226D-01
      0.2921015530D+02  0.2321844432D+00
      0.9286662960D+01  0.4679413484D+00
      0.3163926960D+01  0.3623119853D+00
 SP   3 1.00       0.000000000000
      0.7868272350D+01 -0.1193324198D+00  0.6899906659D-01
      0.1881288540D+01 -0.1608541517D+00  0.3164239610D+00
      0.5442492580D+00  0.1143456438D+01  0.7443082909D+00
 SP   1 1.00       0.000000000000
      0.1687144782D+00  0.1000000000D+01  0.1000000000D+01
 D   1 1.00       0.000000000000
      0.8000000000D+00  0.1000000000D+01
 ****
      2 0
 S   3 1.00       0.000000000000
      0.1873113696D+02  0.3349460434D-01
      0.2825394365D+01  0.2347269535D+00
      0.6401216923D+00  0.8137573261D+00
 S   1 1.00       0.000000000000
      0.1612777588D+00  0.1000000000D+01
 ****
      3 0
 S   6 1.00       0.000000000000
      0.3047524880D+04  0.1834737132D-02
      0.4573695180D+03  0.1403732281D-01
      0.1039486850D+03  0.6884262226D-01
      0.2921015530D+02  0.2321844432D+00
      0.9286662960D+01  0.4679413484D+00
      0.3163926960D+01  0.3623119853D+00
 SP   3 1.00       0.000000000000
      0.7868272350D+01 -0.1193324198D+00  0.6899906659D-01
      0.1881288540D+01 -0.1608541517D+00  0.3164239610D+00
      0.5442492580D+00  0.1143456438D+01  0.7443082909D+00
 SP   1 1.00       0.000000000000
      0.1687144782D+00  0.1000000000D+01  0.1000000000D+01
 D   1 1.00       0.000000000000
      0.8000000000D+00  0.1000000000D+01
 ****
      4 0
 S   3 1.00       0.000000000000
      0.1873113696D+02  0.3349460434D-01
      0.2825394365D+01  0.2347269535D+00
      0.6401216923D+00  0.8137573261D+00
 S   1 1.00       0.000000000000
      0.1612777588D+00  0.1000000000D+01
 ****
      5 0
 S   3 1.00       0.000000000000
      0.1873113696D+02  0.3349460434D-01
      0.2825394365D+01  0.2347269535D+00
      0.6401216923D+00  0.8137573261D+00
 S   1 1.00       0.000000000000
      0.1612777588D+00  0.1000000000D+01
 ****
      6 0
 S   6 1.00       0.000000000000
      0.3047524880D+04  0.1834737132D-02
      0.4573695180D+03  0.1403732281D-01
      0.1039486850D+03  0.6884262226D-01
      0.2921015530D+02  0.2321844432D+00
      0.9286662960D+01  0.4679413484D+00
      0.3163926960D+01  0.3623119853D+00
 SP   3 1.00       0.000000000000
      0.7868272350D+01 -0.1193324198D+00  0.6899906659D-01
      0.1881288540D+01 -0.1608541517D+00  0.3164239610D+00
      0.5442492580D+00  0.1143456438D+01  0.7443082909D+00
 SP   1 1.00       0.000000000000
      0.1687144782D+00  0.1000000000D+01  0.1000000000D+01
 D   1 1.00       0.000000000000
      0.8000000000D+00  0.1000000000D+01
 ****
      7 0
 S   6 1.00       0.000000000000
      0.3047524880D+04  0.1834737132D-02
      0.4573695180D+03  0.1403732281D-01
      0.1039486850D+03  0.6884262226D-01
      0.2921015530D+02  0.2321844432D+00
      0.9286662960D+01  0.4679413484D+00
      0.3163926960D+01  0.3623119853D+00
 SP   3 1.00       0.000000000000
      0.7868272350D+01 -0.1193324198D+00  0.6899906659D-01
      0.1881288540D+01 -0.1608541517D+00  0.3164239610D+00
      0.5442492580D+00  0.1143456438D+01  0.7443082909D+00
 SP   1 1.00       0.000000000000
      0.1687144782D+00  0.1000000000D+01  0.1000000000D+01
 D   1 1.00       0.000000000000
      0.8000000000D+00  0.1000000000D+01
 ****
      8 0
 S   6 1.00       0.000000000000
      0.3047524880D+04  0.1834737132D-02
      0.4573695180D+03  0.1403732281D-01
      0.1039486850D+03  0.6884262226D-01
      0.2921015530D+02  0.2321844432D+00
      0.9286662960D+01  0.4679413484D+00
      0.3163926960D+01  0.3623119853D+00
 SP   3 1.00       0.000000000000
      0.7868272350D+01 -0.1193324198D+00  0.6899906659D-01
      0.1881288540D+01 -0.1608541517D+00  0.3164239610D+00
      0.5442492580D+00  0.1143456438D+01  0.7443082909D+00
 SP   1 1.00       0.000000000000
      0.1687144782D+00  0.1000000000D+01  0.1000000000D+01
 D   1 1.00       0.000000000000
      0.8000000000D+00  0.1000000000D+01
 ****
      9 0
 S   3 1.00       0.000000000000
      0.1873113696D+02  0.3349460434D-01
      0.2825394365D+01  0.2347269535D+00
      0.6401216923D+00  0.8137573261D+00
 S   1 1.00       0.000000000000
      0.1612777588D+00  0.1000000000D+01
 ****
     10 0
 S   3 1.00       0.000000000000
      0.1873113696D+02  0.3349460434D-01
      0.2825394365D+01  0.2347269535D+00
      0.6401216923D+00  0.8137573261D+00
 S   1 1.00       0.000000000000
      0.1612777588D+00  0.1000000000D+01
 ****
     11 0
 S   6 1.00       0.000000000000
      0.3047524880D+04  0.1834737132D-02
      0.4573695180D+03  0.1403732281D-01
      0.1039486850D+03  0.6884262226D-01
      0.2921015530D+02  0.2321844432D+00
      0.9286662960D+01  0.4679413484D+00
      0.3163926960D+01  0.3623119853D+00
 SP   3 1.00       0.000000000000
      0.7868272350D+01 -0.1193324198D+00  0.6899906659D-01
      0.1881288540D+01 -0.1608541517D+00  0.3164239610D+00
      0.5442492580D+00  0.1143456438D+01  0.7443082909D+00
 SP   1 1.00       0.000000000000
      0.1687144782D+00  0.1000000000D+01  0.1000000000D+01
 D   1 1.00       0.000000000000
      0.8000000000D+00  0.1000000000D+01
 ****
     12 0
 S   3 1.00       0.000000000000
      0.1873113696D+02  0.3349460434D-01
      0.2825394365D+01  0.2347269535D+00
      0.6401216923D+00  0.8137573261D+00
 S   1 1.00       0.000000000000
      0.1612777588D+00  0.1000000000D+01
 ****
     13 0
 S   3 1.00       0.000000000000
      0.1873113696D+02  0.3349460434D-01
      0.2825394365D+01  0.2347269535D+00
      0.6401216923D+00  0.8137573261D+00
 S   1 1.00       0.000000000000
      0.1612777588D+00  0.1000000000D+01
 ****
     14 0
 S   6 1.00       0.000000000000
      0.3047524880D+04  0.1834737132D-02
      0.4573695180D+03  0.1403732281D-01
      0.1039486850D+03  0.6884262226D-01
      0.2921015530D+02  0.2321844432D+00
      0.9286662960D+01  0.4679413484D+00
      0.3163926960D+01  0.3623119853D+00
 SP   3 1.00       0.000000000000
      0.7868272350D+01 -0.1193324198D+00  0.6899906659D-01
      0.1881288540D+01 -0.1608541517D+00  0.3164239610D+00
      0.5442492580D+00  0.1143456438D+01  0.7443082909D+00
 SP   1 1.00       0.000000000000
      0.1687144782D+00  0.1000000000D+01  0.1000000000D+01
 D   1 1.00       0.000000000000
      0.8000000000D+00  0.1000000000D+01
 ****
     15 0
 S   3 1.00       0.000000000000
      0.1873113696D+02  0.3349460434D-01
      0.2825394365D+01  0.2347269535D+00
      0.6401216923D+00  0.8137573261D+00
 S   1 1.00       0.000000000000
      0.1612777588D+00  0.1000000000D+01
 ****
     16 0
 S   6 1.00       0.000000000000
      0.3047524880D+04  0.1834737132D-02
      0.4573695180D+03  0.1403732281D-01
      0.1039486850D+03  0.6884262226D-01
      0.2921015530D+02  0.2321844432D+00
      0.9286662960D+01  0.4679413484D+00
      0.3163926960D+01  0.3623119853D+00
 SP   3 1.00       0.000000000000
      0.7868272350D+01 -0.1193324198D+00  0.6899906659D-01
      0.1881288540D+01 -0.1608541517D+00  0.3164239610D+00
      0.5442492580D+00  0.1143456438D+01  0.7443082909D+00
 SP   1 1.00       0.000000000000
      0.1687144782D+00  0.1000000000D+01  0.1000000000D+01
 D   1 1.00       0.000000000000
      0.8000000000D+00  0.1000000000D+01
 ****
     17 0
 S   3 1.00       0.000000000000
      0.1873113696D+02  0.3349460434D-01
      0.2825394365D+01  0.2347269535D+00
      0.6401216923D+00  0.8137573261D+00
 S   1 1.00       0.000000000000
      0.1612777588D+00  0.1000000000D+01
 ****
     18 0
 S   6 1.00       0.000000000000
      0.3047524880D+04  0.1834737132D-02
      0.4573695180D+03  0.1403732281D-01
      0.1039486850D+03  0.6884262226D-01
      0.2921015530D+02  0.2321844432D+00
      0.9286662960D+01  0.4679413484D+00
      0.3163926960D+01  0.3623119853D+00
 SP   3 1.00       0.000000000000
      0.7868272350D+01 -0.1193324198D+00  0.6899906659D-01
      0.1881288540D+01 -0.1608541517D+00  0.3164239610D+00
      0.5442492580D+00  0.1143456438D+01  0.7443082909D+00
 SP   1 1.00       0.000000000000
      0.1687144782D+00  0.1000000000D+01  0.1000000000D+01
 D   1 1.00       0.000000000000
      0.8000000000D+00  0.1000000000D+01
 ****
     19 0
 S   3 1.00       0.000000000000
      0.1873113696D+02  0.3349460434D-01
      0.2825394365D+01  0.2347269535D+00
      0.6401216923D+00  0.8137573261D+00
 S   1 1.00       0.000000000000
      0.1612777588D+00  0.1000000000D+01
 ****
     20 0
 S   6 1.00       0.000000000000
      0.3047524880D+04  0.1834737132D-02
      0.4573695180D+03  0.1403732281D-01
      0.1039486850D+03  0.6884262226D-01
      0.2921015530D+02  0.2321844432D+00
      0.9286662960D+01  0.4679413484D+00
      0.3163926960D+01  0.3623119853D+00
 SP   3 1.00       0.000000000000
      0.7868272350D+01 -0.1193324198D+00  0.6899906659D-01
      0.1881288540D+01 -0.1608541517D+00  0.3164239610D+00
      0.5442492580D+00  0.1143456438D+01  0.7443082909D+00
 SP   1 1.00       0.000000000000
      0.1687144782D+00  0.1000000000D+01  0.1000000000D+01
 D   1 1.00       0.000000000000
      0.8000000000D+00  0.1000000000D+01
 ****
     21 0
 S   3 1.00       0.000000000000
      0.1873113696D+02  0.3349460434D-01
      0.2825394365D+01  0.2347269535D+00
      0.6401216923D+00  0.8137573261D+00
 S   1 1.00       0.000000000000
      0.1612777588D+00  0.1000000000D+01
 ****
     22 0
 S   6 1.00       0.000000000000
      0.3047524880D+04  0.1834737132D-02
      0.4573695180D+03  0.1403732281D-01
      0.1039486850D+03  0.6884262226D-01
      0.2921015530D+02  0.2321844432D+00
      0.9286662960D+01  0.4679413484D+00
      0.3163926960D+01  0.3623119853D+00
 SP   3 1.00       0.000000000000
      0.7868272350D+01 -0.1193324198D+00  0.6899906659D-01
      0.1881288540D+01 -0.1608541517D+00  0.3164239610D+00
      0.5442492580D+00  0.1143456438D+01  0.7443082909D+00
 SP   1 1.00       0.000000000000
      0.1687144782D+00  0.1000000000D+01  0.1000000000D+01
 D   1 1.00       0.000000000000
      0.8000000000D+00  0.1000000000D+01
 ****
     23 0
 S   3 1.00       0.000000000000
      0.1873113696D+02  0.3349460434D-01
      0.2825394365D+01  0.2347269535D+00
      0.6401216923D+00  0.8137573261D+00
 S   1 1.00       0.000000000000
      0.1612777588D+00  0.1000000000D+01
 ****
     24 0
 S   3 1.00       0.000000000000
      0.1873113696D+02  0.3349460434D-01
      0.2825394365D+01  0.2347269535D+00
      0.6401216923D+00  0.8137573261D+00
 S   1 1.00       0.000000000000
      0.1612777588D+00  0.1000000000D+01
 ****
     25 0
 S   6 1.00       0.000000000000
      0.3047524880D+04  0.1834737132D-02
      0.4573695180D+03  0.1403732281D-01
      0.1039486850D+03  0.6884262226D-01
      0.2921015530D+02  0.2321844432D+00
      0.9286662960D+01  0.4679413484D+00
      0.3163926960D+01  0.3623119853D+00
 SP   3 1.00       0.000000000000
      0.7868272350D+01 -0.1193324198D+00  0.6899906659D-01
      0.1881288540D+01 -0.1608541517D+00  0.3164239610D+00
      0.5442492580D+00  0.1143456438D+01  0.7443082909D+00
 SP   1 1.00       0.000000000000
      0.1687144782D+00  0.1000000000D+01  0.1000000000D+01
 D   1 1.00       0.000000000000
      0.8000000000D+00  0.1000000000D+01
 ****
     26 0
 S   3 1.00       0.000000000000
      0.1873113696D+02  0.3349460434D-01
      0.2825394365D+01  0.2347269535D+00
      0.6401216923D+00  0.8137573261D+00
 S   1 1.00       0.000000000000
      0.1612777588D+00  0.1000000000D+01
 ****
     27 0
 S   3 1.00       0.000000000000
      0.1873113696D+02  0.3349460434D-01
      0.2825394365D+01  0.2347269535D+00
      0.6401216923D+00  0.8137573261D+00
 S   1 1.00       0.000000000000
      0.1612777588D+00  0.1000000000D+01
 ****
     28 0
 S   6 1.00       0.000000000000
      0.3047524880D+04  0.1834737132D-02
      0.4573695180D+03  0.1403732281D-01
      0.1039486850D+03  0.6884262226D-01
      0.2921015530D+02  0.2321844432D+00
      0.9286662960D+01  0.4679413484D+00
      0.3163926960D+01  0.3623119853D+00
 SP   3 1.00       0.000000000000
      0.7868272350D+01 -0.1193324198D+00  0.6899906659D-01
      0.1881288540D+01 -0.1608541517D+00  0.3164239610D+00
      0.5442492580D+00  0.1143456438D+01  0.7443082909D+00
 SP   1 1.00       0.000000000000
      0.1687144782D+00  0.1000000000D+01  0.1000000000D+01
 D   1 1.00       0.000000000000
      0.8000000000D+00  0.1000000000D+01
 ****
     29 0
 S   6 1.00       0.000000000000
      0.3047524880D+04  0.1834737132D-02
      0.4573695180D+03  0.1403732281D-01
      0.1039486850D+03  0.6884262226D-01
      0.2921015530D+02  0.2321844432D+00
      0.9286662960D+01  0.4679413484D+00
      0.3163926960D+01  0.3623119853D+00
 SP   3 1.00       0.000000000000
      0.7868272350D+01 -0.1193324198D+00  0.6899906659D-01
      0.1881288540D+01 -0.1608541517D+00  0.3164239610D+00
      0.5442492580D+00  0.1143456438D+01  0.7443082909D+00
 SP   1 1.00       0.000000000000
      0.1687144782D+00  0.1000000000D+01  0.1000000000D+01
 D   1 1.00       0.000000000000
      0.8000000000D+00  0.1000000000D+01
 ****
     30 0
 S   3 1.00       0.000000000000
      0.1873113696D+02  0.3349460434D-01
      0.2825394365D+01  0.2347269535D+00
      0.6401216923D+00  0.8137573261D+00
 S   1 1.00       0.000000000000
      0.1612777588D+00  0.1000000000D+01
 ****
     31 0
 S   6 1.00       0.000000000000
      0.3047524880D+04  0.1834737132D-02
      0.4573695180D+03  0.1403732281D-01
      0.1039486850D+03  0.6884262226D-01
      0.2921015530D+02  0.2321844432D+00
      0.9286662960D+01  0.4679413484D+00
      0.3163926960D+01  0.3623119853D+00
 SP   3 1.00       0.000000000000
      0.7868272350D+01 -0.1193324198D+00  0.6899906659D-01
      0.1881288540D+01 -0.1608541517D+00  0.3164239610D+00
      0.5442492580D+00  0.1143456438D+01  0.7443082909D+00
 SP   1 1.00       0.000000000000
      0.1687144782D+00  0.1000000000D+01  0.1000000000D+01
 D   1 1.00       0.000000000000
      0.8000000000D+00  0.1000000000D+01
 ****
     32 0
 S   3 1.00       0.000000000000
      0.1873113696D+02  0.3349460434D-01
      0.2825394365D+01  0.2347269535D+00
      0.6401216923D+00  0.8137573261D+00
 S   1 1.00       0.000000000000
      0.1612777588D+00  0.1000000000D+01
 ****
     33 0
 S   3 1.00       0.000000000000
      0.1873113696D+02  0.3349460434D-01
      0.2825394365D+01  0.2347269535D+00
      0.6401216923D+00  0.8137573261D+00
 S   1 1.00       0.000000000000
      0.1612777588D+00  0.1000000000D+01
 ****
     34 0
 S   6 1.00       0.000000000000
      0.3047524880D+04  0.1834737132D-02
      0.4573695180D+03  0.1403732281D-01
      0.1039486850D+03  0.6884262226D-01
      0.2921015530D+02  0.2321844432D+00
      0.9286662960D+01  0.4679413484D+00
      0.3163926960D+01  0.3623119853D+00
 SP   3 1.00       0.000000000000
      0.7868272350D+01 -0.1193324198D+00  0.6899906659D-01
      0.1881288540D+01 -0.1608541517D+00  0.3164239610D+00
      0.5442492580D+00  0.1143456438D+01  0.7443082909D+00
 SP   1 1.00       0.000000000000
      0.1687144782D+00  0.1000000000D+01  0.1000000000D+01
 D   1 1.00       0.000000000000
      0.8000000000D+00  0.1000000000D+01
 ****
     35 0
 S   3 1.00       0.000000000000
      0.1873113696D+02  0.3349460434D-01
      0.2825394365D+01  0.2347269535D+00
      0.6401216923D+00  0.8137573261D+00
 S   1 1.00       0.000000000000
      0.1612777588D+00  0.1000000000D+01
 ****
     36 0
 S   3 1.00       0.000000000000
      0.1873113696D+02  0.3349460434D-01
      0.2825394365D+01  0.2347269535D+00
      0.6401216923D+00  0.8137573261D+00
 S   1 1.00       0.000000000000
      0.1612777588D+00  0.1000000000D+01
 ****
     37 0
 S   6 1.00       0.000000000000
      0.3047524880D+04  0.1834737132D-02
      0.4573695180D+03  0.1403732281D-01
      0.1039486850D+03  0.6884262226D-01
      0.2921015530D+02  0.2321844432D+00
      0.9286662960D+01  0.4679413484D+00
      0.3163926960D+01  0.3623119853D+00
 SP   3 1.00       0.000000000000
      0.7868272350D+01 -0.1193324198D+00  0.6899906659D-01
      0.1881288540D+01 -0.1608541517D+00  0.3164239610D+00
      0.5442492580D+00  0.1143456438D+01  0.7443082909D+00
 SP   1 1.00       0.000000000000
      0.1687144782D+00  0.1000000000D+01  0.1000000000D+01
 D   1 1.00       0.000000000000
      0.8000000000D+00  0.1000000000D+01
 ****
     38 0
 S   3 1.00       0.000000000000
      0.1873113696D+02  0.3349460434D-01
      0.2825394365D+01  0.2347269535D+00
      0.6401216923D+00  0.8137573261D+00
 S   1 1.00       0.000000000000
      0.1612777588D+00  0.1000000000D+01
 ****
     39 0
 S   6 1.00       0.000000000000
      0.3047524880D+04  0.1834737132D-02
      0.4573695180D+03  0.1403732281D-01
      0.1039486850D+03  0.6884262226D-01
      0.2921015530D+02  0.2321844432D+00
      0.9286662960D+01  0.4679413484D+00
      0.3163926960D+01  0.3623119853D+00
 SP   3 1.00       0.000000000000
      0.7868272350D+01 -0.1193324198D+00  0.6899906659D-01
      0.1881288540D+01 -0.1608541517D+00  0.3164239610D+00
      0.5442492580D+00  0.1143456438D+01  0.7443082909D+00
 SP   1 1.00       0.000000000000
      0.1687144782D+00  0.1000000000D+01  0.1000000000D+01
 D   1 1.00       0.000000000000
      0.8000000000D+00  0.1000000000D+01
 ****
     40 0
 S   3 1.00       0.000000000000
      0.1873113696D+02  0.3349460434D-01
      0.2825394365D+01  0.2347269535D+00
      0.6401216923D+00  0.8137573261D+00
 S   1 1.00       0.000000000000
      0.1612777588D+00  0.1000000000D+01
 ****
     41 0
 S   3 1.00       0.000000000000
      0.1873113696D+02  0.3349460434D-01
      0.2825394365D+01  0.2347269535D+00
      0.6401216923D+00  0.8137573261D+00
 S   1 1.00       0.000000000000
      0.1612777588D+00  0.1000000000D+01
 ****
     42 0
 S   3 1.00       0.000000000000
      0.1873113696D+02  0.3349460434D-01
      0.2825394365D+01  0.2347269535D+00
      0.6401216923D+00  0.8137573261D+00
 S   1 1.00       0.000000000000
      0.1612777588D+00  0.1000000000D+01
 ****
     43 0
 S   6 1.00       0.000000000000
      0.3047524880D+04  0.1834737132D-02
      0.4573695180D+03  0.1403732281D-01
      0.1039486850D+03  0.6884262226D-01
      0.2921015530D+02  0.2321844432D+00
      0.9286662960D+01  0.4679413484D+00
      0.3163926960D+01  0.3623119853D+00
 SP   3 1.00       0.000000000000
      0.7868272350D+01 -0.1193324198D+00  0.6899906659D-01
      0.1881288540D+01 -0.1608541517D+00  0.3164239610D+00
      0.5442492580D+00  0.1143456438D+01  0.7443082909D+00
 SP   1 1.00       0.000000000000
      0.1687144782D+00  0.1000000000D+01  0.1000000000D+01
 D   1 1.00       0.000000000000
      0.8000000000D+00  0.1000000000D+01
 ****
     44 0
 S   3 1.00       0.000000000000
      0.1873113696D+02  0.3349460434D-01
      0.2825394365D+01  0.2347269535D+00
      0.6401216923D+00  0.8137573261D+00
 S   1 1.00       0.000000000000
      0.1612777588D+00  0.1000000000D+01
 ****
     45 0
 S   6 1.00       0.000000000000
      0.3047524880D+04  0.1834737132D-02
      0.4573695180D+03  0.1403732281D-01
      0.1039486850D+03  0.6884262226D-01
      0.2921015530D+02  0.2321844432D+00
      0.9286662960D+01  0.4679413484D+00
      0.3163926960D+01  0.3623119853D+00
 SP   3 1.00       0.000000000000
      0.7868272350D+01 -0.1193324198D+00  0.6899906659D-01
      0.1881288540D+01 -0.1608541517D+00  0.3164239610D+00
      0.5442492580D+00  0.1143456438D+01  0.7443082909D+00
 SP   1 1.00       0.000000000000
      0.1687144782D+00  0.1000000000D+01  0.1000000000D+01
 D   1 1.00       0.000000000000
      0.8000000000D+00  0.1000000000D+01
 ****
     46 0
 S   3 1.00       0.000000000000
      0.1873113696D+02  0.3349460434D-01
      0.2825394365D+01  0.2347269535D+00
      0.6401216923D+00  0.8137573261D+00
 S   1 1.00       0.000000000000
      0.1612777588D+00  0.1000000000D+01
 ****
     47 0
 S   3 1.00       0.000000000000
      0.1873113696D+02  0.3349460434D-01
      0.2825394365D+01  0.2347269535D+00
      0.6401216923D+00  0.8137573261D+00
 S   1 1.00       0.000000000000
      0.1612777588D+00  0.1000000000D+01
 ****
     48 0
 S   3 1.00       0.000000000000
      0.1873113696D+02  0.3349460434D-01
      0.2825394365D+01  0.2347269535D+00
      0.6401216923D+00  0.8137573261D+00
 S   1 1.00       0.000000000000
      0.1612777588D+00  0.1000000000D+01
 ****
     49 0
 S   6 1.00       0.000000000000
      0.3047524880D+04  0.1834737132D-02
      0.4573695180D+03  0.1403732281D-01
      0.1039486850D+03  0.6884262226D-01
      0.2921015530D+02  0.2321844432D+00
      0.9286662960D+01  0.4679413484D+00
      0.3163926960D+01  0.3623119853D+00
 SP   3 1.00       0.000000000000
      0.7868272350D+01 -0.1193324198D+00  0.6899906659D-01
      0.1881288540D+01 -0.1608541517D+00  0.3164239610D+00
      0.5442492580D+00  0.1143456438D+01  0.7443082909D+00
 SP   1 1.00       0.000000000000
      0.1687144782D+00  0.1000000000D+01  0.1000000000D+01
 D   1 1.00       0.000000000000
      0.8000000000D+00  0.1000000000D+01
 ****
     50 0
 S   3 1.00       0.000000000000
      0.1873113696D+02  0.3349460434D-01
      0.2825394365D+01  0.2347269535D+00
      0.6401216923D+00  0.8137573261D+00
 S   1 1.00       0.000000000000
      0.1612777588D+00  0.1000000000D+01
 ****
     51 0
 S   3 1.00       0.000000000000
      0.1873113696D+02  0.3349460434D-01
      0.2825394365D+01  0.2347269535D+00
      0.6401216923D+00  0.8137573261D+00
 S   1 1.00       0.000000000000
      0.1612777588D+00  0.1000000000D+01
 ****
     52 0
 S   3 1.00       0.000000000000
      0.1873113696D+02  0.3349460434D-01
      0.2825394365D+01  0.2347269535D+00
      0.6401216923D+00  0.8137573261D+00
 S   1 1.00       0.000000000000
      0.1612777588D+00  0.1000000000D+01
 ****
     53 0
 S   6 1.00       0.000000000000
      0.5484671660D+04  0.1831074430D-02
      0.8252349460D+03  0.1395017220D-01
      0.1880469580D+03  0.6844507810D-01
      0.5296450000D+02  0.2327143360D+00
      0.1689757040D+02  0.4701928980D+00
      0.5799635340D+01  0.3585208530D+00
 SP   3 1.00       0.000000000000
      0.1553961625D+02 -0.1107775495D+00  0.7087426823D-01
      0.3599933586D+01 -0.1480262627D+00  0.3397528391D+00
      0.1013761750D+01  0.1130767015D+01  0.7271585773D+00
 SP   1 1.00       0.000000000000
      0.2700058226D+00  0.1000000000D+01  0.1000000000D+01
 D   1 1.00       0.000000000000
      0.8000000000D+00  0.1000000000D+01
 ****
     54 0
 S   6 1.00       0.000000000000
      0.5484671660D+04  0.1831074430D-02
      0.8252349460D+03  0.1395017220D-01
      0.1880469580D+03  0.6844507810D-01
      0.5296450000D+02  0.2327143360D+00
      0.1689757040D+02  0.4701928980D+00
      0.5799635340D+01  0.3585208530D+00
 SP   3 1.00       0.000000000000
      0.1553961625D+02 -0.1107775495D+00  0.7087426823D-01
      0.3599933586D+01 -0.1480262627D+00  0.3397528391D+00
      0.1013761750D+01  0.1130767015D+01  0.7271585773D+00
 SP   1 1.00       0.000000000000
      0.2700058226D+00  0.1000000000D+01  0.1000000000D+01
 D   1 1.00       0.000000000000
      0.8000000000D+00  0.1000000000D+01
 ****
     55 0
 S   3 1.00       0.000000000000
      0.1873113696D+02  0.3349460434D-01
      0.2825394365D+01  0.2347269535D+00
      0.6401216923D+00  0.8137573261D+00
 S   1 1.00       0.000000000000
      0.1612777588D+00  0.1000000000D+01
 ****
     56 0
 S   6 1.00       0.000000000000
      0.5484671660D+04  0.1831074430D-02
      0.8252349460D+03  0.1395017220D-01
      0.1880469580D+03  0.6844507810D-01
      0.5296450000D+02  0.2327143360D+00
      0.1689757040D+02  0.4701928980D+00
      0.5799635340D+01  0.3585208530D+00
 SP   3 1.00       0.000000000000
      0.1553961625D+02 -0.1107775495D+00  0.7087426823D-01
      0.3599933586D+01 -0.1480262627D+00  0.3397528391D+00
      0.1013761750D+01  0.1130767015D+01  0.7271585773D+00
 SP   1 1.00       0.000000000000
      0.2700058226D+00  0.1000000000D+01  0.1000000000D+01
 D   1 1.00       0.000000000000
      0.8000000000D+00  0.1000000000D+01
 ****
     57 0
 S   3 1.00       0.000000000000
      0.1873113696D+02  0.3349460434D-01
      0.2825394365D+01  0.2347269535D+00
      0.6401216923D+00  0.8137573261D+00
 S   1 1.00       0.000000000000
      0.1612777588D+00  0.1000000000D+01
 ****
     58 0
 S   6 1.00       0.000000000000
      0.3047524880D+04  0.1834737132D-02
      0.4573695180D+03  0.1403732281D-01
      0.1039486850D+03  0.6884262226D-01
      0.2921015530D+02  0.2321844432D+00
      0.9286662960D+01  0.4679413484D+00
      0.3163926960D+01  0.3623119853D+00
 SP   3 1.00       0.000000000000
      0.7868272350D+01 -0.1193324198D+00  0.6899906659D-01
      0.1881288540D+01 -0.1608541517D+00  0.3164239610D+00
      0.5442492580D+00  0.1143456438D+01  0.7443082909D+00
 SP   1 1.00       0.000000000000
      0.1687144782D+00  0.1000000000D+01  0.1000000000D+01
 D   1 1.00       0.000000000000
      0.8000000000D+00  0.1000000000D+01
 ****
     59 0
 S   3 1.00       0.000000000000
      0.1873113696D+02  0.3349460434D-01
      0.2825394365D+01  0.2347269535D+00
      0.6401216923D+00  0.8137573261D+00
 S   1 1.00       0.000000000000
      0.1612777588D+00  0.1000000000D+01
 ****
     60 0
 S   3 1.00       0.000000000000
      0.1873113696D+02  0.3349460434D-01
      0.2825394365D+01  0.2347269535D+00
      0.6401216923D+00  0.8137573261D+00
 S   1 1.00       0.000000000000
      0.1612777588D+00  0.1000000000D+01
 ****
     61 0
 S   6 1.00       0.000000000000
      0.3047524880D+04  0.1834737132D-02
      0.4573695180D+03  0.1403732281D-01
      0.1039486850D+03  0.6884262226D-01
      0.2921015530D+02  0.2321844432D+00
      0.9286662960D+01  0.4679413484D+00
      0.3163926960D+01  0.3623119853D+00
 SP   3 1.00       0.000000000000
      0.7868272350D+01 -0.1193324198D+00  0.6899906659D-01
      0.1881288540D+01 -0.1608541517D+00  0.3164239610D+00
      0.5442492580D+00  0.1143456438D+01  0.7443082909D+00
 SP   1 1.00       0.000000000000
      0.1687144782D+00  0.1000000000D+01  0.1000000000D+01
 D   1 1.00       0.000000000000
      0.8000000000D+00  0.1000000000D+01
 ****
     62 0
 S   3 1.00       0.000000000000
      0.1873113696D+02  0.3349460434D-01
      0.2825394365D+01  0.2347269535D+00
      0.6401216923D+00  0.8137573261D+00
 S   1 1.00       0.000000000000
      0.1612777588D+00  0.1000000000D+01
 ****
     63 0
 S   3 1.00       0.000000000000
      0.1873113696D+02  0.3349460434D-01
      0.2825394365D+01  0.2347269535D+00
      0.6401216923D+00  0.8137573261D+00
 S   1 1.00       0.000000000000
      0.1612777588D+00  0.1000000000D+01
 ****
     64 0
 S   6 1.00       0.000000000000
      0.3047524880D+04  0.1834737132D-02
      0.4573695180D+03  0.1403732281D-01
      0.1039486850D+03  0.6884262226D-01
      0.2921015530D+02  0.2321844432D+00
      0.9286662960D+01  0.4679413484D+00
      0.3163926960D+01  0.3623119853D+00
 SP   3 1.00       0.000000000000
      0.7868272350D+01 -0.1193324198D+00  0.6899906659D-01
      0.1881288540D+01 -0.1608541517D+00  0.3164239610D+00
      0.5442492580D+00  0.1143456438D+01  0.7443082909D+00
 SP   1 1.00       0.000000000000
      0.1687144782D+00  0.1000000000D+01  0.1000000000D+01
 D   1 1.00       0.000000000000
      0.8000000000D+00  0.1000000000D+01
 ****
     65 0
 S   3 1.00       0.000000000000
      0.1873113696D+02  0.3349460434D-01
      0.2825394365D+01  0.2347269535D+00
      0.6401216923D+00  0.8137573261D+00
 S   1 1.00       0.000000000000
      0.1612777588D+00  0.1000000000D+01
 ****
     66 0
 S   3 1.00       0.000000000000
      0.1873113696D+02  0.3349460434D-01
      0.2825394365D+01  0.2347269535D+00
      0.6401216923D+00  0.8137573261D+00
 S   1 1.00       0.000000000000
      0.1612777588D+00  0.1000000000D+01
 ****
     67 0
 S   6 1.00       0.000000000000
      0.3047524880D+04  0.1834737132D-02
      0.4573695180D+03  0.1403732281D-01
      0.1039486850D+03  0.6884262226D-01
      0.2921015530D+02  0.2321844432D+00
      0.9286662960D+01  0.4679413484D+00
      0.3163926960D+01  0.3623119853D+00
 SP   3 1.00       0.000000000000
      0.7868272350D+01 -0.1193324198D+00  0.6899906659D-01
      0.1881288540D+01 -0.1608541517D+00  0.3164239610D+00
      0.5442492580D+00  0.1143456438D+01  0.7443082909D+00
 SP   1 1.00       0.000000000000
      0.1687144782D+00  0.1000000000D+01  0.1000000000D+01
 D   1 1.00       0.000000000000
      0.8000000000D+00  0.1000000000D+01
 ****
     68 0
 S   3 1.00       0.000000000000
      0.1873113696D+02  0.3349460434D-01
      0.2825394365D+01  0.2347269535D+00
      0.6401216923D+00  0.8137573261D+00
 S   1 1.00       0.000000000000
      0.1612777588D+00  0.1000000000D+01
 ****
     69 0
 S   6 1.00       0.000000000000
      0.3047524880D+04  0.1834737132D-02
      0.4573695180D+03  0.1403732281D-01
      0.1039486850D+03  0.6884262226D-01
      0.2921015530D+02  0.2321844432D+00
      0.9286662960D+01  0.4679413484D+00
      0.3163926960D+01  0.3623119853D+00
 SP   3 1.00       0.000000000000
      0.7868272350D+01 -0.1193324198D+00  0.6899906659D-01
      0.1881288540D+01 -0.1608541517D+00  0.3164239610D+00
      0.5442492580D+00  0.1143456438D+01  0.7443082909D+00
 SP   1 1.00       0.000000000000
      0.1687144782D+00  0.1000000000D+01  0.1000000000D+01
 D   1 1.00       0.000000000000
      0.8000000000D+00  0.1000000000D+01
 ****
     70 0
 S   3 1.00       0.000000000000
      0.1873113696D+02  0.3349460434D-01
      0.2825394365D+01  0.2347269535D+00
      0.6401216923D+00  0.8137573261D+00
 S   1 1.00       0.000000000000
      0.1612777588D+00  0.1000000000D+01
 ****
     71 0
 S   3 1.00       0.000000000000
      0.1873113696D+02  0.3349460434D-01
      0.2825394365D+01  0.2347269535D+00
      0.6401216923D+00  0.8137573261D+00
 S   1 1.00       0.000000000000
      0.1612777588D+00  0.1000000000D+01
 ****
     72 0
 S   3 1.00       0.000000000000
      0.1873113696D+02  0.3349460434D-01
      0.2825394365D+01  0.2347269535D+00
      0.6401216923D+00  0.8137573261D+00
 S   1 1.00       0.000000000000
      0.1612777588D+00  0.1000000000D+01
 ****
     73 0
 S   6 1.00       0.000000000000
      0.3047524880D+04  0.1834737132D-02
      0.4573695180D+03  0.1403732281D-01
      0.1039486850D+03  0.6884262226D-01
      0.2921015530D+02  0.2321844432D+00
      0.9286662960D+01  0.4679413484D+00
      0.3163926960D+01  0.3623119853D+00
 SP   3 1.00       0.000000000000
      0.7868272350D+01 -0.1193324198D+00  0.6899906659D-01
      0.1881288540D+01 -0.1608541517D+00  0.3164239610D+00
      0.5442492580D+00  0.1143456438D+01  0.7443082909D+00
 SP   1 1.00       0.000000000000
      0.1687144782D+00  0.1000000000D+01  0.1000000000D+01
 D   1 1.00       0.000000000000
      0.8000000000D+00  0.1000000000D+01
 ****
     74 0
 S   3 1.00       0.000000000000
      0.1873113696D+02  0.3349460434D-01
      0.2825394365D+01  0.2347269535D+00
      0.6401216923D+00  0.8137573261D+00
 S   1 1.00       0.000000000000
      0.1612777588D+00  0.1000000000D+01
 ****
     75 0
 S   3 1.00       0.000000000000
      0.1873113696D+02  0.3349460434D-01
      0.2825394365D+01  0.2347269535D+00
      0.6401216923D+00  0.8137573261D+00
 S   1 1.00       0.000000000000
      0.1612777588D+00  0.1000000000D+01
 ****
     76 0
 S   3 1.00       0.000000000000
      0.1873113696D+02  0.3349460434D-01
      0.2825394365D+01  0.2347269535D+00
      0.6401216923D+00  0.8137573261D+00
 S   1 1.00       0.000000000000
      0.1612777588D+00  0.1000000000D+01
 ****

 AO basis set (Overlap normalization):
 Atom C1       Shell     1 S   6     bf    1 -     1         -1.910447376775          3.748125652057          3.182010227702
      0.3047524880D+04  0.1834737132D-02
      0.4573695180D+03  0.1403732281D-01
      0.1039486850D+03  0.6884262226D-01
      0.2921015530D+02  0.2321844432D+00
      0.9286662960D+01  0.4679413484D+00
      0.3163926960D+01  0.3623119853D+00
 Atom C1       Shell     2 SP   3    bf    2 -     5         -1.910447376775          3.748125652057          3.182010227702
      0.7868272350D+01 -0.1193324198D+00  0.6899906659D-01
      0.1881288540D+01 -0.1608541517D+00  0.3164239610D+00
      0.5442492580D+00  0.1143456438D+01  0.7443082909D+00
 Atom C1       Shell     3 SP   1    bf    6 -     9         -1.910447376775          3.748125652057          3.182010227702
      0.1687144782D+00  0.1000000000D+01  0.1000000000D+01
 Atom C1       Shell     4 D   1     bf   10 -    15         -1.910447376775          3.748125652057          3.182010227702
      0.8000000000D+00  0.1000000000D+01
 Atom H2       Shell     5 S   3     bf   16 -    16         -1.874964971836          1.901469193432          4.123002057880
      0.1873113696D+02  0.3349460434D-01
      0.2825394365D+01  0.2347269535D+00
      0.6401216923D+00  0.8137573261D+00
 Atom H2       Shell     6 S   1     bf   17 -    17         -1.874964971836          1.901469193432          4.123002057880
      0.1612777588D+00  0.1000000000D+01
 Atom C3       Shell     7 S   6     bf   18 -    18          0.597410933177          5.114870852454          3.688209447267
      0.3047524880D+04  0.1834737132D-02
      0.4573695180D+03  0.1403732281D-01
      0.1039486850D+03  0.6884262226D-01
      0.2921015530D+02  0.2321844432D+00
      0.9286662960D+01  0.4679413484D+00
      0.3163926960D+01  0.3623119853D+00
 Atom C3       Shell     8 SP   3    bf   19 -    22          0.597410933177          5.114870852454          3.688209447267
      0.7868272350D+01 -0.1193324198D+00  0.6899906659D-01
      0.1881288540D+01 -0.1608541517D+00  0.3164239610D+00
      0.5442492580D+00  0.1143456438D+01  0.7443082909D+00
 Atom C3       Shell     9 SP   1    bf   23 -    26          0.597410933177          5.114870852454          3.688209447267
      0.1687144782D+00  0.1000000000D+01  0.1000000000D+01
 Atom C3       Shell    10 D   1     bf   27 -    32          0.597410933177          5.114870852454          3.688209447267
      0.8000000000D+00  0.1000000000D+01
 Atom H4       Shell    11 S   3     bf   33 -    33          0.898170862775          5.299274882741          5.725720440745
      0.1873113696D+02  0.3349460434D-01
      0.2825394365D+01  0.2347269535D+00
      0.6401216923D+00  0.8137573261D+00
 Atom H4       Shell    12 S   1     bf   34 -    34          0.898170862775          5.299274882741          5.725720440745
      0.1612777588D+00  0.1000000000D+01
 Atom H5       Shell    13 S   3     bf   35 -    35          0.424499461340          7.048736301283          2.933512393960
      0.1873113696D+02  0.3349460434D-01
      0.2825394365D+01  0.2347269535D+00
      0.6401216923D+00  0.8137573261D+00
 Atom H5       Shell    14 S   1     bf   36 -    36          0.424499461340          7.048736301283          2.933512393960
      0.1612777588D+00  0.1000000000D+01
 Atom C6       Shell    15 S   6     bf   37 -    37          2.839889314213          3.807464658897          2.470685941830
      0.3047524880D+04  0.1834737132D-02
      0.4573695180D+03  0.1403732281D-01
      0.1039486850D+03  0.6884262226D-01
      0.2921015530D+02  0.2321844432D+00
      0.9286662960D+01  0.4679413484D+00
      0.3163926960D+01  0.3623119853D+00
 Atom C6       Shell    16 SP   3    bf   38 -    41          2.839889314213          3.807464658897          2.470685941830
      0.7868272350D+01 -0.1193324198D+00  0.6899906659D-01
      0.1881288540D+01 -0.1608541517D+00  0.3164239610D+00
      0.5442492580D+00  0.1143456438D+01  0.7443082909D+00
 Atom C6       Shell    17 SP   1    bf   42 -    45          2.839889314213          3.807464658897          2.470685941830
      0.1687144782D+00  0.1000000000D+01  0.1000000000D+01
 Atom C6       Shell    18 D   1     bf   46 -    51          2.839889314213          3.807464658897          2.470685941830
      0.8000000000D+00  0.1000000000D+01
 Atom C7       Shell    19 S   6     bf   52 -    52          2.619014117582          3.141436371437         -0.337827493509
      0.3047524880D+04  0.1834737132D-02
      0.4573695180D+03  0.1403732281D-01
      0.1039486850D+03  0.6884262226D-01
      0.2921015530D+02  0.2321844432D+00
      0.9286662960D+01  0.4679413484D+00
      0.3163926960D+01  0.3623119853D+00
 Atom C7       Shell    20 SP   3    bf   53 -    56          2.619014117582          3.141436371437         -0.337827493509
      0.7868272350D+01 -0.1193324198D+00  0.6899906659D-01
      0.1881288540D+01 -0.1608541517D+00  0.3164239610D+00
      0.5442492580D+00  0.1143456438D+01  0.7443082909D+00
 Atom C7       Shell    21 SP   1    bf   57 -    60          2.619014117582          3.141436371437         -0.337827493509
      0.1687144782D+00  0.1000000000D+01  0.1000000000D+01
 Atom C7       Shell    22 D   1     bf   61 -    66          2.619014117582          3.141436371437         -0.337827493509
      0.8000000000D+00  0.1000000000D+01
 Atom C8       Shell    23 S   6     bf   67 -    67         -0.021461203951          1.914215112739         -0.805003395999
      0.3047524880D+04  0.1834737132D-02
      0.4573695180D+03  0.1403732281D-01
      0.1039486850D+03  0.6884262226D-01
      0.2921015530D+02  0.2321844432D+00
      0.9286662960D+01  0.4679413484D+00
      0.3163926960D+01  0.3623119853D+00
 Atom C8       Shell    24 SP   3    bf   68 -    71         -0.021461203951          1.914215112739         -0.805003395999
      0.7868272350D+01 -0.1193324198D+00  0.6899906659D-01
      0.1881288540D+01 -0.1608541517D+00  0.3164239610D+00
      0.5442492580D+00  0.1143456438D+01  0.7443082909D+00
 Atom C8       Shell    25 SP   1    bf   72 -    75         -0.021461203951          1.914215112739         -0.805003395999
      0.1687144782D+00  0.1000000000D+01  0.1000000000D+01
 Atom C8       Shell    26 D   1     bf   76 -    81         -0.021461203951          1.914215112739         -0.805003395999
      0.8000000000D+00  0.1000000000D+01
 Atom H9       Shell    27 S   3     bf   82 -    82          0.000000000000          0.000000000000          0.000000000000
      0.1873113696D+02  0.3349460434D-01
      0.2825394365D+01  0.2347269535D+00
      0.6401216923D+00  0.8137573261D+00
 Atom H9       Shell    28 S   1     bf   83 -    83          0.000000000000          0.000000000000          0.000000000000
      0.1612777588D+00  0.1000000000D+01
 Atom H10      Shell    29 S   3     bf   84 -    84         -0.330270119656          1.691573475708         -2.839261755062
      0.1873113696D+02  0.3349460434D-01
      0.2825394365D+01  0.2347269535D+00
      0.6401216923D+00  0.8137573261D+00
 Atom H10      Shell    30 S   1     bf   85 -    85         -0.330270119656          1.691573475708         -2.839261755062
      0.1612777588D+00  0.1000000000D+01
 Atom C11      Shell    31 S   6     bf   86 -    86         -2.264547018555          3.357419312774          0.342300172909
      0.3047524880D+04  0.1834737132D-02
      0.4573695180D+03  0.1403732281D-01
      0.1039486850D+03  0.6884262226D-01
      0.2921015530D+02  0.2321844432D+00
      0.9286662960D+01  0.4679413484D+00
      0.3163926960D+01  0.3623119853D+00
 Atom C11      Shell    32 SP   3    bf   87 -    90         -2.264547018555          3.357419312774          0.342300172909
      0.7868272350D+01 -0.1193324198D+00  0.6899906659D-01
      0.1881288540D+01 -0.1608541517D+00  0.3164239610D+00
      0.5442492580D+00  0.1143456438D+01  0.7443082909D+00
 Atom C11      Shell    33 SP   1    bf   91 -    94         -2.264547018555          3.357419312774          0.342300172909
      0.1687144782D+00  0.1000000000D+01  0.1000000000D+01
 Atom C11      Shell    34 D   1     bf   95 -   100         -2.264547018555          3.357419312774          0.342300172909
      0.8000000000D+00  0.1000000000D+01
 Atom H12      Shell    35 S   3     bf  101 -   101         -2.482135565702          5.210934173351         -0.573611117548
      0.1873113696D+02  0.3349460434D-01
      0.2825394365D+01  0.2347269535D+00
      0.6401216923D+00  0.8137573261D+00
 Atom H12      Shell    36 S   1     bf  102 -   102         -2.482135565702          5.210934173351         -0.573611117548
      0.1612777588D+00  0.1000000000D+01
 Atom H13      Shell    37 S   3     bf  103 -   103         -4.022859574153          2.318001134759          0.000000000000
      0.1873113696D+02  0.3349460434D-01
      0.2825394365D+01  0.2347269535D+00
      0.6401216923D+00  0.8137573261D+00
 Atom H13      Shell    38 S   1     bf  104 -   104         -4.022859574153          2.318001134759          0.000000000000
      0.1612777588D+00  0.1000000000D+01
 Atom C14      Shell    39 S   6     bf  105 -   105          4.912730022759          3.309070726356          3.835334245418
      0.3047524880D+04  0.1834737132D-02
      0.4573695180D+03  0.1403732281D-01
      0.1039486850D+03  0.6884262226D-01
      0.2921015530D+02  0.2321844432D+00
      0.9286662960D+01  0.4679413484D+00
      0.3163926960D+01  0.3623119853D+00
 Atom C14      Shell    40 SP   3    bf  106 -   109          4.912730022759          3.309070726356          3.835334245418
      0.7868272350D+01 -0.1193324198D+00  0.6899906659D-01
      0.1881288540D+01 -0.1608541517D+00  0.3164239610D+00
      0.5442492580D+00  0.1143456438D+01  0.7443082909D+00
 Atom C14      Shell    41 SP   1    bf  110 -   113          4.912730022759          3.309070726356          3.835334245418
      0.1687144782D+00  0.1000000000D+01  0.1000000000D+01
 Atom C14      Shell    42 D   1     bf  114 -   119          4.912730022759          3.309070726356          3.835334245418
      0.8000000000D+00  0.1000000000D+01
 Atom H15      Shell    43 S   3     bf  120 -   120          4.964943099119          3.806311982647          5.829088554700
      0.1873113696D+02  0.3349460434D-01
      0.2825394365D+01  0.2347269535D+00
      0.6401216923D+00  0.8137573261D+00
 Atom H15      Shell    44 S   1     bf  121 -   121          4.964943099119          3.806311982647          5.829088554700
      0.1612777588D+00  0.1000000000D+01
 Atom C16      Shell    45 S   6     bf  122 -   122          7.301827038802          2.157374621333          2.833578195847
      0.3047524880D+04  0.1834737132D-02
      0.4573695180D+03  0.1403732281D-01
      0.1039486850D+03  0.6884262226D-01
      0.2921015530D+02  0.2321844432D+00
      0.9286662960D+01  0.4679413484D+00
      0.3163926960D+01  0.3623119853D+00
 Atom C16      Shell    46 SP   3    bf  123 -   126          7.301827038802          2.157374621333          2.833578195847
      0.7868272350D+01 -0.1193324198D+00  0.6899906659D-01
      0.1881288540D+01 -0.1608541517D+00  0.3164239610D+00
      0.5442492580D+00  0.1143456438D+01  0.7443082909D+00
 Atom C16      Shell    47 SP   1    bf  127 -   130          7.301827038802          2.157374621333          2.833578195847
      0.1687144782D+00  0.1000000000D+01  0.1000000000D+01
 Atom C16      Shell    48 D   1     bf  131 -   136          7.301827038802          2.157374621333          2.833578195847
      0.8000000000D+00  0.1000000000D+01
 Atom H17      Shell    49 S   3     bf  137 -   137          7.644441964496          0.316911532239          3.741925517307
      0.1873113696D+02  0.3349460434D-01
      0.2825394365D+01  0.2347269535D+00
      0.6401216923D+00  0.8137573261D+00
 Atom H17      Shell    50 S   1     bf  138 -   138          7.644441964496          0.316911532239          3.741925517307
      0.1612777588D+00  0.1000000000D+01
 Atom C18      Shell    51 S   6     bf  139 -   139          7.381116489139          1.874072095135         -0.057042082520
      0.3047524880D+04  0.1834737132D-02
      0.4573695180D+03  0.1403732281D-01
      0.1039486850D+03  0.6884262226D-01
      0.2921015530D+02  0.2321844432D+00
      0.9286662960D+01  0.4679413484D+00
      0.3163926960D+01  0.3623119853D+00
 Atom C18      Shell    52 SP   3    bf  140 -   143          7.381116489139          1.874072095135         -0.057042082520
      0.7868272350D+01 -0.1193324198D+00  0.6899906659D-01
      0.1881288540D+01 -0.1608541517D+00  0.3164239610D+00
      0.5442492580D+00  0.1143456438D+01  0.7443082909D+00
 Atom C18      Shell    53 SP   1    bf  144 -   147          7.381116489139          1.874072095135         -0.057042082520
      0.1687144782D+00  0.1000000000D+01  0.1000000000D+01
 Atom C18      Shell    54 D   1     bf  148 -   153          7.381116489139          1.874072095135         -0.057042082520
      0.8000000000D+00  0.1000000000D+01
 Atom H19      Shell    55 S   3     bf  154 -   154          7.952949809032          3.715142031983         -0.824196437262
      0.1873113696D+02  0.3349460434D-01
      0.2825394365D+01  0.2347269535D+00
      0.6401216923D+00  0.8137573261D+00
 Atom H19      Shell    56 S   1     bf  155 -   155          7.952949809032          3.715142031983         -0.824196437262
      0.1612777588D+00  0.1000000000D+01
 Atom C20      Shell    57 S   6     bf  156 -   156          4.712441767181          1.178427055960         -1.068715660500
      0.3047524880D+04  0.1834737132D-02
      0.4573695180D+03  0.1403732281D-01
      0.1039486850D+03  0.6884262226D-01
      0.2921015530D+02  0.2321844432D+00
      0.9286662960D+01  0.4679413484D+00
      0.3163926960D+01  0.3623119853D+00
 Atom C20      Shell    58 SP   3    bf  157 -   160          4.712441767181          1.178427055960         -1.068715660500
      0.7868272350D+01 -0.1193324198D+00  0.6899906659D-01
      0.1881288540D+01 -0.1608541517D+00  0.3164239610D+00
      0.5442492580D+00  0.1143456438D+01  0.7443082909D+00
 Atom C20      Shell    59 SP   1    bf  161 -   164          4.712441767181          1.178427055960         -1.068715660500
      0.1687144782D+00  0.1000000000D+01  0.1000000000D+01
 Atom C20      Shell    60 D   1     bf  165 -   170          4.712441767181          1.178427055960         -1.068715660500
      0.8000000000D+00  0.1000000000D+01
 Atom H21      Shell    61 S   3     bf  171 -   171          4.183055721349         -0.587850052781         -0.099915187468
      0.1873113696D+02  0.3349460434D-01
      0.2825394365D+01  0.2347269535D+00
      0.6401216923D+00  0.8137573261D+00
 Atom H21      Shell    62 S   1     bf  172 -   172          4.183055721349         -0.587850052781         -0.099915187468
      0.1612777588D+00  0.1000000000D+01
 Atom C22      Shell    63 S   6     bf  173 -   173          4.794203432835          0.582667630039         -3.926929630127
      0.3047524880D+04  0.1834737132D-02
      0.4573695180D+03  0.1403732281D-01
      0.1039486850D+03  0.6884262226D-01
      0.2921015530D+02  0.2321844432D+00
      0.9286662960D+01  0.4679413484D+00
      0.3163926960D+01  0.3623119853D+00
 Atom C22      Shell    64 SP   3    bf  174 -   177          4.794203432835          0.582667630039         -3.926929630127
      0.7868272350D+01 -0.1193324198D+00  0.6899906659D-01
      0.1881288540D+01 -0.1608541517D+00  0.3164239610D+00
      0.5442492580D+00  0.1143456438D+01  0.7443082909D+00
 Atom C22      Shell    65 SP   1    bf  178 -   181          4.794203432835          0.582667630039         -3.926929630127
      0.1687144782D+00  0.1000000000D+01  0.1000000000D+01
 Atom C22      Shell    66 D   1     bf  182 -   187          4.794203432835          0.582667630039         -3.926929630127
      0.8000000000D+00  0.1000000000D+01
 Atom H23      Shell    67 S   3     bf  188 -   188          5.124668515535          2.325760350260         -4.993401656584
      0.1873113696D+02  0.3349460434D-01
      0.2825394365D+01  0.2347269535D+00
      0.6401216923D+00  0.8137573261D+00
 Atom H23      Shell    68 S   1     bf  189 -   189          5.124668515535          2.325760350260         -4.993401656584
      0.1612777588D+00  0.1000000000D+01
 Atom H24      Shell    69 S   3     bf  190 -   190          2.945926836407         -0.119244704752         -4.539984377637
      0.1873113696D+02  0.3349460434D-01
      0.2825394365D+01  0.2347269535D+00
      0.6401216923D+00  0.8137573261D+00
 Atom H24      Shell    70 S   1     bf  191 -   191          2.945926836407         -0.119244704752         -4.539984377637
      0.1612777588D+00  0.1000000000D+01
 Atom C25      Shell    71 S   6     bf  192 -   192          6.813741430035         -1.373860019288         -4.682639406566
      0.3047524880D+04  0.1834737132D-02
      0.4573695180D+03  0.1403732281D-01
      0.1039486850D+03  0.6884262226D-01
      0.2921015530D+02  0.2321844432D+00
      0.9286662960D+01  0.4679413484D+00
      0.3163926960D+01  0.3623119853D+00
 Atom C25      Shell    72 SP   3    bf  193 -   196          6.813741430035         -1.373860019288         -4.682639406566
      0.7868272350D+01 -0.1193324198D+00  0.6899906659D-01
      0.1881288540D+01 -0.1608541517D+00  0.3164239610D+00
      0.5442492580D+00  0.1143456438D+01  0.7443082909D+00
 Atom C25      Shell    73 SP   1    bf  197 -   200          6.813741430035         -1.373860019288         -4.682639406566
      0.1687144782D+00  0.1000000000D+01  0.1000000000D+01
 Atom C25      Shell    74 D   1     bf  201 -   206          6.813741430035         -1.373860019288         -4.682639406566
      0.8000000000D+00  0.1000000000D+01
 Atom H26      Shell    75 S   3     bf  207 -   207          6.337437734584         -3.214928954580         -3.844857010039
      0.1873113696D+02  0.3349460434D-01
      0.2825394365D+01  0.2347269535D+00
      0.6401216923D+00  0.8137573261D+00
 Atom H26      Shell    76 S   1     bf  208 -   208          6.337437734584         -3.214928954580         -3.844857010039
      0.1612777588D+00  0.1000000000D+01
 Atom H27      Shell    77 S   3     bf  209 -   209          6.742901927896         -1.627664581955         -6.733687925628
      0.1873113696D+02  0.3349460434D-01
      0.2825394365D+01  0.2347269535D+00
      0.6401216923D+00  0.8137573261D+00
 Atom H27      Shell    78 S   1     bf  210 -   210          6.742901927896         -1.627664581955         -6.733687925628
      0.1612777588D+00  0.1000000000D+01
 Atom C28      Shell    79 S   6     bf  211 -   211          9.474255520865         -0.599933868743         -3.779895614419
      0.3047524880D+04  0.1834737132D-02
      0.4573695180D+03  0.1403732281D-01
      0.1039486850D+03  0.6884262226D-01
      0.2921015530D+02  0.2321844432D+00
      0.9286662960D+01  0.4679413484D+00
      0.3163926960D+01  0.3623119853D+00
 Atom C28      Shell    80 SP   3    bf  212 -   215          9.474255520865         -0.599933868743         -3.779895614419
      0.7868272350D+01 -0.1193324198D+00  0.6899906659D-01
      0.1881288540D+01 -0.1608541517D+00  0.3164239610D+00
      0.5442492580D+00  0.1143456438D+01  0.7443082909D+00
 Atom C28      Shell    81 SP   1    bf  216 -   219          9.474255520865         -0.599933868743         -3.779895614419
      0.1687144782D+00  0.1000000000D+01  0.1000000000D+01
 Atom C28      Shell    82 D   1     bf  220 -   225          9.474255520865         -0.599933868743         -3.779895614419
      0.8000000000D+00  0.1000000000D+01
 Atom C29      Shell    83 S   6     bf  226 -   226          9.282954727187         -0.171191084063         -0.876076619466
      0.3047524880D+04  0.1834737132D-02
      0.4573695180D+03  0.1403732281D-01
      0.1039486850D+03  0.6884262226D-01
      0.2921015530D+02  0.2321844432D+00
      0.9286662960D+01  0.4679413484D+00
      0.3163926960D+01  0.3623119853D+00
 Atom C29      Shell    84 SP   3    bf  227 -   230          9.282954727187         -0.171191084063         -0.876076619466
      0.7868272350D+01 -0.1193324198D+00  0.6899906659D-01
      0.1881288540D+01 -0.1608541517D+00  0.3164239610D+00
      0.5442492580D+00  0.1143456438D+01  0.7443082909D+00
 Atom C29      Shell    85 SP   1    bf  231 -   234          9.282954727187         -0.171191084063         -0.876076619466
      0.1687144782D+00  0.1000000000D+01  0.1000000000D+01
 Atom C29      Shell    86 D   1     bf  235 -   240          9.282954727187         -0.171191084063         -0.876076619466
      0.8000000000D+00  0.1000000000D+01
 Atom H30      Shell    87 S   3     bf  241 -   241          8.535441184315         -1.963135832641         -0.114560489409
      0.1873113696D+02  0.3349460434D-01
      0.2825394365D+01  0.2347269535D+00
      0.6401216923D+00  0.8137573261D+00
 Atom H30      Shell    88 S   1     bf  242 -   242          8.535441184315         -1.963135832641         -0.114560489409
      0.1612777588D+00  0.1000000000D+01
 Atom C31      Shell    89 S   6     bf  243 -   243         12.045918751839          0.000000000000          0.000000000000
      0.3047524880D+04  0.1834737132D-02
      0.4573695180D+03  0.1403732281D-01
      0.1039486850D+03  0.6884262226D-01
      0.2921015530D+02  0.2321844432D+00
      0.9286662960D+01  0.4679413484D+00
      0.3163926960D+01  0.3623119853D+00
 Atom C31      Shell    90 SP   3    bf  244 -   247         12.045918751839          0.000000000000          0.000000000000
      0.7868272350D+01 -0.1193324198D+00  0.6899906659D-01
      0.1881288540D+01 -0.1608541517D+00  0.3164239610D+00
      0.5442492580D+00  0.1143456438D+01  0.7443082909D+00
 Atom C31      Shell    91 SP   1    bf  248 -   251         12.045918751839          0.000000000000          0.000000000000
      0.1687144782D+00  0.1000000000D+01  0.1000000000D+01
 Atom C31      Shell    92 D   1     bf  252 -   257         12.045918751839          0.000000000000          0.000000000000
      0.8000000000D+00  0.1000000000D+01
 Atom H32      Shell    93 S   3     bf  258 -   258         12.264063124133         -0.470317723364          2.002131578612
      0.1873113696D+02  0.3349460434D-01
      0.2825394365D+01  0.2347269535D+00
      0.6401216923D+00  0.8137573261D+00
 Atom H32      Shell    94 S   1     bf  259 -   259         12.264063124133         -0.470317723364          2.002131578612
      0.1612777588D+00  0.1000000000D+01
 Atom H33      Shell    95 S   3     bf  260 -   260         12.772177600031          1.922584993240         -0.234409887626
      0.1873113696D+02  0.3349460434D-01
      0.2825394365D+01  0.2347269535D+00
      0.6401216923D+00  0.8137573261D+00
 Atom H33      Shell    96 S   1     bf  261 -   261         12.772177600031          1.922584993240         -0.234409887626
      0.1612777588D+00  0.1000000000D+01
 Atom C34      Shell    97 S   6     bf  262 -   262         13.447125054687         -1.898817510825         -1.742539351717
      0.3047524880D+04  0.1834737132D-02
      0.4573695180D+03  0.1403732281D-01
      0.1039486850D+03  0.6884262226D-01
      0.2921015530D+02  0.2321844432D+00
      0.9286662960D+01  0.4679413484D+00
      0.3163926960D+01  0.3623119853D+00
 Atom C34      Shell    98 SP   3    bf  263 -   266         13.447125054687         -1.898817510825         -1.742539351717
      0.7868272350D+01 -0.1193324198D+00  0.6899906659D-01
      0.1881288540D+01 -0.1608541517D+00  0.3164239610D+00
      0.5442492580D+00  0.1143456438D+01  0.7443082909D+00
 Atom C34      Shell    99 SP   1    bf  267 -   270         13.447125054687         -1.898817510825         -1.742539351717
      0.1687144782D+00  0.1000000000D+01  0.1000000000D+01
 Atom C34      Shell   100 D   1     bf  271 -   276         13.447125054687         -1.898817510825         -1.742539351717
      0.8000000000D+00  0.1000000000D+01
 Atom H35      Shell   101 S   3     bf  277 -   277         15.128125531579         -1.023633994826         -2.580819275341
      0.1873113696D+02  0.3349460434D-01
      0.2825394365D+01  0.2347269535D+00
      0.6401216923D+00  0.8137573261D+00
 Atom H35      Shell   102 S   1     bf  278 -   278         15.128125531579         -1.023633994826         -2.580819275341
      0.1612777588D+00  0.1000000000D+01
 Atom H36      Shell   103 S   3     bf  279 -   279         14.116267043896         -3.539179389434         -0.676452205781
      0.1873113696D+02  0.3349460434D-01
      0.2825394365D+01  0.2347269535D+00
      0.6401216923D+00  0.8137573261D+00
 Atom H36      Shell   104 S   1     bf  280 -   280         14.116267043896         -3.539179389434         -0.676452205781
      0.1612777588D+00  0.1000000000D+01
 Atom C37      Shell   105 S   6     bf  281 -   281         11.547314625061         -2.718614287704         -3.859257781418
      0.3047524880D+04  0.1834737132D-02
      0.4573695180D+03  0.1403732281D-01
      0.1039486850D+03  0.6884262226D-01
      0.2921015530D+02  0.2321844432D+00
      0.9286662960D+01  0.4679413484D+00
      0.3163926960D+01  0.3623119853D+00
 Atom C37      Shell   106 SP   3    bf  282 -   285         11.547314625061         -2.718614287704         -3.859257781418
      0.7868272350D+01 -0.1193324198D+00  0.6899906659D-01
      0.1881288540D+01 -0.1608541517D+00  0.3164239610D+00
      0.5442492580D+00  0.1143456438D+01  0.7443082909D+00
 Atom C37      Shell   107 SP   1    bf  286 -   289         11.547314625061         -2.718614287704         -3.859257781418
      0.1687144782D+00  0.1000000000D+01  0.1000000000D+01
 Atom C37      Shell   108 D   1     bf  290 -   295         11.547314625061         -2.718614287704         -3.859257781418
      0.8000000000D+00  0.1000000000D+01
 Atom H38      Shell   109 S   3     bf  296 -   296         10.604429100324         -4.466335570834         -3.233646219495
      0.1873113696D+02  0.3349460434D-01
      0.2825394365D+01  0.2347269535D+00
      0.6401216923D+00  0.8137573261D+00
 Atom H38      Shell   110 S   1     bf  297 -   297         10.604429100324         -4.466335570834         -3.233646219495
      0.1612777588D+00  0.1000000000D+01
 Atom C39      Shell   111 S   6     bf  298 -   298         10.399645772091          1.781733575624         -5.196374721668
      0.3047524880D+04  0.1834737132D-02
      0.4573695180D+03  0.1403732281D-01
      0.1039486850D+03  0.6884262226D-01
[...]
 **** Fit       0.001512
 **** Fit       0.001712
 **** Fit      -0.000552
 **** Fit      -0.000321
 **** Fit      -0.000002
 **** Fit       0.000368
 **** Fit       0.000739
 **** Fit       0.001068
 **** Fit       0.001330
 **** Fit       0.001459
 **** Fit       0.001462
 **** Fit       0.001400
 **** Fit       0.001368
 **** Fit       0.001368
 **** Fit       0.001383
 **** Fit       0.001399
 **** Fit       0.002270
 **** Fit       0.002182
 **** Fit       0.002019
 **** Fit       0.001805
 **** Fit       0.001580
 **** Fit       0.001387
 **** Fit       0.001258
 **** Fit       0.001199
 **** Fit       0.001196
 **** Fit       0.001228
 **** Fit       0.001273
 **** Fit       0.002393
 **** Fit       0.002497
 **** Fit       0.002517
 **** Fit       0.002422
 **** Fit       0.002205
 **** Fit       0.001893
 **** Fit       0.001546
 **** Fit       0.001241
 **** Fit       0.001032
 **** Fit       0.000936
 **** Fit       0.000937
 **** Fit       0.001000
 **** Fit       0.001091
 **** Fit       0.002353
 **** Fit       0.002577
 **** Fit       0.002754
 **** Fit       0.002831
 **** Fit       0.002750
 **** Fit       0.002474
 **** Fit       0.002026
 **** Fit       0.001502
 **** Fit       0.001032
 **** Fit       0.000712
 **** Fit       0.000574
 **** Fit       0.000590
 **** Fit       0.000705
 **** Fit       0.000866
 **** Fit       0.002155
 **** Fit       0.002450
 **** Fit       0.002760
 **** Fit       0.003042
 **** Fit       0.003221
 **** Fit       0.003191
 **** Fit       0.002862
 **** Fit       0.002239
 **** Fit       0.001466
 **** Fit       0.000761
 **** Fit       0.000295
 **** Fit       0.000113
 **** Fit       0.000167
 **** Fit       0.000365
 **** Fit       0.000622
 **** Fit       0.002150
 **** Fit       0.002503
 **** Fit       0.002906
 **** Fit       0.003318
 **** Fit       0.003642
 **** Fit       0.003713
 **** Fit       0.003356
 **** Fit       0.002529
 **** Fit       0.001435
 **** Fit       0.000431
 **** Fit      -0.000212
 **** Fit      -0.000425
 **** Fit      -0.000301
 **** Fit       0.000015
 **** Fit       0.000398
 **** Fit       0.000760
 **** Fit       0.001058
 **** Fit       0.002082
 **** Fit       0.002473
 **** Fit       0.002951
 **** Fit       0.003483
 **** Fit       0.003960
 **** Fit       0.004159
 **** Fit       0.003799
 **** Fit       0.002771
 **** Fit       0.001340
 **** Fit       0.000023
 **** Fit      -0.000781
 **** Fit      -0.000989
 **** Fit      -0.000751
 **** Fit      -0.000280
 **** Fit       0.000245
 **** Fit       0.000714
 **** Fit       0.001080
 **** Fit       0.001339
 **** Fit       0.001936
 **** Fit       0.002326
 **** Fit       0.002823
 **** Fit       0.003405
 **** Fit       0.003962
 **** Fit       0.004235
 **** Fit       0.003867
 **** Fit       0.002692
 **** Fit       0.001022
 **** Fit      -0.000492
 **** Fit      -0.001356
 **** Fit      -0.001486
 **** Fit      -0.001086
 **** Fit      -0.000441
 **** Fit       0.000223
 **** Fit       0.000779
 **** Fit       0.001186
 **** Fit       0.001456
 **** Fit       0.001710
 **** Fit       0.002048
 **** Fit       0.002484
 **** Fit       0.003000
 **** Fit       0.003489
 **** Fit       0.003696
 **** Fit       0.003271
 **** Fit       0.002051
 **** Fit       0.000369
 **** Fit      -0.001099
 **** Fit      -0.001847
 **** Fit      -0.001801
 **** Fit      -0.001208
 **** Fit      -0.000400
 **** Fit       0.000366
 **** Fit       0.000964
 **** Fit       0.001372
 **** Fit       0.001621
 **** Fit       0.001758
 **** Fit       0.001423
 **** Fit       0.001666
 **** Fit       0.001971
 **** Fit       0.002313
 **** Fit       0.002595
 **** Fit       0.002608
 **** Fit       0.002087
 **** Fit       0.000945
 **** Fit      -0.000501
 **** Fit      -0.001673
 **** Fit      -0.002140
 **** Fit      -0.001858
 **** Fit      -0.001083
 **** Fit      -0.000160
 **** Fit       0.000649
 **** Fit       0.001234
 **** Fit       0.001602
 **** Fit       0.001805
 **** Fit       0.001899
 **** Fit       0.001113
 **** Fit       0.001240
 **** Fit       0.001385
 **** Fit       0.001514
 **** Fit       0.001548
 **** Fit       0.001345
 **** Fit       0.000761
 **** Fit      -0.000202
 **** Fit      -0.001276
 **** Fit      -0.002035
 **** Fit      -0.002173
 **** Fit      -0.001674
 **** Fit      -0.000780
 **** Fit       0.000182
 **** Fit       0.000973
 **** Fit       0.001508
 **** Fit       0.001816
 **** Fit       0.001964
 **** Fit       0.002015
 **** Fit       0.000821
 **** Fit       0.000841
 **** Fit       0.000843
 **** Fit       0.000793
 **** Fit       0.000636
 **** Fit       0.000298
 **** Fit      -0.000270
 **** Fit      -0.001009
 **** Fit      -0.001713
 **** Fit      -0.002100
 **** Fit      -0.001976
 **** Fit      -0.001352
 **** Fit      -0.000435
 **** Fit       0.000491
 **** Fit       0.001223
 **** Fit       0.001697
 **** Fit       0.001953
 **** Fit       0.002060
 **** Fit       0.002080
 **** Fit       0.000519
 **** Fit       0.000422
 **** Fit       0.000263
 **** Fit       0.000009
 **** Fit      -0.000363
 **** Fit      -0.000849
 **** Fit      -0.001373
 **** Fit      -0.001787
 **** Fit      -0.001917
 **** Fit      -0.001648
 **** Fit      -0.001004
 **** Fit      -0.000153
 **** Fit       0.000681
 **** Fit       0.001334
 **** Fit       0.001757
 **** Fit       0.001981
 **** Fit       0.002071
 **** Fit       0.002081
 **** Fit       0.000147
 **** Fit      -0.000057
 **** Fit      -0.000330
 **** Fit      -0.000669
 **** Fit      -0.001047
 **** Fit      -0.001396
 **** Fit      -0.001615
 **** Fit      -0.001598
 **** Fit      -0.001282
 **** Fit      -0.000695
 **** Fit       0.000037
 **** Fit       0.000750
 **** Fit       0.001319
 **** Fit       0.001700
 **** Fit       0.001912
 **** Fit       0.002004
 **** Fit       0.002023
 **** Fit      -0.000203
 **** Fit      -0.000451
 **** Fit      -0.000729
 **** Fit      -0.001006
 **** Fit      -0.001227
 **** Fit      -0.001326
 **** Fit      -0.001239
 **** Fit      -0.000934
 **** Fit      -0.000438
 **** Fit       0.000161
 **** Fit       0.000749
 **** Fit       0.001233
 **** Fit       0.001574
 **** Fit       0.001780
 **** Fit       0.001884
 **** Fit      -0.000647
 **** Fit      -0.000841
 **** Fit      -0.000975
 **** Fit      -0.001005
 **** Fit      -0.000894
 **** Fit      -0.000626
 **** Fit      -0.000224
 **** Fit       0.000251
 **** Fit       0.000723
 **** Fit       0.001126
 **** Fit       0.001427
 **** Fit       0.001626
 **** Fit      -0.000585
 **** Fit      -0.000361
 **** Fit      -0.000043
 **** Fit       0.000328
 **** Fit       0.000700
 **** Fit       0.001031
 **** Fit       0.001292
 **** Fit       0.001799
 **** Fit       0.001637
 **** Fit       0.002147
 **** Fit       0.002149
 **** Fit       0.002069
 **** Fit       0.001906
 **** Fit       0.001679
 **** Fit       0.001428
 **** Fit       0.001203
 **** Fit       0.001039
 **** Fit       0.002201
 **** Fit       0.002305
 **** Fit       0.002329
 **** Fit       0.002242
 **** Fit       0.002032
 **** Fit       0.001720
 **** Fit       0.001366
 **** Fit       0.001044
 **** Fit       0.000814
 **** Fit       0.000701
 **** Fit       0.002109
 **** Fit       0.002304
 **** Fit       0.002456
 **** Fit       0.002517
 **** Fit       0.002433
 **** Fit       0.002173
 **** Fit       0.001758
 **** Fit       0.001272
 **** Fit       0.000831
 **** Fit       0.000525
 **** Fit       0.000390
 **** Fit       0.000408
 **** Fit       0.002127
 **** Fit       0.002366
 **** Fit       0.002570
 **** Fit       0.002675
 **** Fit       0.002602
 **** Fit       0.002294
 **** Fit       0.001767
 **** Fit       0.001133
 **** Fit       0.000559
 **** Fit       0.000178
 **** Fit       0.000034
 **** Fit       0.000096
 **** Fit       0.000291
 **** Fit       0.000546
 **** Fit       0.002080
 **** Fit       0.002348
 **** Fit       0.002591
 **** Fit       0.002734
 **** Fit       0.002673
 **** Fit       0.002322
 **** Fit       0.001689
 **** Fit       0.000917
 **** Fit       0.000227
 **** Fit      -0.000208
 **** Fit      -0.000334
 **** Fit      -0.000203
 **** Fit       0.000084
 **** Fit       0.000426
 **** Fit       0.000753
 **** Fit       0.001707
 **** Fit       0.001951
 **** Fit       0.002217
 **** Fit       0.002465
 **** Fit       0.002612
 **** Fit       0.002543
 **** Fit       0.002153
 **** Fit       0.001447
 **** Fit       0.000590
 **** Fit      -0.000158
 **** Fit      -0.000594
 **** Fit      -0.000663
 **** Fit      -0.000438
 **** Fit      -0.000050
 **** Fit       0.000379
 **** Fit       0.000767
 **** Fit       0.001076
 **** Fit       0.001527
 **** Fit       0.001734
 **** Fit       0.001960
 **** Fit       0.002163
 **** Fit       0.002266
 **** Fit       0.002154
 **** Fit       0.001730
 **** Fit       0.001005
 **** Fit       0.000152
 **** Fit      -0.000558
 **** Fit      -0.000923
 **** Fit      -0.000894
 **** Fit      -0.000562
 **** Fit      -0.000078
 **** Fit       0.000422
 **** Fit       0.000849
 **** Fit       0.001173
 **** Fit       0.001394
 **** Fit       0.001303
 **** Fit       0.001451
 **** Fit       0.001602
 **** Fit       0.001720
 **** Fit       0.001735
 **** Fit       0.001555
 **** Fit       0.001110
 **** Fit       0.000428
 **** Fit      -0.000323
 **** Fit      -0.000904
 **** Fit      -0.001135
 **** Fit      -0.000984
 **** Fit      -0.000552
 **** Fit       0.000004
 **** Fit       0.000543
 **** Fit       0.000982
 **** Fit       0.001298
 **** Fit       0.001503
 **** Fit       0.001137
 **** Fit       0.001200
 **** Fit       0.001217
 **** Fit       0.001135
 **** Fit       0.000892
 **** Fit       0.000454
 **** Fit      -0.000132
 **** Fit      -0.000722
 **** Fit      -0.001122
 **** Fit      -0.001198
 **** Fit      -0.000934
 **** Fit      -0.000431
 **** Fit       0.000158
 **** Fit       0.000702
 **** Fit       0.001128
 **** Fit       0.001421
 **** Fit       0.001601
 **** Fit       0.000838
 **** Fit       0.000820
 **** Fit       0.000750
 **** Fit       0.000594
 **** Fit       0.000318
 **** Fit      -0.000079
 **** Fit      -0.000543
 **** Fit      -0.000956
 **** Fit      -0.001180
 **** Fit      -0.001121
 **** Fit      -0.000781
 **** Fit      -0.000252
 **** Fit       0.000330
 **** Fit       0.000849
 **** Fit       0.001245
 **** Fit       0.001509
 **** Fit       0.001665
 **** Fit       0.000510
 **** Fit       0.000384
 **** Fit       0.000190
 **** Fit      -0.000081
 **** Fit      -0.000413
 **** Fit      -0.000754
 **** Fit      -0.001014
 **** Fit      -0.001099
 **** Fit      -0.000951
 **** Fit      -0.000582
 **** Fit      -0.000070
 **** Fit       0.000471
 **** Fit       0.000947
 **** Fit       0.001306
 **** Fit       0.001544
 **** Fit       0.001682
 **** Fit       0.000140
 **** Fit      -0.000057
 **** Fit      -0.000297
 **** Fit      -0.000557
 **** Fit      -0.000792
 **** Fit      -0.000936
 **** Fit      -0.000930
 **** Fit      -0.000739
 **** Fit      -0.000380
 **** Fit       0.000083
 **** Fit       0.000564
 **** Fit       0.000985
 **** Fit       0.001306
 **** Fit       0.001523
 **** Fit      -0.000368
 **** Fit      -0.000561
 **** Fit      -0.000713
 **** Fit      -0.000779
 **** Fit      -0.000722
 **** Fit      -0.000522
 **** Fit      -0.000198
 **** Fit       0.000202
 **** Fit       0.000613
 **** Fit       0.000977
 **** Fit       0.001262
 **** Fit       0.001461
 **** Fit      -0.000320
 **** Fit      -0.000041
 **** Fit       0.000293
 **** Fit       0.000636
 **** Fit       0.000946
 **** Fit       0.001943
 **** Fit       0.001867
 **** Fit       0.001712
 **** Fit       0.001497
 **** Fit       0.001258
 **** Fit       0.001039
 **** Fit       0.002016
 **** Fit       0.002024
 **** Fit       0.001937
 **** Fit       0.001746
 **** Fit       0.001471
 **** Fit       0.001161
 **** Fit       0.000880
 **** Fit       0.000678
 **** Fit       0.000580
 **** Fit       0.001951
 **** Fit       0.002047
 **** Fit       0.002065
 **** Fit       0.001969
 **** Fit       0.001741
 **** Fit       0.001404
 **** Fit       0.001022
 **** Fit       0.000679
 **** Fit       0.000443
 **** Fit       0.000344
 **** Fit       0.001906
 **** Fit       0.002012
 **** Fit       0.002033
 **** Fit       0.001925
 **** Fit       0.001664
 **** Fit       0.001272
 **** Fit       0.000829
 **** Fit       0.000439
 **** Fit       0.000186
 **** Fit       0.000103
 **** Fit       0.000172
 **** Fit       0.001647
 **** Fit       0.001787
 **** Fit       0.001885
 **** Fit       0.001896
 **** Fit       0.001770
 **** Fit       0.001481
 **** Fit       0.001054
 **** Fit       0.000579
 **** Fit       0.000173
 **** Fit      -0.000069
 **** Fit      -0.000115
 **** Fit       0.000009
 **** Fit       0.000242
 **** Fit       0.000517
 **** Fit       0.001479
 **** Fit       0.001591
 **** Fit       0.001661
 **** Fit       0.001644
 **** Fit       0.001494
 **** Fit       0.001186
 **** Fit       0.000753
 **** Fit       0.000286
 **** Fit      -0.000093
 **** Fit      -0.000291
 **** Fit      -0.000279
 **** Fit      -0.000092
 **** Fit       0.000198
 **** Fit       0.000519
 **** Fit       0.000815
 **** Fit       0.001336
 **** Fit       0.001361
 **** Fit       0.001304
 **** Fit       0.001127
 **** Fit       0.000816
 **** Fit       0.000408
 **** Fit      -0.000008
 **** Fit      -0.000321
 **** Fit      -0.000447
 **** Fit      -0.000366
 **** Fit      -0.000120
 **** Fit       0.000216
 **** Fit       0.000567
 **** Fit       0.000878
 **** Fit       0.001055
 **** Fit       0.001029
 **** Fit       0.000931
 **** Fit       0.000734
 **** Fit       0.000438
 **** Fit       0.000083
 **** Fit      -0.000253
 **** Fit      -0.000476
 **** Fit      -0.000519
 **** Fit      -0.000373
 **** Fit      -0.000082
 **** Fit       0.000281
 **** Fit       0.000643
 **** Fit       0.000954
 **** Fit       0.000785
 **** Fit       0.000716
 **** Fit       0.000587
 **** Fit       0.000385
 **** Fit       0.000121
 **** Fit      -0.000167
 **** Fit      -0.000412
 **** Fit      -0.000542
 **** Fit      -0.000510
 **** Fit      -0.000315
 **** Fit       0.000001
 **** Fit       0.000369
 **** Fit       0.000724
 **** Fit       0.001022
 **** Fit       0.000459
 **** Fit       0.000316
 **** Fit       0.000125
 **** Fit      -0.000096
 **** Fit      -0.000313
 **** Fit      -0.000474
 **** Fit      -0.000526
 **** Fit      -0.000439
 **** Fit      -0.000216
 **** Fit       0.000101
 **** Fit       0.000454
 **** Fit       0.000788
 **** Fit       0.001066
 **** Fit      -0.000033
 **** Fit      -0.000209
 **** Fit      -0.000362
 **** Fit      -0.000455
 **** Fit      -0.000330
 **** Fit      -0.000102
 **** Fit       0.000198
 **** Fit       0.000523
 **** Fit       0.000827
 **** Fit       0.000282
 **** Fit       0.001603
 **** Fit       0.001466
 **** Fit       0.001283
 **** Fit       0.001083
 **** Fit       0.001667
 **** Fit       0.001581
 **** Fit       0.001421
 **** Fit       0.001204
 **** Fit       0.000967
 **** Fit       0.000755
 **** Fit       0.001626
 **** Fit       0.001607
 **** Fit       0.001508
 **** Fit       0.001326
 **** Fit       0.001081
 **** Fit       0.000816
 **** Fit       0.000584
 **** Fit       0.000431
 **** Fit       0.001514
 **** Fit       0.001484
 **** Fit       0.001372
 **** Fit       0.001173
 **** Fit       0.000911
 **** Fit       0.000633
 **** Fit       0.000400
 **** Fit       0.000257
 **** Fit       0.001346
 **** Fit       0.001299
 **** Fit       0.001173
 **** Fit       0.000965
 **** Fit       0.000702
 **** Fit       0.000432
 **** Fit       0.000217
 **** Fit       0.000103
 **** Fit       0.001136
 **** Fit       0.001068
 **** Fit       0.000930
 **** Fit       0.000724
 **** Fit       0.000476
 **** Fit       0.000235
 **** Fit       0.000058
 **** Fit      -0.000015
 **** Fit       0.000822
 **** Fit       0.000678
 **** Fit       0.000484
 **** Fit       0.000265
 **** Fit       0.000068
 **** Fit      -0.000060
 **** Fit      -0.000085
 **** Fit       0.000450
 **** Fit       0.000277
 **** Fit       0.000097
 **** Fit      -0.000050
 **** Fit      -0.000126
 -----------------------------------------------------------------
 Leave Link  602 at Fri Apr 28 12:17:41 2017, MaxMem=   33554432 cpu:      98.3
 (Enter /scratch/michal/g09/l9999.exe)

 Test job not archived.
 1\1\GINC-RZEPICHA\SP\RHF\6-31G(d)\C27H46O3\MICHAL\28-Apr-2017\0\\#P HF
 /6-31G* SCF(Conver=6) NoSymm Test Pop=chelpg IOp(6/33=2) GFInput GFPri
 nt\\MEP - Input generated by R.E.D.-III.x MOLECULE\\0,1\C,0,-1.0109652
 1,1.98342267,1.68384729\H,0,-0.99218873,1.00621416,2.18179872\C,0,0.31
 613625,2.70667308,1.95171638\H,0,0.47529155,2.80425549,3.02992076\H,0,
 0.22463544,3.7300306,1.5523479\C,0,1.5028047,2.01482352,1.30743069\C,0
 ,1.38592258,1.66237653,-0.17877061\C,0,-0.01135678,1.01295901,-0.42598
 945\H,0,0.,0.,0.\H,0,-0.17477142,0.89514213,-1.50247261\C,0,-1.1983466
 7,1.77666978,0.18113745\H,0,-1.31348957,2.7575076,-0.30354193\H,0,-2.1
 288056,1.22663337,0.\C,0,2.59970476,1.75108481,2.02957147\H,0,2.627334
 73,2.01421355,3.08462081\C,0,3.86396045,1.14163348,1.499465\H,0,4.0452
 6446,0.16770236,1.9801417\C,0,3.90591862,0.99171624,-0.03018537\H,0,4.
 20851978,1.96596849,-0.43614597\C,0,2.49371678,0.62359674,-0.56553997\
 H,0,2.21357775,-0.31107685,-0.05287284\C,0,2.53698319,0.30833443,-2.07
 804166\H,0,2.71185778,1.23073937,-2.64239435\H,0,1.55891734,-0.0631015
 8,-2.40245626\C,0,3.60567667,-0.72701541,-2.47794605\H,0,3.35362761,-1
 .70126713,-2.0346107\H,0,3.56819002,-0.861323,-3.56331418\C,0,5.013560
 09,-0.31747133,-2.00023461\C,0,4.91232807,-0.09059042,-0.46359978\H,0,
 4.51676094,-1.03884674,-0.0606228\C,0,6.37442566,0.,0.\H,0,6.48986269,
 -0.24888142,1.0594824\H,0,6.75874529,1.01738816,-0.12404437\C,0,7.1159
 121,-1.00481095,-0.92211211\H,0,8.00545924,-0.54168378,-1.36571074\H,0
 ,7.47000679,-1.87285307,-0.35796309\C,0,6.11057572,-1.43862872,-2.0422
 3126\H,0,5.61162219,-2.36348299,-1.71117188\C,0,5.50325552,0.9428528,-
 2.74980307\H,0,4.85876153,1.80814962,-2.57555655\H,0,6.5153555,1.23018
 72,-2.44977841\H,0,5.52152326,0.76690249,-3.83021494\C,0,6.81930151,-1
 .77057922,-3.38169684\H,0,7.37979857,-0.87628513,-3.69442455\C,0,5.842
 97191,-2.13952041,-4.51273506\H,0,5.19551289,-2.97389053,-4.2147378\H,
 0,6.38028872,-2.44425593,-5.41559442\H,0,5.19993772,-1.30271769,-4.793
 99021\C,0,1.50764463,2.96888167,-1.00792733\H,0,1.27767712,2.79458527,
 -2.06371657\H,0,0.81544645,3.73545955,-0.65002036\H,0,2.51526348,3.389
 45971,-0.93875932\O,0,4.99233574,1.99335402,1.82258166\O,0,5.17650448,
 1.95939046,3.2700554\H,0,6.03964071,1.51708725,3.32375113\O,0,-2.11779
 145,2.66081865,2.28557314\H,0,-2.19062623,3.54277216,1.89438115\C,0,7.
 8523654,-2.90610696,-3.17258112\H,0,8.45336914,-2.69056893,-2.28191982
 \H,0,7.31093606,-3.83966734,-2.95442661\C,0,8.82204095,-3.14246298,-4.
 34254841\H,0,8.2676764,-3.44378132,-5.23844598\H,0,9.3162713,-2.192596
 3,-4.58812653\C,0,9.87791256,-4.2103357,-4.01258833\H,0,9.36095492,-5.
 14080572,-3.73621653\H,0,10.42996475,-3.89373668,-3.11579842\C,0,10.90
 353729,-4.53730774,-5.12304202\H,0,11.56856191,-5.30552565,-4.70131648
 \C,0,10.24974986,-5.14588741,-6.37483983\H,0,9.61523058,-4.41867894,-6
 .89449336\H,0,11.01133045,-5.48191068,-7.08777707\H,0,9.62689867,-6.01
 123724,-6.11924534\C,0,11.78376525,-3.33118478,-5.49044543\H,0,11.2029
 3138,-2.54031535,-5.97893845\H,0,12.58007673,-3.62638433,-6.18323304\H
 ,0,12.25796771,-2.89773722,-4.60196772\\Version=EM64L-G09RevC.01\HF=-1
 273.6832017\RMSD=5.643e-07\Dipole=0.4597143,-0.4820199,-0.8473612\Quad
 rupole=2.7947546,0.7666098,-3.5613644,-7.2518719,3.6027707,-6.1118404\
 PG=C01 [X(C27H46O3)]\\@


 DEPRESSION IS WAITING FOR YOUR SHIP TO COME IN,
 AND FINDING OUT IT'S THE TITANIC.
 Job cpu time:  0 days  0 hours 41 minutes 16.2 seconds.
 File lengths (MBytes):  RWF=    159 Int=      0 D2E=      0 Chk=     11 Scr=      1
 Normal termination of Gaussian 09 at Fri Apr 28 12:17:42 2017.
