 Entering Gaussian System, Link 0=/scratch/michal/g09//g09
 Input=JOB2-gau_m1-2-3.com
 Output=JOB2-gau_m1-2-3.log
 Initial command:
 /scratch/michal/g09/l1.exe /scratch/michal/gauss_scratch/Gau-32084.inp -scrdir=/scratch/michal/gauss_scratch/
 Entering Link 1 = /scratch/michal/g09/l1.exe PID=     32086.
  
 Copyright (c) 1988,1990,1992,1993,1995,1998,2003,2009,2011,
            Gaussian, Inc.  All Rights Reserved.
  
 This is part of the Gaussian(R) 09 program.  It is based on
 the Gaussian(R) 03 system (copyright 2003, Gaussian, Inc.),
 the Gaussian(R) 98 system (copyright 1998, Gaussian, Inc.),
 the Gaussian(R) 94 system (copyright 1995, Gaussian, Inc.),
 the Gaussian 92(TM) system (copyright 1992, Gaussian, Inc.),
 the Gaussian 90(TM) system (copyright 1990, Gaussian, Inc.),
 the Gaussian 88(TM) system (copyright 1988, Gaussian, Inc.),
 the Gaussian 86(TM) system (copyright 1986, Carnegie Mellon
 University), and the Gaussian 82(TM) system (copyright 1983,
 Carnegie Mellon University). Gaussian is a federally registered
 trademark of Gaussian, Inc.
  
 This software contains proprietary and confidential information,
 including trade secrets, belonging to Gaussian, Inc.
  
 This software is provided under written license and may be
 used, copied, transmitted, or stored only in accord with that
 written license.
  
 The following legend is applicable only to US Government
 contracts under FAR:
  
                    RESTRICTED RIGHTS LEGEND
  
 Use, reproduction and disclosure by the US Government is
 subject to restrictions as set forth in subparagraphs (a)
 and (c) of the Commercial Computer Software - Restricted
 Rights clause in FAR 52.227-19.
  
 Gaussian, Inc.
 340 Quinnipiac St., Bldg. 40, Wallingford CT 06492
  
  
 ---------------------------------------------------------------
 Warning -- This program may not be used in any manner that
 competes with the business of Gaussian, Inc. or will provide
 assistance to any competitor of Gaussian, Inc.  The licensee
 of this program is prohibited from giving any competitor of
 Gaussian, Inc. access to this program.  By using this program,
 the user acknowledges that Gaussian, Inc. is engaged in the
 business of creating and licensing software in the field of
 computational chemistry and represents and warrants to the
 licensee that it is not a competitor of Gaussian, Inc. and that
 it will not use this program in any manner prohibited above.
 ---------------------------------------------------------------
  

 Cite this work as:
 Gaussian 09, Revision C.01,
 M. J. Frisch, G. W. Trucks, H. B. Schlegel, G. E. Scuseria, 
 M. A. Robb, J. R. Cheeseman, G. Scalmani, V. Barone, B. Mennucci, 
 G. A. Petersson, H. Nakatsuji, M. Caricato, X. Li, H. P. Hratchian, 
 A. F. Izmaylov, J. Bloino, G. Zheng, J. L. Sonnenberg, M. Hada, 
 M. Ehara, K. Toyota, R. Fukuda, J. Hasegawa, M. Ishida, T. Nakajima, 
 Y. Honda, O. Kitao, H. Nakai, T. Vreven, J. A. Montgomery, Jr., 
 J. E. Peralta, F. Ogliaro, M. Bearpark, J. J. Heyd, E. Brothers, 
 K. N. Kudin, V. N. Staroverov, T. Keith, R. Kobayashi, J. Normand, 
 K. Raghavachari, A. Rendell, J. C. Burant, S. S. Iyengar, J. Tomasi, 
 M. Cossi, N. Rega, J. M. Millam, M. Klene, J. E. Knox, J. B. Cross, 
 V. Bakken, C. Adamo, J. Jaramillo, R. Gomperts, R. E. Stratmann, 
 O. Yazyev, A. J. Austin, R. Cammi, C. Pomelli, J. W. Ochterski, 
 R. L. Martin, K. Morokuma, V. G. Zakrzewski, G. A. Voth, 
 P. Salvador, J. J. Dannenberg, S. Dapprich, A. D. Daniels, 
 O. Farkas, J. B. Foresman, J. V. Ortiz, J. Cioslowski, 
 and D. J. Fox, Gaussian, Inc., Wallingford CT, 2010.
 
 ******************************************
 Gaussian 09:  EM64L-G09RevC.01 23-Sep-2011
                28-Apr-2017 
 ******************************************
 %Mem=256MB
 %NProc=48
 Will use up to   48 processors via shared memory.
 ----------------------------------------------------------------------
 #P HF/6-31G* SCF(Conver=6) NoSymm Test Pop=chelpg IOp(6/33=2) GFInput 
 GFPrint
 ----------------------------------------------------------------------
 1/38=1/1;
 2/12=2,15=1,17=6,18=5,40=1/2;
 3/5=1,6=6,7=1,11=9,16=1,24=110,25=1,30=1/1,2,3;
 4//1;
 5/5=2,6=6,38=5/2;
 6/7=2,8=2,9=2,10=2,15=8,20=3,28=1,33=2/1,2;
 99/5=1,9=1/99;
 Leave Link    1 at Fri Apr 28 12:05:11 2017, MaxMem=   33554432 cpu:       7.3
 (Enter /scratch/michal/g09/l101.exe)
 ----------------------------------------------
 MEP - Input generated by R.E.D.-III.x MOLECULE
 ----------------------------------------------
 Charge =  0 Multiplicity = 1
 Symbolic Z-Matrix:
 C                    -1.0119    1.98413   1.68218 
 H                    -0.99159   1.00753   2.18126 
 C                     0.31444   2.70947   1.94811 
 H                     0.47429   2.80878   3.02606 
 H                     0.22115   3.73212   1.54737 
 C                     1.50168   2.0184    1.30395 
 C                     1.38416   1.66353  -0.18165 
 C                    -0.01264   1.01241  -0.42722 
 H                     0.        0.        0. 
 H                    -0.17667   0.89315  -1.50347 
 C                    -1.20011   1.77542   0.17986 
 H                    -1.31683   2.75551  -0.30593 
 H                    -2.13001   1.22403   0. 
 C                     2.59988   1.7582    2.02544 
 H                     2.62805   2.0234    3.07995 
 C                     3.86464   1.14986   1.49535 
 H                     4.04868   0.17801   1.97915 
 C                     3.90504   0.99482  -0.03384 
 H                     4.2079    1.96749  -0.44344 
 C                     2.49262   0.62517  -0.56739 
 H                     2.21356  -0.30882  -0.05293 
 C                     2.53569   0.307    -2.07927 
 H                     2.71122   1.22815  -2.64553 
 H                     1.55736  -0.06431  -2.40296 
 C                     3.60354  -0.73023  -2.47688 
 H                     3.35053  -1.70326  -2.03142 
 H                     3.56588  -0.86696  -3.56195 
 C                     5.01185  -0.32127  -2.00002 
 C                     4.91043  -0.08968  -0.46408 
 H                     4.51349  -1.03631  -0.05865 
 C                     6.37241   0.        0. 
 H                     6.48688  -0.24574   1.06034 
 H                     6.75864   1.01628  -0.12722 
 C                     7.11264  -1.00895  -0.91861 
 H                     8.00303  -0.54847  -1.36323 
 H                     7.46534  -1.87599  -0.35197 
 C                     6.10699  -1.44449  -2.03775 
 H                     5.60602  -2.36718  -1.70362 
 C                     5.50399   0.93566  -2.75348 
 H                     4.85934   1.80186  -2.58455 
 H                     6.5154    1.22369  -2.4518 
 H                     5.525     0.75538  -3.83318 
 C                     6.81616  -1.78292  -3.37515 
 H                     7.37791  -0.89087  -3.69228 
 C                     5.84141  -2.15634  -4.50585 
 H                     5.2008   -2.99682  -4.20996 
 H                     6.38044  -2.45299  -5.41034 
 H                     5.19129  -1.32376  -4.78299 
 C                     1.50415   2.969    -1.01262 
 H                     1.27611   2.79246  -2.06844 
 H                     0.80965   3.73443  -0.65675 
 H                     2.51065   3.39205  -0.94243 
 O                     4.99188   2.00491   1.81368 
 O                     5.17828   1.97652   3.261 
 H                     6.04242   1.53622   3.315 
 O                    -2.11912   2.66092   2.28387 
 H                    -2.19312   3.54238   1.89177 
 C                     7.84876  -2.9178   -3.15922 
 H                     8.47228  -2.6789   -2.28968 
 H                     7.30396  -3.83707  -2.89933 
 C                     8.78902  -3.18115  -4.34791 
 H                     8.22826  -3.57272  -5.2043 
 H                     9.2111   -2.22172  -4.67939 
 C                     9.95983  -4.12827  -4.0258 
 H                     10.5569  -3.68332  -3.21659 
 H                     10.62417  -4.17594  -4.90142 
 C                     9.59243  -5.5721   -3.62165 
 H                     8.94354  -5.52678  -2.73521 
 C                     8.82732  -6.31484  -4.72854 
 H                     9.42497  -6.36599  -5.64804 
 H                     8.59896  -7.3426   -4.42408 
 H                     7.87877  -5.82661  -4.97468 
 C                     10.8578  -6.35002  -3.22615 
 H                     11.54715  -6.43362  -4.07625 
 H                     10.61379  -7.36612  -2.89568 
 H                     11.39473  -5.85185  -2.41069 
 
 NAtoms=     76 NQM=        0 NQMF=       0 NMMI=     76 NMMIF=      0
                NMic=       0 NMicF=      0.
                    Isotopes and Nuclear Properties:
 (Nuclear quadrupole moments (NQMom) in fm**2, nuclear magnetic moments (NMagM)
  in nuclear magnetons)

  Atom         1           2           3           4           5           6           7           8           9          10
 IAtWgt=          12           1          12           1           1          12          12          12           1           1
 AtmWgt=  12.0000000   1.0078250  12.0000000   1.0078250   1.0078250  12.0000000  12.0000000  12.0000000   1.0078250   1.0078250
 NucSpn=           0           1           0           1           1           0           0           0           1           1
 AtZEff=   0.0000000   0.0000000   0.0000000   0.0000000   0.0000000   0.0000000   0.0000000   0.0000000   0.0000000   0.0000000
 NQMom=    0.0000000   0.0000000   0.0000000   0.0000000   0.0000000   0.0000000   0.0000000   0.0000000   0.0000000   0.0000000
 NMagM=    0.0000000   2.7928460   0.0000000   2.7928460   2.7928460   0.0000000   0.0000000   0.0000000   2.7928460   2.7928460

  Atom        11          12          13          14          15          16          17          18          19          20
 IAtWgt=          12           1           1          12           1          12           1          12           1          12
 AtmWgt=  12.0000000   1.0078250   1.0078250  12.0000000   1.0078250  12.0000000   1.0078250  12.0000000   1.0078250  12.0000000
 NucSpn=           0           1           1           0           1           0           1           0           1           0
 AtZEff=   0.0000000   0.0000000   0.0000000   0.0000000   0.0000000   0.0000000   0.0000000   0.0000000   0.0000000   0.0000000
 NQMom=    0.0000000   0.0000000   0.0000000   0.0000000   0.0000000   0.0000000   0.0000000   0.0000000   0.0000000   0.0000000
 NMagM=    0.0000000   2.7928460   2.7928460   0.0000000   2.7928460   0.0000000   2.7928460   0.0000000   2.7928460   0.0000000

  Atom        21          22          23          24          25          26          27          28          29          30
 IAtWgt=           1          12           1           1          12           1           1          12          12           1
 AtmWgt=   1.0078250  12.0000000   1.0078250   1.0078250  12.0000000   1.0078250   1.0078250  12.0000000  12.0000000   1.0078250
 NucSpn=           1           0           1           1           0           1           1           0           0           1
 AtZEff=   0.0000000   0.0000000   0.0000000   0.0000000   0.0000000   0.0000000   0.0000000   0.0000000   0.0000000   0.0000000
 NQMom=    0.0000000   0.0000000   0.0000000   0.0000000   0.0000000   0.0000000   0.0000000   0.0000000   0.0000000   0.0000000
 NMagM=    2.7928460   0.0000000   2.7928460   2.7928460   0.0000000   2.7928460   2.7928460   0.0000000   0.0000000   2.7928460

  Atom        31          32          33          34          35          36          37          38          39          40
 IAtWgt=          12           1           1          12           1           1          12           1          12           1
 AtmWgt=  12.0000000   1.0078250   1.0078250  12.0000000   1.0078250   1.0078250  12.0000000   1.0078250  12.0000000   1.0078250
 NucSpn=           0           1           1           0           1           1           0           1           0           1
 AtZEff=   0.0000000   0.0000000   0.0000000   0.0000000   0.0000000   0.0000000   0.0000000   0.0000000   0.0000000   0.0000000
 NQMom=    0.0000000   0.0000000   0.0000000   0.0000000   0.0000000   0.0000000   0.0000000   0.0000000   0.0000000   0.0000000
 NMagM=    0.0000000   2.7928460   2.7928460   0.0000000   2.7928460   2.7928460   0.0000000   2.7928460   0.0000000   2.7928460

  Atom        41          42          43          44          45          46          47          48          49          50
 IAtWgt=           1           1          12           1          12           1           1           1          12           1
 AtmWgt=   1.0078250   1.0078250  12.0000000   1.0078250  12.0000000   1.0078250   1.0078250   1.0078250  12.0000000   1.0078250
 NucSpn=           1           1           0           1           0           1           1           1           0           1
 AtZEff=   0.0000000   0.0000000   0.0000000   0.0000000   0.0000000   0.0000000   0.0000000   0.0000000   0.0000000   0.0000000
 NQMom=    0.0000000   0.0000000   0.0000000   0.0000000   0.0000000   0.0000000   0.0000000   0.0000000   0.0000000   0.0000000
 NMagM=    2.7928460   2.7928460   0.0000000   2.7928460   0.0000000   2.7928460   2.7928460   2.7928460   0.0000000   2.7928460

  Atom        51          52          53          54          55          56          57          58          59          60
 IAtWgt=           1           1          16          16           1          16           1          12           1           1
 AtmWgt=   1.0078250   1.0078250  15.9949146  15.9949146   1.0078250  15.9949146   1.0078250  12.0000000   1.0078250   1.0078250
 NucSpn=           1           1           0           0           1           0           1           0           1           1
 AtZEff=   0.0000000   0.0000000   0.0000000   0.0000000   0.0000000   0.0000000   0.0000000   0.0000000   0.0000000   0.0000000
 NQMom=    0.0000000   0.0000000   0.0000000   0.0000000   0.0000000   0.0000000   0.0000000   0.0000000   0.0000000   0.0000000
 NMagM=    2.7928460   2.7928460   0.0000000   0.0000000   2.7928460   0.0000000   2.7928460   0.0000000   2.7928460   2.7928460

  Atom        61          62          63          64          65          66          67          68          69          70
 IAtWgt=          12           1           1          12           1           1          12           1          12           1
 AtmWgt=  12.0000000   1.0078250   1.0078250  12.0000000   1.0078250   1.0078250  12.0000000   1.0078250  12.0000000   1.0078250
 NucSpn=           0           1           1           0           1           1           0           1           0           1
 AtZEff=   0.0000000   0.0000000   0.0000000   0.0000000   0.0000000   0.0000000   0.0000000   0.0000000   0.0000000   0.0000000
 NQMom=    0.0000000   0.0000000   0.0000000   0.0000000   0.0000000   0.0000000   0.0000000   0.0000000   0.0000000   0.0000000
 NMagM=    0.0000000   2.7928460   2.7928460   0.0000000   2.7928460   2.7928460   0.0000000   2.7928460   0.0000000   2.7928460

  Atom        71          72          73          74          75          76
 IAtWgt=           1           1          12           1           1           1
 AtmWgt=   1.0078250   1.0078250  12.0000000   1.0078250   1.0078250   1.0078250
 NucSpn=           1           1           0           1           1           1
 AtZEff=   0.0000000   0.0000000   0.0000000   0.0000000   0.0000000   0.0000000
 NQMom=    0.0000000   0.0000000   0.0000000   0.0000000   0.0000000   0.0000000
 NMagM=    2.7928460   2.7928460   0.0000000   2.7928460   2.7928460   2.7928460
 Leave Link  101 at Fri Apr 28 12:05:11 2017, MaxMem=   33554432 cpu:       9.2
 (Enter /scratch/michal/g09/l202.exe)
 Symmetry turned off by external request.
 Stoichiometry    C27H46O3
 Framework group  C1[X(C27H46O3)]
 Deg. of freedom   222
 Full point group                 C1      NOp   1
                          Input orientation:                          
 ---------------------------------------------------------------------
 Center     Atomic      Atomic             Coordinates (Angstroms)
 Number     Number       Type             X           Y           Z
 ---------------------------------------------------------------------
      1          6           0       -1.011904    1.984130    1.682179
      2          1           0       -0.991589    1.007525    2.181262
      3          6           0        0.314437    2.709467    1.948106
      4          1           0        0.474287    2.808784    3.026056
      5          1           0        0.221151    3.732121    1.547374
      6          6           0        1.501685    2.018397    1.303946
      7          6           0        1.384162    1.663527   -0.181652
      8          6           0       -0.012640    1.012411   -0.427225
      9          1           0        0.000000    0.000000    0.000000
     10          1           0       -0.176674    0.893145   -1.503469
     11          6           0       -1.200114    1.775424    0.179857
     12          1           0       -1.316833    2.755506   -0.305925
     13          1           0       -2.130013    1.224026    0.000000
     14          6           0        2.599879    1.758205    2.025436
     15          1           0        2.628053    2.023405    3.079953
     16          6           0        3.864636    1.149856    1.495349
     17          1           0        4.048684    0.178008    1.979150
     18          6           0        3.905036    0.994824   -0.033839
     19          1           0        4.207903    1.967494   -0.443436
     20          6           0        2.492618    0.625171   -0.567392
     21          1           0        2.213557   -0.308824   -0.052934
     22          6           0        2.535690    0.306997   -2.079266
     23          1           0        2.711223    1.228150   -2.645531
     24          1           0        1.557361   -0.064310   -2.402965
     25          6           0        3.603543   -0.730231   -2.476876
     26          1           0        3.350531   -1.703258   -2.031423
     27          1           0        3.565877   -0.866964   -3.561950
     28          6           0        5.011848   -0.321274   -2.000023
     29          6           0        4.910429   -0.089680   -0.464079
     30          1           0        4.513491   -1.036308   -0.058654
     31          6           0        6.372413    0.000000    0.000000
     32          1           0        6.486876   -0.245738    1.060339
     33          1           0        6.758639    1.016284   -0.127220
     34          6           0        7.112637   -1.008950   -0.918612
     35          1           0        8.003028   -0.548465   -1.363233
     36          1           0        7.465344   -1.875986   -0.351972
     37          6           0        6.106989   -1.444488   -2.037746
     38          1           0        5.606017   -2.367176   -1.703622
     39          6           0        5.503994    0.935658   -2.753485
     40          1           0        4.859342    1.801863   -2.584552
     41          1           0        6.515401    1.223689   -2.451805
     42          1           0        5.525001    0.755375   -3.833181
     43          6           0        6.816155   -1.782925   -3.375146
     44          1           0        7.377907   -0.890871   -3.692283
     45          6           0        5.841408   -2.156340   -4.505849
     46          1           0        5.200796   -2.996822   -4.209964
     47          1           0        6.380445   -2.452993   -5.410341
     48          1           0        5.191287   -1.323759   -4.782993
     49          6           0        1.504153    2.968997   -1.012616
     50          1           0        1.276114    2.792464   -2.068443
     51          1           0        0.809653    3.734435   -0.656754
     52          1           0        2.510646    3.392048   -0.942427
     53          8           0        4.991885    2.004914    1.813685
     54          8           0        5.178281    1.976521    3.261002
     55          1           0        6.042418    1.536217    3.315003
     56          8           0       -2.119115    2.660918    2.283865
     57          1           0       -2.193117    3.542380    1.891775
     58          6           0        7.848763   -2.917797   -3.159224
     59          1           0        8.472281   -2.678901   -2.289679
     60          1           0        7.303963   -3.837071   -2.899333
     61          6           0        8.789024   -3.181149   -4.347910
     62          1           0        8.228259   -3.572718   -5.204297
     63          1           0        9.211095   -2.221719   -4.679394
     64          6           0        9.959830   -4.128266   -4.025795
     65          1           0       10.556901   -3.683318   -3.216586
     66          1           0       10.624169   -4.175935   -4.901417
     67          6           0        9.592434   -5.572103   -3.621654
     68          1           0        8.943540   -5.526780   -2.735208
     69          6           0        8.827317   -6.314843   -4.728537
     70          1           0        9.424972   -6.365992   -5.648039
     71          1           0        8.598960   -7.342596   -4.424079
     72          1           0        7.878775   -5.826615   -4.974677
     73          6           0       10.857803   -6.350018   -3.226151
     74          1           0       11.547152   -6.433615   -4.076250
     75          1           0       10.613793   -7.366122   -2.895684
     76          1           0       11.394728   -5.851853   -2.410686
 ---------------------------------------------------------------------
 Rotational constants (GHZ):      0.3468223      0.0539993      0.0502322
 Leave Link  202 at Fri Apr 28 12:05:11 2017, MaxMem=   33554432 cpu:       0.3
 (Enter /scratch/michal/g09/l301.exe)
 Standard basis: 6-31G(d) (6D, 7F)
 Ernie: Thresh=  0.10000D-02 Tol=  0.10000D-05 Strict=F.
 AO basis set in the form of general basis input (Overlap normalization):
      1 0
 S   6 1.00       0.000000000000
      0.3047524880D+04  0.1834737132D-02
      0.4573695180D+03  0.1403732281D-01
      0.1039486850D+03  0.6884262226D-01
      0.2921015530D+02  0.2321844432D+00
      0.9286662960D+01  0.4679413484D+00
      0.3163926960D+01  0.3623119853D+00
 SP   3 1.00       0.000000000000
      0.7868272350D+01 -0.1193324198D+00  0.6899906659D-01
      0.1881288540D+01 -0.1608541517D+00  0.3164239610D+00
      0.5442492580D+00  0.1143456438D+01  0.7443082909D+00
 SP   1 1.00       0.000000000000
      0.1687144782D+00  0.1000000000D+01  0.1000000000D+01
 D   1 1.00       0.000000000000
      0.8000000000D+00  0.1000000000D+01
 ****
      2 0
 S   3 1.00       0.000000000000
      0.1873113696D+02  0.3349460434D-01
      0.2825394365D+01  0.2347269535D+00
      0.6401216923D+00  0.8137573261D+00
 S   1 1.00       0.000000000000
      0.1612777588D+00  0.1000000000D+01
 ****
      3 0
 S   6 1.00       0.000000000000
      0.3047524880D+04  0.1834737132D-02
      0.4573695180D+03  0.1403732281D-01
      0.1039486850D+03  0.6884262226D-01
      0.2921015530D+02  0.2321844432D+00
      0.9286662960D+01  0.4679413484D+00
      0.3163926960D+01  0.3623119853D+00
 SP   3 1.00       0.000000000000
      0.7868272350D+01 -0.1193324198D+00  0.6899906659D-01
      0.1881288540D+01 -0.1608541517D+00  0.3164239610D+00
      0.5442492580D+00  0.1143456438D+01  0.7443082909D+00
 SP   1 1.00       0.000000000000
      0.1687144782D+00  0.1000000000D+01  0.1000000000D+01
 D   1 1.00       0.000000000000
      0.8000000000D+00  0.1000000000D+01
 ****
      4 0
 S   3 1.00       0.000000000000
      0.1873113696D+02  0.3349460434D-01
      0.2825394365D+01  0.2347269535D+00
      0.6401216923D+00  0.8137573261D+00
 S   1 1.00       0.000000000000
      0.1612777588D+00  0.1000000000D+01
 ****
      5 0
 S   3 1.00       0.000000000000
      0.1873113696D+02  0.3349460434D-01
      0.2825394365D+01  0.2347269535D+00
      0.6401216923D+00  0.8137573261D+00
 S   1 1.00       0.000000000000
      0.1612777588D+00  0.1000000000D+01
 ****
      6 0
 S   6 1.00       0.000000000000
      0.3047524880D+04  0.1834737132D-02
      0.4573695180D+03  0.1403732281D-01
      0.1039486850D+03  0.6884262226D-01
      0.2921015530D+02  0.2321844432D+00
      0.9286662960D+01  0.4679413484D+00
      0.3163926960D+01  0.3623119853D+00
 SP   3 1.00       0.000000000000
      0.7868272350D+01 -0.1193324198D+00  0.6899906659D-01
      0.1881288540D+01 -0.1608541517D+00  0.3164239610D+00
      0.5442492580D+00  0.1143456438D+01  0.7443082909D+00
 SP   1 1.00       0.000000000000
      0.1687144782D+00  0.1000000000D+01  0.1000000000D+01
 D   1 1.00       0.000000000000
      0.8000000000D+00  0.1000000000D+01
 ****
      7 0
 S   6 1.00       0.000000000000
      0.3047524880D+04  0.1834737132D-02
      0.4573695180D+03  0.1403732281D-01
      0.1039486850D+03  0.6884262226D-01
      0.2921015530D+02  0.2321844432D+00
      0.9286662960D+01  0.4679413484D+00
      0.3163926960D+01  0.3623119853D+00
 SP   3 1.00       0.000000000000
      0.7868272350D+01 -0.1193324198D+00  0.6899906659D-01
      0.1881288540D+01 -0.1608541517D+00  0.3164239610D+00
      0.5442492580D+00  0.1143456438D+01  0.7443082909D+00
 SP   1 1.00       0.000000000000
      0.1687144782D+00  0.1000000000D+01  0.1000000000D+01
 D   1 1.00       0.000000000000
      0.8000000000D+00  0.1000000000D+01
 ****
      8 0
 S   6 1.00       0.000000000000
      0.3047524880D+04  0.1834737132D-02
      0.4573695180D+03  0.1403732281D-01
      0.1039486850D+03  0.6884262226D-01
      0.2921015530D+02  0.2321844432D+00
      0.9286662960D+01  0.4679413484D+00
      0.3163926960D+01  0.3623119853D+00
 SP   3 1.00       0.000000000000
      0.7868272350D+01 -0.1193324198D+00  0.6899906659D-01
      0.1881288540D+01 -0.1608541517D+00  0.3164239610D+00
      0.5442492580D+00  0.1143456438D+01  0.7443082909D+00
 SP   1 1.00       0.000000000000
      0.1687144782D+00  0.1000000000D+01  0.1000000000D+01
 D   1 1.00       0.000000000000
      0.8000000000D+00  0.1000000000D+01
 ****
      9 0
 S   3 1.00       0.000000000000
      0.1873113696D+02  0.3349460434D-01
      0.2825394365D+01  0.2347269535D+00
      0.6401216923D+00  0.8137573261D+00
 S   1 1.00       0.000000000000
      0.1612777588D+00  0.1000000000D+01
 ****
     10 0
 S   3 1.00       0.000000000000
      0.1873113696D+02  0.3349460434D-01
      0.2825394365D+01  0.2347269535D+00
      0.6401216923D+00  0.8137573261D+00
 S   1 1.00       0.000000000000
      0.1612777588D+00  0.1000000000D+01
 ****
     11 0
 S   6 1.00       0.000000000000
      0.3047524880D+04  0.1834737132D-02
      0.4573695180D+03  0.1403732281D-01
      0.1039486850D+03  0.6884262226D-01
      0.2921015530D+02  0.2321844432D+00
      0.9286662960D+01  0.4679413484D+00
      0.3163926960D+01  0.3623119853D+00
 SP   3 1.00       0.000000000000
      0.7868272350D+01 -0.1193324198D+00  0.6899906659D-01
      0.1881288540D+01 -0.1608541517D+00  0.3164239610D+00
      0.5442492580D+00  0.1143456438D+01  0.7443082909D+00
 SP   1 1.00       0.000000000000
      0.1687144782D+00  0.1000000000D+01  0.1000000000D+01
 D   1 1.00       0.000000000000
      0.8000000000D+00  0.1000000000D+01
 ****
     12 0
 S   3 1.00       0.000000000000
      0.1873113696D+02  0.3349460434D-01
      0.2825394365D+01  0.2347269535D+00
      0.6401216923D+00  0.8137573261D+00
 S   1 1.00       0.000000000000
      0.1612777588D+00  0.1000000000D+01
 ****
     13 0
 S   3 1.00       0.000000000000
      0.1873113696D+02  0.3349460434D-01
      0.2825394365D+01  0.2347269535D+00
      0.6401216923D+00  0.8137573261D+00
 S   1 1.00       0.000000000000
      0.1612777588D+00  0.1000000000D+01
 ****
     14 0
 S   6 1.00       0.000000000000
      0.3047524880D+04  0.1834737132D-02
      0.4573695180D+03  0.1403732281D-01
      0.1039486850D+03  0.6884262226D-01
      0.2921015530D+02  0.2321844432D+00
      0.9286662960D+01  0.4679413484D+00
      0.3163926960D+01  0.3623119853D+00
 SP   3 1.00       0.000000000000
      0.7868272350D+01 -0.1193324198D+00  0.6899906659D-01
      0.1881288540D+01 -0.1608541517D+00  0.3164239610D+00
      0.5442492580D+00  0.1143456438D+01  0.7443082909D+00
 SP   1 1.00       0.000000000000
      0.1687144782D+00  0.1000000000D+01  0.1000000000D+01
 D   1 1.00       0.000000000000
      0.8000000000D+00  0.1000000000D+01
 ****
     15 0
 S   3 1.00       0.000000000000
      0.1873113696D+02  0.3349460434D-01
      0.2825394365D+01  0.2347269535D+00
      0.6401216923D+00  0.8137573261D+00
 S   1 1.00       0.000000000000
      0.1612777588D+00  0.1000000000D+01
 ****
     16 0
 S   6 1.00       0.000000000000
      0.3047524880D+04  0.1834737132D-02
      0.4573695180D+03  0.1403732281D-01
      0.1039486850D+03  0.6884262226D-01
      0.2921015530D+02  0.2321844432D+00
      0.9286662960D+01  0.4679413484D+00
      0.3163926960D+01  0.3623119853D+00
 SP   3 1.00       0.000000000000
      0.7868272350D+01 -0.1193324198D+00  0.6899906659D-01
      0.1881288540D+01 -0.1608541517D+00  0.3164239610D+00
      0.5442492580D+00  0.1143456438D+01  0.7443082909D+00
 SP   1 1.00       0.000000000000
      0.1687144782D+00  0.1000000000D+01  0.1000000000D+01
 D   1 1.00       0.000000000000
      0.8000000000D+00  0.1000000000D+01
 ****
     17 0
 S   3 1.00       0.000000000000
      0.1873113696D+02  0.3349460434D-01
      0.2825394365D+01  0.2347269535D+00
      0.6401216923D+00  0.8137573261D+00
 S   1 1.00       0.000000000000
      0.1612777588D+00  0.1000000000D+01
 ****
     18 0
 S   6 1.00       0.000000000000
      0.3047524880D+04  0.1834737132D-02
      0.4573695180D+03  0.1403732281D-01
      0.1039486850D+03  0.6884262226D-01
      0.2921015530D+02  0.2321844432D+00
      0.9286662960D+01  0.4679413484D+00
      0.3163926960D+01  0.3623119853D+00
 SP   3 1.00       0.000000000000
      0.7868272350D+01 -0.1193324198D+00  0.6899906659D-01
      0.1881288540D+01 -0.1608541517D+00  0.3164239610D+00
      0.5442492580D+00  0.1143456438D+01  0.7443082909D+00
 SP   1 1.00       0.000000000000
      0.1687144782D+00  0.1000000000D+01  0.1000000000D+01
 D   1 1.00       0.000000000000
      0.8000000000D+00  0.1000000000D+01
 ****
     19 0
 S   3 1.00       0.000000000000
      0.1873113696D+02  0.3349460434D-01
      0.2825394365D+01  0.2347269535D+00
      0.6401216923D+00  0.8137573261D+00
 S   1 1.00       0.000000000000
      0.1612777588D+00  0.1000000000D+01
 ****
     20 0
 S   6 1.00       0.000000000000
      0.3047524880D+04  0.1834737132D-02
      0.4573695180D+03  0.1403732281D-01
      0.1039486850D+03  0.6884262226D-01
      0.2921015530D+02  0.2321844432D+00
      0.9286662960D+01  0.4679413484D+00
      0.3163926960D+01  0.3623119853D+00
 SP   3 1.00       0.000000000000
      0.7868272350D+01 -0.1193324198D+00  0.6899906659D-01
      0.1881288540D+01 -0.1608541517D+00  0.3164239610D+00
      0.5442492580D+00  0.1143456438D+01  0.7443082909D+00
 SP   1 1.00       0.000000000000
      0.1687144782D+00  0.1000000000D+01  0.1000000000D+01
 D   1 1.00       0.000000000000
      0.8000000000D+00  0.1000000000D+01
 ****
     21 0
 S   3 1.00       0.000000000000
      0.1873113696D+02  0.3349460434D-01
      0.2825394365D+01  0.2347269535D+00
      0.6401216923D+00  0.8137573261D+00
 S   1 1.00       0.000000000000
      0.1612777588D+00  0.1000000000D+01
 ****
     22 0
 S   6 1.00       0.000000000000
      0.3047524880D+04  0.1834737132D-02
      0.4573695180D+03  0.1403732281D-01
      0.1039486850D+03  0.6884262226D-01
      0.2921015530D+02  0.2321844432D+00
      0.9286662960D+01  0.4679413484D+00
      0.3163926960D+01  0.3623119853D+00
 SP   3 1.00       0.000000000000
      0.7868272350D+01 -0.1193324198D+00  0.6899906659D-01
      0.1881288540D+01 -0.1608541517D+00  0.3164239610D+00
      0.5442492580D+00  0.1143456438D+01  0.7443082909D+00
 SP   1 1.00       0.000000000000
      0.1687144782D+00  0.1000000000D+01  0.1000000000D+01
 D   1 1.00       0.000000000000
      0.8000000000D+00  0.1000000000D+01
 ****
     23 0
 S   3 1.00       0.000000000000
      0.1873113696D+02  0.3349460434D-01
      0.2825394365D+01  0.2347269535D+00
      0.6401216923D+00  0.8137573261D+00
 S   1 1.00       0.000000000000
      0.1612777588D+00  0.1000000000D+01
 ****
     24 0
 S   3 1.00       0.000000000000
      0.1873113696D+02  0.3349460434D-01
      0.2825394365D+01  0.2347269535D+00
      0.6401216923D+00  0.8137573261D+00
 S   1 1.00       0.000000000000
      0.1612777588D+00  0.1000000000D+01
 ****
     25 0
 S   6 1.00       0.000000000000
      0.3047524880D+04  0.1834737132D-02
      0.4573695180D+03  0.1403732281D-01
      0.1039486850D+03  0.6884262226D-01
      0.2921015530D+02  0.2321844432D+00
      0.9286662960D+01  0.4679413484D+00
      0.3163926960D+01  0.3623119853D+00
 SP   3 1.00       0.000000000000
      0.7868272350D+01 -0.1193324198D+00  0.6899906659D-01
      0.1881288540D+01 -0.1608541517D+00  0.3164239610D+00
      0.5442492580D+00  0.1143456438D+01  0.7443082909D+00
 SP   1 1.00       0.000000000000
      0.1687144782D+00  0.1000000000D+01  0.1000000000D+01
 D   1 1.00       0.000000000000
      0.8000000000D+00  0.1000000000D+01
 ****
     26 0
 S   3 1.00       0.000000000000
      0.1873113696D+02  0.3349460434D-01
      0.2825394365D+01  0.2347269535D+00
      0.6401216923D+00  0.8137573261D+00
 S   1 1.00       0.000000000000
      0.1612777588D+00  0.1000000000D+01
 ****
     27 0
 S   3 1.00       0.000000000000
      0.1873113696D+02  0.3349460434D-01
      0.2825394365D+01  0.2347269535D+00
      0.6401216923D+00  0.8137573261D+00
 S   1 1.00       0.000000000000
      0.1612777588D+00  0.1000000000D+01
 ****
     28 0
 S   6 1.00       0.000000000000
      0.3047524880D+04  0.1834737132D-02
      0.4573695180D+03  0.1403732281D-01
      0.1039486850D+03  0.6884262226D-01
      0.2921015530D+02  0.2321844432D+00
      0.9286662960D+01  0.4679413484D+00
      0.3163926960D+01  0.3623119853D+00
 SP   3 1.00       0.000000000000
      0.7868272350D+01 -0.1193324198D+00  0.6899906659D-01
      0.1881288540D+01 -0.1608541517D+00  0.3164239610D+00
      0.5442492580D+00  0.1143456438D+01  0.7443082909D+00
 SP   1 1.00       0.000000000000
      0.1687144782D+00  0.1000000000D+01  0.1000000000D+01
 D   1 1.00       0.000000000000
      0.8000000000D+00  0.1000000000D+01
 ****
     29 0
 S   6 1.00       0.000000000000
      0.3047524880D+04  0.1834737132D-02
      0.4573695180D+03  0.1403732281D-01
      0.1039486850D+03  0.6884262226D-01
      0.2921015530D+02  0.2321844432D+00
      0.9286662960D+01  0.4679413484D+00
      0.3163926960D+01  0.3623119853D+00
 SP   3 1.00       0.000000000000
      0.7868272350D+01 -0.1193324198D+00  0.6899906659D-01
      0.1881288540D+01 -0.1608541517D+00  0.3164239610D+00
      0.5442492580D+00  0.1143456438D+01  0.7443082909D+00
 SP   1 1.00       0.000000000000
      0.1687144782D+00  0.1000000000D+01  0.1000000000D+01
 D   1 1.00       0.000000000000
      0.8000000000D+00  0.1000000000D+01
 ****
     30 0
 S   3 1.00       0.000000000000
      0.1873113696D+02  0.3349460434D-01
      0.2825394365D+01  0.2347269535D+00
      0.6401216923D+00  0.8137573261D+00
 S   1 1.00       0.000000000000
      0.1612777588D+00  0.1000000000D+01
 ****
     31 0
 S   6 1.00       0.000000000000
      0.3047524880D+04  0.1834737132D-02
      0.4573695180D+03  0.1403732281D-01
      0.1039486850D+03  0.6884262226D-01
      0.2921015530D+02  0.2321844432D+00
      0.9286662960D+01  0.4679413484D+00
      0.3163926960D+01  0.3623119853D+00
 SP   3 1.00       0.000000000000
      0.7868272350D+01 -0.1193324198D+00  0.6899906659D-01
      0.1881288540D+01 -0.1608541517D+00  0.3164239610D+00
      0.5442492580D+00  0.1143456438D+01  0.7443082909D+00
 SP   1 1.00       0.000000000000
      0.1687144782D+00  0.1000000000D+01  0.1000000000D+01
 D   1 1.00       0.000000000000
      0.8000000000D+00  0.1000000000D+01
 ****
     32 0
 S   3 1.00       0.000000000000
      0.1873113696D+02  0.3349460434D-01
      0.2825394365D+01  0.2347269535D+00
      0.6401216923D+00  0.8137573261D+00
 S   1 1.00       0.000000000000
      0.1612777588D+00  0.1000000000D+01
 ****
     33 0
 S   3 1.00       0.000000000000
      0.1873113696D+02  0.3349460434D-01
      0.2825394365D+01  0.2347269535D+00
      0.6401216923D+00  0.8137573261D+00
 S   1 1.00       0.000000000000
      0.1612777588D+00  0.1000000000D+01
 ****
     34 0
 S   6 1.00       0.000000000000
      0.3047524880D+04  0.1834737132D-02
      0.4573695180D+03  0.1403732281D-01
      0.1039486850D+03  0.6884262226D-01
      0.2921015530D+02  0.2321844432D+00
      0.9286662960D+01  0.4679413484D+00
      0.3163926960D+01  0.3623119853D+00
 SP   3 1.00       0.000000000000
      0.7868272350D+01 -0.1193324198D+00  0.6899906659D-01
      0.1881288540D+01 -0.1608541517D+00  0.3164239610D+00
      0.5442492580D+00  0.1143456438D+01  0.7443082909D+00
 SP   1 1.00       0.000000000000
      0.1687144782D+00  0.1000000000D+01  0.1000000000D+01
 D   1 1.00       0.000000000000
      0.8000000000D+00  0.1000000000D+01
 ****
     35 0
 S   3 1.00       0.000000000000
      0.1873113696D+02  0.3349460434D-01
      0.2825394365D+01  0.2347269535D+00
      0.6401216923D+00  0.8137573261D+00
 S   1 1.00       0.000000000000
      0.1612777588D+00  0.1000000000D+01
 ****
     36 0
 S   3 1.00       0.000000000000
      0.1873113696D+02  0.3349460434D-01
      0.2825394365D+01  0.2347269535D+00
      0.6401216923D+00  0.8137573261D+00
 S   1 1.00       0.000000000000
      0.1612777588D+00  0.1000000000D+01
 ****
     37 0
 S   6 1.00       0.000000000000
      0.3047524880D+04  0.1834737132D-02
      0.4573695180D+03  0.1403732281D-01
      0.1039486850D+03  0.6884262226D-01
      0.2921015530D+02  0.2321844432D+00
      0.9286662960D+01  0.4679413484D+00
      0.3163926960D+01  0.3623119853D+00
 SP   3 1.00       0.000000000000
      0.7868272350D+01 -0.1193324198D+00  0.6899906659D-01
      0.1881288540D+01 -0.1608541517D+00  0.3164239610D+00
      0.5442492580D+00  0.1143456438D+01  0.7443082909D+00
 SP   1 1.00       0.000000000000
      0.1687144782D+00  0.1000000000D+01  0.1000000000D+01
 D   1 1.00       0.000000000000
      0.8000000000D+00  0.1000000000D+01
 ****
     38 0
 S   3 1.00       0.000000000000
      0.1873113696D+02  0.3349460434D-01
      0.2825394365D+01  0.2347269535D+00
      0.6401216923D+00  0.8137573261D+00
 S   1 1.00       0.000000000000
      0.1612777588D+00  0.1000000000D+01
 ****
     39 0
 S   6 1.00       0.000000000000
      0.3047524880D+04  0.1834737132D-02
      0.4573695180D+03  0.1403732281D-01
      0.1039486850D+03  0.6884262226D-01
      0.2921015530D+02  0.2321844432D+00
      0.9286662960D+01  0.4679413484D+00
      0.3163926960D+01  0.3623119853D+00
 SP   3 1.00       0.000000000000
      0.7868272350D+01 -0.1193324198D+00  0.6899906659D-01
      0.1881288540D+01 -0.1608541517D+00  0.3164239610D+00
      0.5442492580D+00  0.1143456438D+01  0.7443082909D+00
 SP   1 1.00       0.000000000000
      0.1687144782D+00  0.1000000000D+01  0.1000000000D+01
 D   1 1.00       0.000000000000
      0.8000000000D+00  0.1000000000D+01
 ****
     40 0
 S   3 1.00       0.000000000000
      0.1873113696D+02  0.3349460434D-01
      0.2825394365D+01  0.2347269535D+00
      0.6401216923D+00  0.8137573261D+00
 S   1 1.00       0.000000000000
      0.1612777588D+00  0.1000000000D+01
 ****
     41 0
 S   3 1.00       0.000000000000
      0.1873113696D+02  0.3349460434D-01
      0.2825394365D+01  0.2347269535D+00
      0.6401216923D+00  0.8137573261D+00
 S   1 1.00       0.000000000000
      0.1612777588D+00  0.1000000000D+01
 ****
     42 0
 S   3 1.00       0.000000000000
      0.1873113696D+02  0.3349460434D-01
      0.2825394365D+01  0.2347269535D+00
      0.6401216923D+00  0.8137573261D+00
 S   1 1.00       0.000000000000
      0.1612777588D+00  0.1000000000D+01
 ****
     43 0
 S   6 1.00       0.000000000000
      0.3047524880D+04  0.1834737132D-02
      0.4573695180D+03  0.1403732281D-01
      0.1039486850D+03  0.6884262226D-01
      0.2921015530D+02  0.2321844432D+00
      0.9286662960D+01  0.4679413484D+00
      0.3163926960D+01  0.3623119853D+00
 SP   3 1.00       0.000000000000
      0.7868272350D+01 -0.1193324198D+00  0.6899906659D-01
      0.1881288540D+01 -0.1608541517D+00  0.3164239610D+00
      0.5442492580D+00  0.1143456438D+01  0.7443082909D+00
 SP   1 1.00       0.000000000000
      0.1687144782D+00  0.1000000000D+01  0.1000000000D+01
 D   1 1.00       0.000000000000
      0.8000000000D+00  0.1000000000D+01
 ****
     44 0
 S   3 1.00       0.000000000000
      0.1873113696D+02  0.3349460434D-01
      0.2825394365D+01  0.2347269535D+00
      0.6401216923D+00  0.8137573261D+00
 S   1 1.00       0.000000000000
      0.1612777588D+00  0.1000000000D+01
 ****
     45 0
 S   6 1.00       0.000000000000
      0.3047524880D+04  0.1834737132D-02
      0.4573695180D+03  0.1403732281D-01
      0.1039486850D+03  0.6884262226D-01
      0.2921015530D+02  0.2321844432D+00
      0.9286662960D+01  0.4679413484D+00
      0.3163926960D+01  0.3623119853D+00
 SP   3 1.00       0.000000000000
      0.7868272350D+01 -0.1193324198D+00  0.6899906659D-01
      0.1881288540D+01 -0.1608541517D+00  0.3164239610D+00
      0.5442492580D+00  0.1143456438D+01  0.7443082909D+00
 SP   1 1.00       0.000000000000
      0.1687144782D+00  0.1000000000D+01  0.1000000000D+01
 D   1 1.00       0.000000000000
      0.8000000000D+00  0.1000000000D+01
 ****
     46 0
 S   3 1.00       0.000000000000
      0.1873113696D+02  0.3349460434D-01
      0.2825394365D+01  0.2347269535D+00
      0.6401216923D+00  0.8137573261D+00
 S   1 1.00       0.000000000000
      0.1612777588D+00  0.1000000000D+01
 ****
     47 0
 S   3 1.00       0.000000000000
      0.1873113696D+02  0.3349460434D-01
      0.2825394365D+01  0.2347269535D+00
      0.6401216923D+00  0.8137573261D+00
 S   1 1.00       0.000000000000
      0.1612777588D+00  0.1000000000D+01
 ****
     48 0
 S   3 1.00       0.000000000000
      0.1873113696D+02  0.3349460434D-01
      0.2825394365D+01  0.2347269535D+00
      0.6401216923D+00  0.8137573261D+00
 S   1 1.00       0.000000000000
      0.1612777588D+00  0.1000000000D+01
 ****
     49 0
 S   6 1.00       0.000000000000
      0.3047524880D+04  0.1834737132D-02
      0.4573695180D+03  0.1403732281D-01
      0.1039486850D+03  0.6884262226D-01
      0.2921015530D+02  0.2321844432D+00
      0.9286662960D+01  0.4679413484D+00
      0.3163926960D+01  0.3623119853D+00
 SP   3 1.00       0.000000000000
      0.7868272350D+01 -0.1193324198D+00  0.6899906659D-01
      0.1881288540D+01 -0.1608541517D+00  0.3164239610D+00
      0.5442492580D+00  0.1143456438D+01  0.7443082909D+00
 SP   1 1.00       0.000000000000
      0.1687144782D+00  0.1000000000D+01  0.1000000000D+01
 D   1 1.00       0.000000000000
      0.8000000000D+00  0.1000000000D+01
 ****
     50 0
 S   3 1.00       0.000000000000
      0.1873113696D+02  0.3349460434D-01
      0.2825394365D+01  0.2347269535D+00
      0.6401216923D+00  0.8137573261D+00
 S   1 1.00       0.000000000000
      0.1612777588D+00  0.1000000000D+01
 ****
     51 0
 S   3 1.00       0.000000000000
      0.1873113696D+02  0.3349460434D-01
      0.2825394365D+01  0.2347269535D+00
      0.6401216923D+00  0.8137573261D+00
 S   1 1.00       0.000000000000
      0.1612777588D+00  0.1000000000D+01
 ****
     52 0
 S   3 1.00       0.000000000000
      0.1873113696D+02  0.3349460434D-01
      0.2825394365D+01  0.2347269535D+00
      0.6401216923D+00  0.8137573261D+00
 S   1 1.00       0.000000000000
      0.1612777588D+00  0.1000000000D+01
 ****
     53 0
 S   6 1.00       0.000000000000
      0.5484671660D+04  0.1831074430D-02
      0.8252349460D+03  0.1395017220D-01
      0.1880469580D+03  0.6844507810D-01
      0.5296450000D+02  0.2327143360D+00
      0.1689757040D+02  0.4701928980D+00
      0.5799635340D+01  0.3585208530D+00
 SP   3 1.00       0.000000000000
      0.1553961625D+02 -0.1107775495D+00  0.7087426823D-01
      0.3599933586D+01 -0.1480262627D+00  0.3397528391D+00
      0.1013761750D+01  0.1130767015D+01  0.7271585773D+00
 SP   1 1.00       0.000000000000
      0.2700058226D+00  0.1000000000D+01  0.1000000000D+01
 D   1 1.00       0.000000000000
      0.8000000000D+00  0.1000000000D+01
 ****
     54 0
 S   6 1.00       0.000000000000
      0.5484671660D+04  0.1831074430D-02
      0.8252349460D+03  0.1395017220D-01
      0.1880469580D+03  0.6844507810D-01
      0.5296450000D+02  0.2327143360D+00
      0.1689757040D+02  0.4701928980D+00
      0.5799635340D+01  0.3585208530D+00
 SP   3 1.00       0.000000000000
      0.1553961625D+02 -0.1107775495D+00  0.7087426823D-01
      0.3599933586D+01 -0.1480262627D+00  0.3397528391D+00
      0.1013761750D+01  0.1130767015D+01  0.7271585773D+00
 SP   1 1.00       0.000000000000
      0.2700058226D+00  0.1000000000D+01  0.1000000000D+01
 D   1 1.00       0.000000000000
      0.8000000000D+00  0.1000000000D+01
 ****
     55 0
 S   3 1.00       0.000000000000
      0.1873113696D+02  0.3349460434D-01
      0.2825394365D+01  0.2347269535D+00
      0.6401216923D+00  0.8137573261D+00
 S   1 1.00       0.000000000000
      0.1612777588D+00  0.1000000000D+01
 ****
     56 0
 S   6 1.00       0.000000000000
      0.5484671660D+04  0.1831074430D-02
      0.8252349460D+03  0.1395017220D-01
      0.1880469580D+03  0.6844507810D-01
      0.5296450000D+02  0.2327143360D+00
      0.1689757040D+02  0.4701928980D+00
      0.5799635340D+01  0.3585208530D+00
 SP   3 1.00       0.000000000000
      0.1553961625D+02 -0.1107775495D+00  0.7087426823D-01
      0.3599933586D+01 -0.1480262627D+00  0.3397528391D+00
      0.1013761750D+01  0.1130767015D+01  0.7271585773D+00
 SP   1 1.00       0.000000000000
      0.2700058226D+00  0.1000000000D+01  0.1000000000D+01
 D   1 1.00       0.000000000000
      0.8000000000D+00  0.1000000000D+01
 ****
     57 0
 S   3 1.00       0.000000000000
      0.1873113696D+02  0.3349460434D-01
      0.2825394365D+01  0.2347269535D+00
      0.6401216923D+00  0.8137573261D+00
 S   1 1.00       0.000000000000
      0.1612777588D+00  0.1000000000D+01
 ****
     58 0
 S   6 1.00       0.000000000000
      0.3047524880D+04  0.1834737132D-02
      0.4573695180D+03  0.1403732281D-01
      0.1039486850D+03  0.6884262226D-01
      0.2921015530D+02  0.2321844432D+00
      0.9286662960D+01  0.4679413484D+00
      0.3163926960D+01  0.3623119853D+00
 SP   3 1.00       0.000000000000
      0.7868272350D+01 -0.1193324198D+00  0.6899906659D-01
      0.1881288540D+01 -0.1608541517D+00  0.3164239610D+00
      0.5442492580D+00  0.1143456438D+01  0.7443082909D+00
 SP   1 1.00       0.000000000000
      0.1687144782D+00  0.1000000000D+01  0.1000000000D+01
 D   1 1.00       0.000000000000
      0.8000000000D+00  0.1000000000D+01
 ****
     59 0
 S   3 1.00       0.000000000000
      0.1873113696D+02  0.3349460434D-01
      0.2825394365D+01  0.2347269535D+00
      0.6401216923D+00  0.8137573261D+00
 S   1 1.00       0.000000000000
      0.1612777588D+00  0.1000000000D+01
 ****
     60 0
 S   3 1.00       0.000000000000
      0.1873113696D+02  0.3349460434D-01
      0.2825394365D+01  0.2347269535D+00
      0.6401216923D+00  0.8137573261D+00
 S   1 1.00       0.000000000000
      0.1612777588D+00  0.1000000000D+01
 ****
     61 0
 S   6 1.00       0.000000000000
      0.3047524880D+04  0.1834737132D-02
      0.4573695180D+03  0.1403732281D-01
      0.1039486850D+03  0.6884262226D-01
      0.2921015530D+02  0.2321844432D+00
      0.9286662960D+01  0.4679413484D+00
      0.3163926960D+01  0.3623119853D+00
 SP   3 1.00       0.000000000000
      0.7868272350D+01 -0.1193324198D+00  0.6899906659D-01
      0.1881288540D+01 -0.1608541517D+00  0.3164239610D+00
      0.5442492580D+00  0.1143456438D+01  0.7443082909D+00
 SP   1 1.00       0.000000000000
      0.1687144782D+00  0.1000000000D+01  0.1000000000D+01
 D   1 1.00       0.000000000000
      0.8000000000D+00  0.1000000000D+01
 ****
     62 0
 S   3 1.00       0.000000000000
      0.1873113696D+02  0.3349460434D-01
      0.2825394365D+01  0.2347269535D+00
      0.6401216923D+00  0.8137573261D+00
 S   1 1.00       0.000000000000
      0.1612777588D+00  0.1000000000D+01
 ****
     63 0
 S   3 1.00       0.000000000000
      0.1873113696D+02  0.3349460434D-01
      0.2825394365D+01  0.2347269535D+00
      0.6401216923D+00  0.8137573261D+00
 S   1 1.00       0.000000000000
      0.1612777588D+00  0.1000000000D+01
 ****
     64 0
 S   6 1.00       0.000000000000
      0.3047524880D+04  0.1834737132D-02
      0.4573695180D+03  0.1403732281D-01
      0.1039486850D+03  0.6884262226D-01
      0.2921015530D+02  0.2321844432D+00
      0.9286662960D+01  0.4679413484D+00
      0.3163926960D+01  0.3623119853D+00
 SP   3 1.00       0.000000000000
      0.7868272350D+01 -0.1193324198D+00  0.6899906659D-01
      0.1881288540D+01 -0.1608541517D+00  0.3164239610D+00
      0.5442492580D+00  0.1143456438D+01  0.7443082909D+00
 SP   1 1.00       0.000000000000
      0.1687144782D+00  0.1000000000D+01  0.1000000000D+01
 D   1 1.00       0.000000000000
      0.8000000000D+00  0.1000000000D+01
 ****
     65 0
 S   3 1.00       0.000000000000
      0.1873113696D+02  0.3349460434D-01
      0.2825394365D+01  0.2347269535D+00
      0.6401216923D+00  0.8137573261D+00
 S   1 1.00       0.000000000000
      0.1612777588D+00  0.1000000000D+01
 ****
     66 0
 S   3 1.00       0.000000000000
      0.1873113696D+02  0.3349460434D-01
      0.2825394365D+01  0.2347269535D+00
      0.6401216923D+00  0.8137573261D+00
 S   1 1.00       0.000000000000
      0.1612777588D+00  0.1000000000D+01
 ****
     67 0
 S   6 1.00       0.000000000000
      0.3047524880D+04  0.1834737132D-02
      0.4573695180D+03  0.1403732281D-01
      0.1039486850D+03  0.6884262226D-01
      0.2921015530D+02  0.2321844432D+00
      0.9286662960D+01  0.4679413484D+00
      0.3163926960D+01  0.3623119853D+00
 SP   3 1.00       0.000000000000
      0.7868272350D+01 -0.1193324198D+00  0.6899906659D-01
      0.1881288540D+01 -0.1608541517D+00  0.3164239610D+00
      0.5442492580D+00  0.1143456438D+01  0.7443082909D+00
 SP   1 1.00       0.000000000000
      0.1687144782D+00  0.1000000000D+01  0.1000000000D+01
 D   1 1.00       0.000000000000
      0.8000000000D+00  0.1000000000D+01
 ****
     68 0
 S   3 1.00       0.000000000000
      0.1873113696D+02  0.3349460434D-01
      0.2825394365D+01  0.2347269535D+00
      0.6401216923D+00  0.8137573261D+00
 S   1 1.00       0.000000000000
      0.1612777588D+00  0.1000000000D+01
 ****
     69 0
 S   6 1.00       0.000000000000
      0.3047524880D+04  0.1834737132D-02
      0.4573695180D+03  0.1403732281D-01
      0.1039486850D+03  0.6884262226D-01
      0.2921015530D+02  0.2321844432D+00
      0.9286662960D+01  0.4679413484D+00
      0.3163926960D+01  0.3623119853D+00
 SP   3 1.00       0.000000000000
      0.7868272350D+01 -0.1193324198D+00  0.6899906659D-01
      0.1881288540D+01 -0.1608541517D+00  0.3164239610D+00
      0.5442492580D+00  0.1143456438D+01  0.7443082909D+00
 SP   1 1.00       0.000000000000
      0.1687144782D+00  0.1000000000D+01  0.1000000000D+01
 D   1 1.00       0.000000000000
      0.8000000000D+00  0.1000000000D+01
 ****
     70 0
 S   3 1.00       0.000000000000
      0.1873113696D+02  0.3349460434D-01
      0.2825394365D+01  0.2347269535D+00
      0.6401216923D+00  0.8137573261D+00
 S   1 1.00       0.000000000000
      0.1612777588D+00  0.1000000000D+01
 ****
     71 0
 S   3 1.00       0.000000000000
      0.1873113696D+02  0.3349460434D-01
      0.2825394365D+01  0.2347269535D+00
      0.6401216923D+00  0.8137573261D+00
 S   1 1.00       0.000000000000
      0.1612777588D+00  0.1000000000D+01
 ****
     72 0
 S   3 1.00       0.000000000000
      0.1873113696D+02  0.3349460434D-01
      0.2825394365D+01  0.2347269535D+00
      0.6401216923D+00  0.8137573261D+00
 S   1 1.00       0.000000000000
      0.1612777588D+00  0.1000000000D+01
 ****
     73 0
 S   6 1.00       0.000000000000
      0.3047524880D+04  0.1834737132D-02
      0.4573695180D+03  0.1403732281D-01
      0.1039486850D+03  0.6884262226D-01
      0.2921015530D+02  0.2321844432D+00
      0.9286662960D+01  0.4679413484D+00
      0.3163926960D+01  0.3623119853D+00
 SP   3 1.00       0.000000000000
      0.7868272350D+01 -0.1193324198D+00  0.6899906659D-01
      0.1881288540D+01 -0.1608541517D+00  0.3164239610D+00
      0.5442492580D+00  0.1143456438D+01  0.7443082909D+00
 SP   1 1.00       0.000000000000
      0.1687144782D+00  0.1000000000D+01  0.1000000000D+01
 D   1 1.00       0.000000000000
      0.8000000000D+00  0.1000000000D+01
 ****
     74 0
 S   3 1.00       0.000000000000
      0.1873113696D+02  0.3349460434D-01
      0.2825394365D+01  0.2347269535D+00
      0.6401216923D+00  0.8137573261D+00
 S   1 1.00       0.000000000000
      0.1612777588D+00  0.1000000000D+01
 ****
     75 0
 S   3 1.00       0.000000000000
      0.1873113696D+02  0.3349460434D-01
      0.2825394365D+01  0.2347269535D+00
      0.6401216923D+00  0.8137573261D+00
 S   1 1.00       0.000000000000
      0.1612777588D+00  0.1000000000D+01
 ****
     76 0
 S   3 1.00       0.000000000000
      0.1873113696D+02  0.3349460434D-01
      0.2825394365D+01  0.2347269535D+00
      0.6401216923D+00  0.8137573261D+00
 S   1 1.00       0.000000000000
      0.1612777588D+00  0.1000000000D+01
 ****

 AO basis set (Overlap normalization):
 Atom C1       Shell     1 S   6     bf    1 -     1         -1.912220790265          3.749462274248          3.178856747217
      0.3047524880D+04  0.1834737132D-02
      0.4573695180D+03  0.1403732281D-01
      0.1039486850D+03  0.6884262226D-01
      0.2921015530D+02  0.2321844432D+00
      0.9286662960D+01  0.4679413484D+00
      0.3163926960D+01  0.3623119853D+00
 Atom C1       Shell     2 SP   3    bf    2 -     5         -1.912220790265          3.749462274248          3.178856747217
      0.7868272350D+01 -0.1193324198D+00  0.6899906659D-01
      0.1881288540D+01 -0.1608541517D+00  0.3164239610D+00
      0.5442492580D+00  0.1143456438D+01  0.7443082909D+00
 Atom C1       Shell     3 SP   1    bf    6 -     9         -1.912220790265          3.749462274248          3.178856747217
      0.1687144782D+00  0.1000000000D+01  0.1000000000D+01
 Atom C1       Shell     4 D   1     bf   10 -    15         -1.912220790265          3.749462274248          3.178856747217
      0.8000000000D+00  0.1000000000D+01
 Atom H2       Shell     5 S   3     bf   16 -    16         -1.873831929841          1.903946699981          4.121987369433
      0.1873113696D+02  0.3349460434D-01
      0.2825394365D+01  0.2347269535D+00
      0.6401216923D+00  0.8137573261D+00
 Atom H2       Shell     6 S   1     bf   17 -    17         -1.873831929841          1.903946699981          4.121987369433
      0.1612777588D+00  0.1000000000D+01
 Atom C3       Shell     7 S   6     bf   18 -    18          0.594199967224          5.120151484263          3.681386420989
      0.3047524880D+04  0.1834737132D-02
      0.4573695180D+03  0.1403732281D-01
      0.1039486850D+03  0.6884262226D-01
      0.2921015530D+02  0.2321844432D+00
      0.9286662960D+01  0.4679413484D+00
      0.3163926960D+01  0.3623119853D+00
 Atom C3       Shell     8 SP   3    bf   19 -    22          0.594199967224          5.120151484263          3.681386420989
      0.7868272350D+01 -0.1193324198D+00  0.6899906659D-01
      0.1881288540D+01 -0.1608541517D+00  0.3164239610D+00
      0.5442492580D+00  0.1143456438D+01  0.7443082909D+00
 Atom C3       Shell     9 SP   1    bf   23 -    26          0.594199967224          5.120151484263          3.681386420989
      0.1687144782D+00  0.1000000000D+01  0.1000000000D+01
 Atom C3       Shell    10 D   1     bf   27 -    32          0.594199967224          5.120151484263          3.681386420989
      0.8000000000D+00  0.1000000000D+01
 Atom H4       Shell    11 S   3     bf   33 -    33          0.896272122648          5.307832337458          5.718416781522
      0.1873113696D+02  0.3349460434D-01
      0.2825394365D+01  0.2347269535D+00
      0.6401216923D+00  0.8137573261D+00
 Atom H4       Shell    12 S   1     bf   34 -    34          0.896272122648          5.307832337458          5.718416781522
      0.1612777588D+00  0.1000000000D+01
 Atom H5       Shell    13 S   3     bf   35 -    35          0.417914710630          7.052685828901          2.924112707203
      0.1873113696D+02  0.3349460434D-01
      0.2825394365D+01  0.2347269535D+00
      0.6401216923D+00  0.8137573261D+00
 Atom H5       Shell    14 S   1     bf   36 -    36          0.417914710630          7.052685828901          2.924112707203
      0.1612777588D+00  0.1000000000D+01
 Atom C6       Shell    15 S   6     bf   37 -    37          2.837773255582          3.814217784205          2.464101398990
      0.3047524880D+04  0.1834737132D-02
      0.4573695180D+03  0.1403732281D-01
      0.1039486850D+03  0.6884262226D-01
      0.2921015530D+02  0.2321844432D+00
      0.9286662960D+01  0.4679413484D+00
      0.3163926960D+01  0.3623119853D+00
 Atom C6       Shell    16 SP   3    bf   38 -    41          2.837773255582          3.814217784205          2.464101398990
      0.7868272350D+01 -0.1193324198D+00  0.6899906659D-01
      0.1881288540D+01 -0.1608541517D+00  0.3164239610D+00
      0.5442492580D+00  0.1143456438D+01  0.7443082909D+00
 Atom C6       Shell    17 SP   1    bf   42 -    45          2.837773255582          3.814217784205          2.464101398990
      0.1687144782D+00  0.1000000000D+01  0.1000000000D+01
 Atom C6       Shell    18 D   1     bf   46 -    51          2.837773255582          3.814217784205          2.464101398990
      0.8000000000D+00  0.1000000000D+01
 Atom C7       Shell    19 S   6     bf   52 -    52          2.615686347657          3.143610369072         -0.343272701566
      0.3047524880D+04  0.1834737132D-02
      0.4573695180D+03  0.1403732281D-01
      0.1039486850D+03  0.6884262226D-01
      0.2921015530D+02  0.2321844432D+00
      0.9286662960D+01  0.4679413484D+00
      0.3163926960D+01  0.3623119853D+00
 Atom C7       Shell    20 SP   3    bf   53 -    56          2.615686347657          3.143610369072         -0.343272701566
      0.7868272350D+01 -0.1193324198D+00  0.6899906659D-01
      0.1881288540D+01 -0.1608541517D+00  0.3164239610D+00
      0.5442492580D+00  0.1143456438D+01  0.7443082909D+00
 Atom C7       Shell    21 SP   1    bf   57 -    60          2.615686347657          3.143610369072         -0.343272701566
      0.1687144782D+00  0.1000000000D+01  0.1000000000D+01
 Atom C7       Shell    22 D   1     bf   61 -    66          2.615686347657          3.143610369072         -0.343272701566
      0.8000000000D+00  0.1000000000D+01
 Atom C8       Shell    23 S   6     bf   67 -    67         -0.023885325737          1.913180166428         -0.807337302259
      0.3047524880D+04  0.1834737132D-02
      0.4573695180D+03  0.1403732281D-01
      0.1039486850D+03  0.6884262226D-01
      0.2921015530D+02  0.2321844432D+00
      0.9286662960D+01  0.4679413484D+00
      0.3163926960D+01  0.3623119853D+00
 Atom C8       Shell    24 SP   3    bf   68 -    71         -0.023885325737          1.913180166428         -0.807337302259
      0.7868272350D+01 -0.1193324198D+00  0.6899906659D-01
      0.1881288540D+01 -0.1608541517D+00  0.3164239610D+00
      0.5442492580D+00  0.1143456438D+01  0.7443082909D+00
 Atom C8       Shell    25 SP   1    bf   72 -    75         -0.023885325737          1.913180166428         -0.807337302259
      0.1687144782D+00  0.1000000000D+01  0.1000000000D+01
 Atom C8       Shell    26 D   1     bf   76 -    81         -0.023885325737          1.913180166428         -0.807337302259
      0.8000000000D+00  0.1000000000D+01
 Atom H9       Shell    27 S   3     bf   82 -    82          0.000000000000          0.000000000000          0.000000000000
      0.1873113696D+02  0.3349460434D-01
      0.2825394365D+01  0.2347269535D+00
      0.6401216923D+00  0.8137573261D+00
 Atom H9       Shell    28 S   1     bf   83 -    83          0.000000000000          0.000000000000          0.000000000000
      0.1612777588D+00  0.1000000000D+01
 Atom H10      Shell    29 S   3     bf   84 -    84         -0.333865115753          1.687800089463         -2.841144715975
      0.1873113696D+02  0.3349460434D-01
      0.2825394365D+01  0.2347269535D+00
      0.6401216923D+00  0.8137573261D+00
 Atom H10      Shell    30 S   1     bf   85 -    85         -0.333865115753          1.687800089463         -2.841144715975
      0.1612777588D+00  0.1000000000D+01
 Atom C11      Shell    31 S   6     bf   86 -    86         -2.267886485886          3.355064751807          0.339881191178
      0.3047524880D+04  0.1834737132D-02
      0.4573695180D+03  0.1403732281D-01
      0.1039486850D+03  0.6884262226D-01
      0.2921015530D+02  0.2321844432D+00
      0.9286662960D+01  0.4679413484D+00
      0.3163926960D+01  0.3623119853D+00
 Atom C11      Shell    32 SP   3    bf   87 -    90         -2.267886485886          3.355064751807          0.339881191178
      0.7868272350D+01 -0.1193324198D+00  0.6899906659D-01
      0.1881288540D+01 -0.1608541517D+00  0.3164239610D+00
      0.5442492580D+00  0.1143456438D+01  0.7443082909D+00
 Atom C11      Shell    33 SP   1    bf   91 -    94         -2.267886485886          3.355064751807          0.339881191178
      0.1687144782D+00  0.1000000000D+01  0.1000000000D+01
 Atom C11      Shell    34 D   1     bf   95 -   100         -2.267886485886          3.355064751807          0.339881191178
      0.8000000000D+00  0.1000000000D+01
 Atom H12      Shell    35 S   3     bf  101 -   101         -2.488453260315          5.207151243989         -0.578115260888
      0.1873113696D+02  0.3349460434D-01
      0.2825394365D+01  0.2347269535D+00
      0.6401216923D+00  0.8137573261D+00
 Atom H12      Shell    36 S   1     bf  102 -   102         -2.488453260315          5.207151243989         -0.578115260888
      0.1612777588D+00  0.1000000000D+01
 Atom H13      Shell    37 S   3     bf  103 -   103         -4.025141550740          2.313073125847          0.000000000000
      0.1873113696D+02  0.3349460434D-01
      0.2825394365D+01  0.2347269535D+00
      0.6401216923D+00  0.8137573261D+00
 Atom H13      Shell    38 S   1     bf  104 -   104         -4.025141550740          2.313073125847          0.000000000000
      0.1612777588D+00  0.1000000000D+01
 Atom C14      Shell    39 S   6     bf  105 -   105          4.913059628791          3.322525028402          3.827518734975
      0.3047524880D+04  0.1834737132D-02
      0.4573695180D+03  0.1403732281D-01
      0.1039486850D+03  0.6884262226D-01
      0.2921015530D+02  0.2321844432D+00
      0.9286662960D+01  0.4679413484D+00
      0.3163926960D+01  0.3623119853D+00
 Atom C14      Shell    40 SP   3    bf  106 -   109          4.913059628791          3.322525028402          3.827518734975
      0.7868272350D+01 -0.1193324198D+00  0.6899906659D-01
      0.1881288540D+01 -0.1608541517D+00  0.3164239610D+00
      0.5442492580D+00  0.1143456438D+01  0.7443082909D+00
 Atom C14      Shell    41 SP   1    bf  110 -   113          4.913059628791          3.322525028402          3.827518734975
      0.1687144782D+00  0.1000000000D+01  0.1000000000D+01
 Atom C14      Shell    42 D   1     bf  114 -   119          4.913059628791          3.322525028402          3.827518734975
      0.8000000000D+00  0.1000000000D+01
 Atom H15      Shell    43 S   3     bf  120 -   120          4.966301320880          3.823681211425          5.820267672160
      0.1873113696D+02  0.3349460434D-01
      0.2825394365D+01  0.2347269535D+00
      0.6401216923D+00  0.8137573261D+00
 Atom H15      Shell    44 S   1     bf  121 -   121          4.966301320880          3.823681211425          5.820267672160
      0.1612777588D+00  0.1000000000D+01
 Atom C16      Shell    45 S   6     bf  122 -   122          7.303103662188          2.172913555865          2.825799969701
      0.3047524880D+04  0.1834737132D-02
      0.4573695180D+03  0.1403732281D-01
      0.1039486850D+03  0.6884262226D-01
      0.2921015530D+02  0.2321844432D+00
      0.9286662960D+01  0.4679413484D+00
      0.3163926960D+01  0.3623119853D+00
 Atom C16      Shell    46 SP   3    bf  123 -   126          7.303103662188          2.172913555865          2.825799969701
      0.7868272350D+01 -0.1193324198D+00  0.6899906659D-01
      0.1881288540D+01 -0.1608541517D+00  0.3164239610D+00
      0.5442492580D+00  0.1143456438D+01  0.7443082909D+00
 Atom C16      Shell    47 SP   1    bf  127 -   130          7.303103662188          2.172913555865          2.825799969701
      0.1687144782D+00  0.1000000000D+01  0.1000000000D+01
 Atom C16      Shell    48 D   1     bf  131 -   136          7.303103662188          2.172913555865          2.825799969701
      0.8000000000D+00  0.1000000000D+01
 Atom H17      Shell    49 S   3     bf  137 -   137          7.650903712932          0.336385764750          3.740050946777
      0.1873113696D+02  0.3349460434D-01
      0.2825394365D+01  0.2347269535D+00
      0.6401216923D+00  0.8137573261D+00
 Atom H17      Shell    50 S   1     bf  138 -   138          7.650903712932          0.336385764750          3.740050946777
      0.1612777588D+00  0.1000000000D+01
 Atom C18      Shell    51 S   6     bf  139 -   139          7.379448900313          1.879944891525         -0.063946253638
      0.3047524880D+04  0.1834737132D-02
      0.4573695180D+03  0.1403732281D-01
      0.1039486850D+03  0.6884262226D-01
      0.2921015530D+02  0.2321844432D+00
      0.9286662960D+01  0.4679413484D+00
      0.3163926960D+01  0.3623119853D+00
 Atom C18      Shell    52 SP   3    bf  140 -   143          7.379448900313          1.879944891525         -0.063946253638
      0.7868272350D+01 -0.1193324198D+00  0.6899906659D-01
      0.1881288540D+01 -0.1608541517D+00  0.3164239610D+00
      0.5442492580D+00  0.1143456438D+01  0.7443082909D+00
 Atom C18      Shell    53 SP   1    bf  144 -   147          7.379448900313          1.879944891525         -0.063946253638
      0.1687144782D+00  0.1000000000D+01  0.1000000000D+01
 Atom C18      Shell    54 D   1     bf  148 -   153          7.379448900313          1.879944891525         -0.063946253638
      0.8000000000D+00  0.1000000000D+01
 Atom H19      Shell    55 S   3     bf  154 -   154          7.951783753522          3.718025319425         -0.837973277764
      0.1873113696D+02  0.3349460434D-01
      0.2825394365D+01  0.2347269535D+00
      0.6401216923D+00  0.8137573261D+00
 Atom H19      Shell    56 S   1     bf  155 -   155          7.951783753522          3.718025319425         -0.837973277764
      0.1612777588D+00  0.1000000000D+01
 Atom C20      Shell    57 S   6     bf  156 -   156          4.710366016408          1.181402410859         -1.072215981319
      0.3047524880D+04  0.1834737132D-02
      0.4573695180D+03  0.1403732281D-01
      0.1039486850D+03  0.6884262226D-01
      0.2921015530D+02  0.2321844432D+00
      0.9286662960D+01  0.4679413484D+00
      0.3163926960D+01  0.3623119853D+00
 Atom C20      Shell    58 SP   3    bf  157 -   160          4.710366016408          1.181402410859         -1.072215981319
      0.7868272350D+01 -0.1193324198D+00  0.6899906659D-01
      0.1881288540D+01 -0.1608541517D+00  0.3164239610D+00
      0.5442492580D+00  0.1143456438D+01  0.7443082909D+00
 Atom C20      Shell    59 SP   1    bf  161 -   164          4.710366016408          1.181402410859         -1.072215981319
      0.1687144782D+00  0.1000000000D+01  0.1000000000D+01
 Atom C20      Shell    60 D   1     bf  165 -   170          4.710366016408          1.181402410859         -1.072215981319
      0.8000000000D+00  0.1000000000D+01
 Atom H21      Shell    61 S   3     bf  171 -   171          4.183016320559         -0.583592216344         -0.100030970988
      0.1873113696D+02  0.3349460434D-01
      0.2825394365D+01  0.2347269535D+00
      0.6401216923D+00  0.8137573261D+00
 Atom H21      Shell    62 S   1     bf  172 -   172          4.183016320559         -0.583592216344         -0.100030970988
      0.1612777588D+00  0.1000000000D+01
 Atom C22      Shell    63 S   6     bf  173 -   173          4.791758845315          0.580140461487         -3.929242617119
      0.3047524880D+04  0.1834737132D-02
      0.4573695180D+03  0.1403732281D-01
      0.1039486850D+03  0.6884262226D-01
      0.2921015530D+02  0.2321844432D+00
      0.9286662960D+01  0.4679413484D+00
      0.3163926960D+01  0.3623119853D+00
 Atom C22      Shell    64 SP   3    bf  174 -   177          4.791758845315          0.580140461487         -3.929242617119
      0.7868272350D+01 -0.1193324198D+00  0.6899906659D-01
      0.1881288540D+01 -0.1608541517D+00  0.3164239610D+00
      0.5442492580D+00  0.1143456438D+01  0.7443082909D+00
 Atom C22      Shell    65 SP   1    bf  178 -   181          4.791758845315          0.580140461487         -3.929242617119
      0.1687144782D+00  0.1000000000D+01  0.1000000000D+01
 Atom C22      Shell    66 D   1     bf  182 -   187          4.791758845315          0.580140461487         -3.929242617119
      0.8000000000D+00  0.1000000000D+01
 Atom H23      Shell    67 S   3     bf  188 -   188          5.123469540996          2.320866772158         -4.999329481799
      0.1873113696D+02  0.3349460434D-01
      0.2825394365D+01  0.2347269535D+00
      0.6401216923D+00  0.8137573261D+00
 Atom H23      Shell    68 S   1     bf  189 -   189          5.123469540996          2.320866772158         -4.999329481799
      0.1612777588D+00  0.1000000000D+01
 Atom H24      Shell    69 S   3     bf  190 -   190          2.942985099736         -0.121528760037         -4.540945511245
      0.1873113696D+02  0.3349460434D-01
      0.2825394365D+01  0.2347269535D+00
      0.6401216923D+00  0.8137573261D+00
 Atom H24      Shell    70 S   1     bf  191 -   191          2.942985099736         -0.121528760037         -4.540945511245
      0.1612777588D+00  0.1000000000D+01
 Atom C25      Shell    71 S   6     bf  192 -   192          6.809709340283         -1.379936811613         -4.680618117699
      0.3047524880D+04  0.1834737132D-02
      0.4573695180D+03  0.1403732281D-01
      0.1039486850D+03  0.6884262226D-01
      0.2921015530D+02  0.2321844432D+00
      0.9286662960D+01  0.4679413484D+00
      0.3163926960D+01  0.3623119853D+00
 Atom C25      Shell    72 SP   3    bf  193 -   196          6.809709340283         -1.379936811613         -4.680618117699
      0.7868272350D+01 -0.1193324198D+00  0.6899906659D-01
      0.1881288540D+01 -0.1608541517D+00  0.3164239610D+00
      0.5442492580D+00  0.1143456438D+01  0.7443082909D+00
 Atom C25      Shell    73 SP   1    bf  197 -   200          6.809709340283         -1.379936811613         -4.680618117699
      0.1687144782D+00  0.1000000000D+01  0.1000000000D+01
 Atom C25      Shell    74 D   1     bf  201 -   206          6.809709340283         -1.379936811613         -4.680618117699
      0.8000000000D+00  0.1000000000D+01
 Atom H26      Shell    75 S   3     bf  207 -   207          6.331586008641         -3.218691550489         -3.838833035559
      0.1873113696D+02  0.3349460434D-01
      0.2825394365D+01  0.2347269535D+00
      0.6401216923D+00  0.8137573261D+00
 Atom H26      Shell    76 S   1     bf  208 -   208          6.331586008641         -3.218691550489         -3.838833035559
      0.1612777588D+00  0.1000000000D+01
 Atom H27      Shell    77 S   3     bf  209 -   209          6.738530046487         -1.638325131783         -6.731109791162
      0.1873113696D+02  0.3349460434D-01
      0.2825394365D+01  0.2347269535D+00
      0.6401216923D+00  0.8137573261D+00
 Atom H27      Shell    78 S   1     bf  210 -   210          6.738530046487         -1.638325131783         -6.731109791162
      0.1612777588D+00  0.1000000000D+01
 Atom C28      Shell    79 S   6     bf  211 -   211          9.471020725466         -0.607118985445         -3.779495842856
      0.3047524880D+04  0.1834737132D-02
      0.4573695180D+03  0.1403732281D-01
      0.1039486850D+03  0.6884262226D-01
      0.2921015530D+02  0.2321844432D+00
      0.9286662960D+01  0.4679413484D+00
      0.3163926960D+01  0.3623119853D+00
 Atom C28      Shell    80 SP   3    bf  212 -   215          9.471020725466         -0.607118985445         -3.779495842856
      0.7868272350D+01 -0.1193324198D+00  0.6899906659D-01
      0.1881288540D+01 -0.1608541517D+00  0.3164239610D+00
      0.5442492580D+00  0.1143456438D+01  0.7443082909D+00
 Atom C28      Shell    81 SP   1    bf  216 -   219          9.471020725466         -0.607118985445         -3.779495842856
      0.1687144782D+00  0.1000000000D+01  0.1000000000D+01
 Atom C28      Shell    82 D   1     bf  220 -   225          9.471020725466         -0.607118985445         -3.779495842856
      0.8000000000D+00  0.1000000000D+01
 Atom C29      Shell    83 S   6     bf  226 -   226          9.279366193952         -0.169471168721         -0.876982951017
      0.3047524880D+04  0.1834737132D-02
      0.4573695180D+03  0.1403732281D-01
      0.1039486850D+03  0.6884262226D-01
      0.2921015530D+02  0.2321844432D+00
      0.9286662960D+01  0.4679413484D+00
      0.3163926960D+01  0.3623119853D+00
 Atom C29      Shell    84 SP   3    bf  227 -   230          9.279366193952         -0.169471168721         -0.876982951017
      0.7868272350D+01 -0.1193324198D+00  0.6899906659D-01
      0.1881288540D+01 -0.1608541517D+00  0.3164239610D+00
      0.5442492580D+00  0.1143456438D+01  0.7443082909D+00
 Atom C29      Shell    85 SP   1    bf  231 -   234          9.279366193952         -0.169471168721         -0.876982951017
      0.1687144782D+00  0.1000000000D+01  0.1000000000D+01
 Atom C29      Shell    86 D   1     bf  235 -   240          9.279366193952         -0.169471168721         -0.876982951017
      0.8000000000D+00  0.1000000000D+01
 Atom H30      Shell    87 S   3     bf  241 -   241          8.529261515299         -1.958339159695         -0.110840128879
      0.1873113696D+02  0.3349460434D-01
      0.2825394365D+01  0.2347269535D+00
      0.6401216923D+00  0.8137573261D+00
 Atom H30      Shell    88 S   1     bf  242 -   242          8.529261515299         -1.958339159695         -0.110840128879
      0.1612777588D+00  0.1000000000D+01
 Atom C31      Shell    89 S   6     bf  243 -   243         12.042114638647          0.000000000000          0.000000000000
      0.3047524880D+04  0.1834737132D-02
      0.4573695180D+03  0.1403732281D-01
      0.1039486850D+03  0.6884262226D-01
      0.2921015530D+02  0.2321844432D+00
      0.9286662960D+01  0.4679413484D+00
      0.3163926960D+01  0.3623119853D+00
 Atom C31      Shell    90 SP   3    bf  244 -   247         12.042114638647          0.000000000000          0.000000000000
      0.7868272350D+01 -0.1193324198D+00  0.6899906659D-01
      0.1881288540D+01 -0.1608541517D+00  0.3164239610D+00
      0.5442492580D+00  0.1143456438D+01  0.7443082909D+00
 Atom C31      Shell    91 SP   1    bf  248 -   251         12.042114638647          0.000000000000          0.000000000000
      0.1687144782D+00  0.1000000000D+01  0.1000000000D+01
 Atom C31      Shell    92 D   1     bf  252 -   257         12.042114638647          0.000000000000          0.000000000000
      0.8000000000D+00  0.1000000000D+01
 Atom H32      Shell    93 S   3     bf  258 -   258         12.258419853879         -0.464377104703          2.003749845586
      0.1873113696D+02  0.3349460434D-01
      0.2825394365D+01  0.2347269535D+00
      0.6401216923D+00  0.8137573261D+00
 Atom H32      Shell    94 S   1     bf  259 -   259         12.258419853879         -0.464377104703          2.003749845586
      0.1612777588D+00  0.1000000000D+01
 Atom H33      Shell    95 S   3     bf  260 -   260         12.771975852869          1.920498943460         -0.240410353913
      0.1873113696D+02  0.3349460434D-01
      0.2825394365D+01  0.2347269535D+00
      0.6401216923D+00  0.8137573261D+00
 Atom H33      Shell    96 S   1     bf  261 -   261         12.771975852869          1.920498943460         -0.240410353913
      0.1612777588D+00  0.1000000000D+01
 Atom C34      Shell    97 S   6     bf  262 -   262         13.440935294533         -1.906639786487         -1.735925404739
      0.3047524880D+04  0.1834737132D-02
      0.4573695180D+03  0.1403732281D-01
      0.1039486850D+03  0.6884262226D-01
      0.2921015530D+02  0.2321844432D+00
      0.9286662960D+01  0.4679413484D+00
      0.3163926960D+01  0.3623119853D+00
 Atom C34      Shell    98 SP   3    bf  263 -   266         13.440935294533         -1.906639786487         -1.735925404739
      0.7868272350D+01 -0.1193324198D+00  0.6899906659D-01
      0.1881288540D+01 -0.1608541517D+00  0.3164239610D+00
      0.5442492580D+00  0.1143456438D+01  0.7443082909D+00
 Atom C34      Shell    99 SP   1    bf  267 -   270         13.440935294533         -1.906639786487         -1.735925404739
      0.1687144782D+00  0.1000000000D+01  0.1000000000D+01
 Atom C34      Shell   100 D   1     bf  271 -   276         13.440935294533         -1.906639786487         -1.735925404739
      0.8000000000D+00  0.1000000000D+01
 Atom H35      Shell   101 S   3     bf  277 -   277         15.123530719179         -1.036449210391         -2.576137724511
      0.1873113696D+02  0.3349460434D-01
      0.2825394365D+01  0.2347269535D+00
      0.6401216923D+00  0.8137573261D+00
 Atom H35      Shell   102 S   1     bf  278 -   278         15.123530719179         -1.036449210391         -2.576137724511
      0.1612777588D+00  0.1000000000D+01
 Atom H36      Shell   103 S   3     bf  279 -   279         14.107455534397         -3.545098994340         -0.665130421882
      0.1873113696D+02  0.3349460434D-01
      0.2825394365D+01  0.2347269535D+00
      0.6401216923D+00  0.8137573261D+00
 Atom H36      Shell   104 S   1     bf  280 -   280         14.107455534397         -3.545098994340         -0.665130421882
      0.1612777588D+00  0.1000000000D+01
 Atom C37      Shell   105 S   6     bf  281 -   281         11.540536215216         -2.729687326952         -3.850781792794
      0.3047524880D+04  0.1834737132D-02
      0.4573695180D+03  0.1403732281D-01
      0.1039486850D+03  0.6884262226D-01
      0.2921015530D+02  0.2321844432D+00
      0.9286662960D+01  0.4679413484D+00
      0.3163926960D+01  0.3623119853D+00
 Atom C37      Shell   106 SP   3    bf  282 -   285         11.540536215216         -2.729687326952         -3.850781792794
      0.7868272350D+01 -0.1193324198D+00  0.6899906659D-01
      0.1881288540D+01 -0.1608541517D+00  0.3164239610D+00
      0.5442492580D+00  0.1143456438D+01  0.7443082909D+00
 Atom C37      Shell   107 SP   1    bf  286 -   289         11.540536215216         -2.729687326952         -3.850781792794
      0.1687144782D+00  0.1000000000D+01  0.1000000000D+01
 Atom C37      Shell   108 D   1     bf  290 -   295         11.540536215216         -2.729687326952         -3.850781792794
      0.8000000000D+00  0.1000000000D+01
 Atom H38      Shell   109 S   3     bf  296 -   296         10.593837468808         -4.473314839669         -3.219379448596
      0.1873113696D+02  0.3349460434D-01
      0.2825394365D+01  0.2347269535D+00
      0.6401216923D+00  0.8137573261D+00
 Atom H38      Shell   110 S   1     bf  297 -   297         10.593837468808         -4.473314839669         -3.219379448596
      0.1612777588D+00  0.1000000000D+01
 Atom C39      Shell   111 S   6     bf  298 -   298         10.401041467121          1.768136618153         -5.203331899604
      0.3047524880D+04  0.1834737132D-02
      0.4573695180D+03  0.1403732281D-01
      0.1039486850D+03  0.6884262226D-01
[...]
 **** Fit       0.001344
 **** Fit       0.001322
 **** Fit       0.001229
 **** Fit       0.001009
 **** Fit       0.000605
 **** Fit      -0.000011
 **** Fit      -0.000783
 **** Fit      -0.001558
 **** Fit      -0.002154
 **** Fit      -0.002462
 **** Fit      -0.002477
 **** Fit      -0.002262
 **** Fit      -0.001898
 **** Fit      -0.001458
 **** Fit      -0.001006
 **** Fit      -0.000586
 **** Fit       0.001562
 **** Fit       0.001638
 **** Fit       0.001694
 **** Fit       0.001691
 **** Fit       0.001556
 **** Fit       0.001185
 **** Fit       0.000498
 **** Fit      -0.000471
 **** Fit      -0.001513
 **** Fit      -0.002343
 **** Fit      -0.002777
 **** Fit      -0.002805
 **** Fit      -0.002525
 **** Fit      -0.002059
 **** Fit      -0.001518
 **** Fit      -0.000984
 **** Fit      -0.000511
 **** Fit      -0.000119
 **** Fit       0.001775
 **** Fit       0.001906
 **** Fit       0.002039
 **** Fit       0.002134
 **** Fit       0.002104
 **** Fit       0.001803
 **** Fit       0.001080
 **** Fit      -0.000071
 **** Fit      -0.001387
 **** Fit      -0.002457
 **** Fit      -0.003004
 **** Fit      -0.003010
 **** Fit      -0.002620
 **** Fit      -0.002021
 **** Fit      -0.001369
 **** Fit      -0.000771
 **** Fit      -0.000276
 **** Fit       0.000108
 **** Fit       0.000396
 **** Fit       0.001934
 **** Fit       0.002099
 **** Fit       0.002277
 **** Fit       0.002432
 **** Fit       0.002471
 **** Fit       0.002218
 **** Fit       0.001470
 **** Fit       0.000188
 **** Fit      -0.001323
 **** Fit      -0.002549
 **** Fit      -0.003130
 **** Fit      -0.003040
 **** Fit      -0.002482
 **** Fit      -0.001718
 **** Fit      -0.000964
 **** Fit      -0.000338
 **** Fit       0.000129
 **** Fit       0.000459
 **** Fit       0.000688
 **** Fit       0.002018
 **** Fit       0.002180
 **** Fit       0.002349
 **** Fit       0.002488
 **** Fit       0.002502
 **** Fit       0.002216
 **** Fit       0.001427
 **** Fit       0.000100
 **** Fit      -0.001440
 **** Fit      -0.002645
 **** Fit      -0.003125
 **** Fit      -0.002853
 **** Fit      -0.002081
 **** Fit      -0.001149
 **** Fit      -0.000326
 **** Fit       0.000276
 **** Fit       0.000665
 **** Fit       0.000901
 **** Fit       0.001041
 **** Fit       0.001127
 **** Fit       0.002025
 **** Fit       0.002146
 **** Fit       0.002251
 **** Fit       0.002297
 **** Fit       0.002196
 **** Fit       0.001801
 **** Fit       0.000963
 **** Fit      -0.000304
 **** Fit      -0.001684
 **** Fit      -0.002682
 **** Fit      -0.002943
 **** Fit      -0.002450
 **** Fit      -0.001482
 **** Fit      -0.000429
 **** Fit       0.000414
 **** Fit       0.000952
 **** Fit       0.001237
 **** Fit       0.001363
 **** Fit       0.001407
 **** Fit       0.001415
 **** Fit       0.001968
 **** Fit       0.002026
 **** Fit       0.002035
 **** Fit       0.001953
 **** Fit       0.001705
 **** Fit       0.001194
 **** Fit       0.000348
 **** Fit      -0.000764
 **** Fit      -0.001863
 **** Fit      -0.002557
 **** Fit      -0.002571
 **** Fit      -0.001907
 **** Fit      -0.000837
 **** Fit       0.000250
 **** Fit       0.001065
 **** Fit       0.001532
 **** Fit       0.001728
 **** Fit       0.001766
 **** Fit       0.001732
 **** Fit       0.001677
 **** Fit       0.001860
 **** Fit       0.001775
 **** Fit       0.001575
 **** Fit       0.001212
 **** Fit       0.000638
 **** Fit      -0.000148
 **** Fit      -0.001049
 **** Fit      -0.001839
 **** Fit      -0.002240
 **** Fit      -0.002065
 **** Fit      -0.001335
 **** Fit      -0.000287
 **** Fit       0.000740
 **** Fit       0.001494
 **** Fit       0.001909
 **** Fit       0.002059
 **** Fit       0.002052
 **** Fit       0.001978
 **** Fit       0.001886
 **** Fit       0.001687
 **** Fit       0.001526
 **** Fit       0.001246
 **** Fit       0.000822
 **** Fit       0.000251
 **** Fit      -0.000428
 **** Fit      -0.001110
 **** Fit      -0.001628
 **** Fit      -0.001801
 **** Fit      -0.001520
 **** Fit      -0.000817
 **** Fit       0.000118
 **** Fit       0.001023
 **** Fit       0.001697
 **** Fit       0.002078
 **** Fit       0.002220
 **** Fit       0.002211
 **** Fit       0.002132
 **** Fit       0.001316
 **** Fit       0.000991
 **** Fit       0.000552
 **** Fit       0.000024
 **** Fit      -0.000534
 **** Fit      -0.001025
 **** Fit      -0.001332
 **** Fit      -0.001346
 **** Fit      -0.001015
 **** Fit      -0.000384
 **** Fit       0.000407
 **** Fit       0.001169
 **** Fit       0.001753
 **** Fit       0.002106
 **** Fit       0.002255
 **** Fit       0.002268
 **** Fit       0.002207
 **** Fit       0.001380
 **** Fit       0.001144
 **** Fit       0.000804
 **** Fit       0.000377
 **** Fit      -0.000095
 **** Fit      -0.000543
 **** Fit      -0.000883
 **** Fit      -0.001036
 **** Fit      -0.000943
 **** Fit      -0.000592
 **** Fit      -0.000034
 **** Fit       0.000625
 **** Fit       0.001254
 **** Fit       0.001750
 **** Fit       0.002069
 **** Fit       0.002225
 **** Fit       0.002262
 **** Fit       0.001248
 **** Fit       0.001002
 **** Fit       0.000666
 **** Fit       0.000267
 **** Fit      -0.000146
 **** Fit      -0.000502
 **** Fit      -0.000729
 **** Fit      -0.000773
 **** Fit      -0.000609
 **** Fit      -0.000250
 **** Fit       0.000248
 **** Fit       0.000803
 **** Fit       0.001323
 **** Fit       0.001739
 **** Fit       0.002021
 **** Fit       0.002174
 **** Fit       0.001128
 **** Fit       0.000884
 **** Fit       0.000566
 **** Fit       0.000204
 **** Fit      -0.000149
 **** Fit      -0.000427
 **** Fit      -0.000569
 **** Fit      -0.000537
 **** Fit      -0.000327
 **** Fit       0.000031
 **** Fit       0.000481
 **** Fit       0.000956
 **** Fit       0.001391
 **** Fit       0.001740
 **** Fit       0.001983
 **** Fit       0.000792
 **** Fit       0.000503
 **** Fit       0.000186
 **** Fit      -0.000106
 **** Fit      -0.000316
 **** Fit      -0.000392
 **** Fit      -0.000310
 **** Fit      -0.000077
 **** Fit       0.000271
 **** Fit       0.000679
 **** Fit       0.001091
 **** Fit       0.000478
 **** Fit       0.000213
 **** Fit      -0.000018
 **** Fit      -0.000082
 **** Fit       0.000157
 **** Fit       0.000484
 **** Fit       0.000850
 **** Fit       0.001206
 **** Fit       0.000147
 **** Fit       0.000376
 **** Fit       0.000672
 **** Fit       0.000994
 **** Fit       0.000322
 **** Fit       0.000057
 **** Fit      -0.000252
 **** Fit      -0.000571
 **** Fit      -0.000858
 **** Fit      -0.001068
 **** Fit      -0.001177
 **** Fit       0.000721
 **** Fit       0.000500
 **** Fit       0.000192
 **** Fit      -0.000192
 **** Fit      -0.000611
 **** Fit      -0.000999
 **** Fit      -0.001293
 **** Fit      -0.001450
 **** Fit      -0.001463
 **** Fit       0.001092
 **** Fit       0.000968
 **** Fit       0.000748
 **** Fit       0.000407
 **** Fit      -0.000051
 **** Fit      -0.000580
 **** Fit      -0.001091
 **** Fit      -0.001485
 **** Fit      -0.001699
 **** Fit      -0.001721
 **** Fit      -0.001580
 **** Fit      -0.001325
 **** Fit      -0.001008
 **** Fit       0.001355
 **** Fit       0.001333
 **** Fit       0.001241
 **** Fit       0.001038
 **** Fit       0.000680
 **** Fit       0.000155
 **** Fit      -0.000488
 **** Fit      -0.001130
 **** Fit      -0.001633
 **** Fit      -0.001903
 **** Fit      -0.001924
 **** Fit      -0.001739
 **** Fit      -0.001419
 **** Fit      -0.001035
 **** Fit      -0.000647
 **** Fit      -0.000291
 **** Fit       0.001538
 **** Fit       0.001549
 **** Fit       0.001491
 **** Fit       0.001310
 **** Fit       0.000946
 **** Fit       0.000367
 **** Fit      -0.000376
 **** Fit      -0.001138
 **** Fit      -0.001737
 **** Fit      -0.002046
 **** Fit      -0.002043
 **** Fit      -0.001793
 **** Fit      -0.001392
 **** Fit      -0.000938
 **** Fit      -0.000502
 **** Fit      -0.000125
 **** Fit       0.000181
 **** Fit       0.001670
 **** Fit       0.001699
 **** Fit       0.001657
 **** Fit       0.001486
 **** Fit       0.001113
 **** Fit       0.000497
 **** Fit      -0.000314
 **** Fit      -0.001153
 **** Fit      -0.001802
 **** Fit      -0.002109
 **** Fit      -0.002050
 **** Fit      -0.001710
 **** Fit      -0.001219
 **** Fit      -0.000699
 **** Fit      -0.000233
 **** Fit       0.000143
 **** Fit       0.000428
 **** Fit       0.001730
 **** Fit       0.001751
 **** Fit       0.001697
 **** Fit       0.001509
 **** Fit       0.001116
 **** Fit       0.000477
 **** Fit      -0.000352
 **** Fit      -0.001194
 **** Fit      -0.001821
 **** Fit      -0.002070
 **** Fit      -0.001922
 **** Fit      -0.001479
 **** Fit      -0.000902
 **** Fit      -0.000334
 **** Fit       0.000139
 **** Fit       0.000490
 **** Fit       0.000733
 **** Fit       0.000895
 **** Fit       0.001716
 **** Fit       0.001704
 **** Fit       0.001610
 **** Fit       0.001380
 **** Fit       0.000957
 **** Fit       0.000319
 **** Fit      -0.000470
 **** Fit      -0.001237
 **** Fit      -0.001768
 **** Fit      -0.001912
 **** Fit      -0.001660
 **** Fit      -0.001127
 **** Fit      -0.000488
 **** Fit       0.000101
 **** Fit       0.000557
 **** Fit       0.000865
 **** Fit       0.001055
 **** Fit       0.001165
 **** Fit       0.001643
 **** Fit       0.001583
 **** Fit       0.001434
 **** Fit       0.001156
 **** Fit       0.000712
 **** Fit       0.000105
 **** Fit      -0.000594
 **** Fit      -0.001228
 **** Fit      -0.001617
 **** Fit      -0.001642
 **** Fit      -0.001301
 **** Fit      -0.000713
 **** Fit      -0.000054
 **** Fit       0.000525
 **** Fit       0.000947
 **** Fit       0.001210
 **** Fit       0.001351
 **** Fit       0.001414
 **** Fit       0.001425
 **** Fit       0.001227
 **** Fit       0.000912
 **** Fit       0.000471
 **** Fit      -0.000077
 **** Fit      -0.000654
 **** Fit      -0.001132
 **** Fit      -0.001374
 **** Fit      -0.001293
 **** Fit      -0.000902
 **** Fit      -0.000309
 **** Fit       0.000327
 **** Fit       0.000871
 **** Fit       0.001254
 **** Fit       0.001479
 **** Fit       0.001585
 **** Fit       0.001616
 **** Fit       0.001265
 **** Fit       0.001031
 **** Fit       0.000703
 **** Fit       0.000286
 **** Fit      -0.000183
 **** Fit      -0.000632
 **** Fit      -0.000962
 **** Fit      -0.001076
 **** Fit      -0.000921
 **** Fit      -0.000518
 **** Fit       0.000040
 **** Fit       0.000621
 **** Fit       0.001112
 **** Fit       0.001457
 **** Fit       0.001657
 **** Fit       0.001744
 **** Fit       0.000870
 **** Fit       0.000546
 **** Fit       0.000170
 **** Fit      -0.000216
 **** Fit      -0.000549
 **** Fit      -0.000754
 **** Fit      -0.000770
 **** Fit      -0.000570
 **** Fit      -0.000181
 **** Fit       0.000321
 **** Fit       0.000832
 **** Fit       0.001264
 **** Fit       0.001573
 **** Fit       0.001755
 **** Fit       0.001837
 **** Fit      -0.000200
 **** Fit      -0.000436
 **** Fit      -0.000545
 **** Fit      -0.000490
 **** Fit      -0.000265
 **** Fit       0.000099
 **** Fit       0.000541
 **** Fit       0.000982
 **** Fit       0.001357
 **** Fit       0.001631
 **** Fit       0.001799
 **** Fit      -0.000009
 **** Fit       0.000329
 **** Fit       0.000716
 **** Fit       0.001095
 **** Fit       0.001418
 **** Fit       0.000447
 **** Fit       0.000207
 **** Fit      -0.000076
 **** Fit      -0.000374
 **** Fit      -0.000648
 **** Fit      -0.000857
 **** Fit       0.000789
 **** Fit       0.000595
 **** Fit       0.000326
 **** Fit      -0.000008
 **** Fit      -0.000372
 **** Fit      -0.000714
 **** Fit      -0.000979
 **** Fit      -0.001127
 **** Fit       0.000955
 **** Fit       0.000758
 **** Fit       0.000466
 **** Fit       0.000086
 **** Fit      -0.000342
 **** Fit      -0.000752
 **** Fit      -0.001070
 **** Fit      -0.001245
 **** Fit      -0.001264
 **** Fit      -0.001146
 **** Fit      -0.000931
 **** Fit       0.001212
 **** Fit       0.001104
 **** Fit       0.000905
 **** Fit       0.000596
 **** Fit       0.000179
 **** Fit      -0.000303
 **** Fit      -0.000769
 **** Fit      -0.001128
 **** Fit      -0.001317
 **** Fit      -0.001319
 **** Fit      -0.001163
 **** Fit      -0.000901
 **** Fit      -0.000591
 **** Fit      -0.000280
 **** Fit       0.001310
 **** Fit       0.001204
 **** Fit       0.001001
 **** Fit       0.000678
 **** Fit       0.000236
 **** Fit      -0.000279
 **** Fit      -0.000776
 **** Fit      -0.001151
 **** Fit      -0.001331
 **** Fit      -0.001299
 **** Fit      -0.001095
 **** Fit      -0.000783
 **** Fit      -0.000433
 **** Fit      -0.000099
 **** Fit       0.000189
 **** Fit       0.001350
 **** Fit       0.001236
 **** Fit       0.001023
 **** Fit       0.000689
 **** Fit       0.000236
 **** Fit      -0.000284
 **** Fit      -0.000776
 **** Fit      -0.001132
 **** Fit      -0.001277
 **** Fit      -0.001197
 **** Fit      -0.000938
 **** Fit      -0.000579
 **** Fit      -0.000199
 **** Fit       0.000144
 **** Fit       0.000425
 **** Fit       0.001331
 **** Fit       0.001199
 **** Fit       0.000971
 **** Fit       0.000630
 **** Fit       0.000186
 **** Fit      -0.000309
 **** Fit      -0.000759
 **** Fit      -0.001063
 **** Fit      -0.001151
 **** Fit      -0.001015
 **** Fit      -0.000707
 **** Fit      -0.000314
 **** Fit       0.000081
 **** Fit       0.000421
 **** Fit       0.000683
 **** Fit       0.001267
 **** Fit       0.001111
 **** Fit       0.000868
 **** Fit       0.000529
 **** Fit       0.000112
 **** Fit      -0.000329
 **** Fit      -0.000709
 **** Fit      -0.000939
 **** Fit      -0.000961
 **** Fit      -0.000773
 **** Fit      -0.000433
 **** Fit      -0.000025
 **** Fit       0.000368
 **** Fit       0.000693
 **** Fit       0.000931
 **** Fit       0.000999
 **** Fit       0.000747
 **** Fit       0.000423
 **** Fit       0.000049
 **** Fit      -0.000322
 **** Fit      -0.000618
 **** Fit      -0.000767
 **** Fit      -0.000727
 **** Fit      -0.000503
 **** Fit      -0.000150
 **** Fit       0.000252
 **** Fit       0.000628
 **** Fit       0.000929
 **** Fit       0.001143
 **** Fit       0.000637
 **** Fit       0.000337
 **** Fit       0.000016
 **** Fit      -0.000280
 **** Fit      -0.000492
 **** Fit      -0.000566
 **** Fit      -0.000477
 **** Fit      -0.000234
 **** Fit       0.000112
 **** Fit       0.000491
 **** Fit       0.000838
 **** Fit       0.001114
 **** Fit       0.001305
 **** Fit      -0.000209
 **** Fit      -0.000235
 **** Fit       0.000012
 **** Fit       0.000337
 **** Fit       0.000683
 **** Fit       0.000997
 **** Fit       0.001245
 **** Fit       0.000524
 **** Fit       0.000833
 **** Fit      -0.000195
 **** Fit       0.000379
 **** Fit       0.000108
 **** Fit      -0.000182
 **** Fit      -0.000451
 **** Fit      -0.000658
 **** Fit       0.000692
 **** Fit       0.000452
 **** Fit       0.000157
 **** Fit      -0.000161
 **** Fit      -0.000458
 **** Fit      -0.000683
 **** Fit      -0.000804
 **** Fit       0.000752
 **** Fit       0.000501
 **** Fit       0.000192
 **** Fit      -0.000142
 **** Fit      -0.000451
 **** Fit      -0.000681
 **** Fit      -0.000792
 **** Fit       0.000773
 **** Fit       0.000517
 **** Fit       0.000204
 **** Fit      -0.000130
 **** Fit      -0.000433
 **** Fit      -0.000648
 **** Fit      -0.000737
 **** Fit      -0.000535
 **** Fit      -0.000307
 **** Fit       0.000757
 **** Fit       0.000501
 **** Fit       0.000196
 **** Fit      -0.000121
 **** Fit      -0.000398
 **** Fit      -0.000582
 **** Fit      -0.000638
 **** Fit      -0.000560
 **** Fit      -0.000375
 **** Fit      -0.000125
 **** Fit       0.000141
 **** Fit       0.000464
 **** Fit       0.000179
 **** Fit      -0.000106
 **** Fit      -0.000343
 **** Fit      -0.000484
 **** Fit      -0.000392
 **** Fit      -0.000184
 **** Fit       0.000076
 **** Fit       0.000344
 **** Fit       0.000165
 **** Fit      -0.000078
 **** Fit      -0.000266
 **** Fit      -0.000204
 **** Fit       0.000016
 **** Fit       0.000277
 -----------------------------------------------------------------
 Leave Link  602 at Fri Apr 28 12:06:30 2017, MaxMem=   33554432 cpu:     110.1
 (Enter /scratch/michal/g09/l9999.exe)

 Test job not archived.
 1\1\GINC-RZEPICHA\SP\RHF\6-31G(d)\C27H46O3\MICHAL\28-Apr-2017\0\\#P HF
 /6-31G* SCF(Conver=6) NoSymm Test Pop=chelpg IOp(6/33=2) GFInput GFPri
 nt\\MEP - Input generated by R.E.D.-III.x MOLECULE\\0,1\C,0,-1.0119036
 6,1.98412998,1.68217854\H,0,-0.99158915,1.0075252,2.18126177\C,0,0.314
 43708,2.70946747,1.94810579\H,0,0.47428678,2.8087839,3.02605583\H,0,0.
 22115094,3.7321206,1.5473738\C,0,1.50168493,2.01839712,1.3039463\C,0,1
 .3841616,1.66352696,-0.18165209\C,0,-0.01263957,1.01241134,-0.4272245\
 H,0,0.,0.,0.\H,0,-0.17667381,0.89314534,-1.50346903\C,0,-1.20011384,1.
 7754238,0.17985738\H,0,-1.31683275,2.75550576,-0.30592542\H,0,-2.13001
 317,1.22402558,0.\C,0,2.59987918,1.75820452,2.02543568\H,0,2.62805347,
 2.02340495,3.079953\C,0,3.86463601,1.14985633,1.49534894\H,0,4.0486838
 7,0.17800768,1.97914972\C,0,3.90503617,0.99482399,-0.0338389\H,0,4.207
 90273,1.96749426,-0.44343636\C,0,2.49261834,0.62517123,-0.56739226\H,0
 ,2.2135569,-0.3088237,-0.05293411\C,0,2.53568957,0.30699711,-2.0792656
 4\H,0,2.71122331,1.2281498,-2.64553122\H,0,1.55736064,-0.06431025,-2.4
 0296487\C,0,3.60354298,-0.73023111,-2.47687643\H,0,3.35053101,-1.70325
 821,-2.03142295\H,0,3.56587652,-0.86696432,-3.56194989\C,0,5.01184831,
 -0.32127353,-2.00002306\C,0,4.9104291,-0.08968028,-0.46407939\H,0,4.51
 34908,-1.03630845,-0.05865407\C,0,6.37241261,0.,0.\H,0,6.4868764,-0.24
 573778,1.06033875\H,0,6.75863853,1.01628427,-0.12721968\C,0,7.11263662
 ,-1.00895032,-0.91861216\H,0,8.00302777,-0.5484653,-1.36323337\H,0,7.4
 6534394,-1.87598559,-0.35197186\C,0,6.10698874,-1.44448832,-2.03774596
 \H,0,5.60601734,-2.36717626,-1.70362223\C,0,5.50399409,0.9356576,-2.75
 348465\H,0,4.85934158,1.80186294,-2.58455182\H,0,6.51540089,1.22368898
 ,-2.45180496\H,0,5.52500122,0.7553751,-3.83318053\C,0,6.81615534,-1.78
 292467,-3.3751462\H,0,7.37790697,-0.89087059,-3.69228346\C,0,5.8414076
 4,-2.15633967,-4.50584917\H,0,5.20079578,-2.99682194,-4.20996415\H,0,6
 .38044475,-2.45299311,-5.41034118\H,0,5.19128658,-1.32375894,-4.782992
 58\C,0,1.50415297,2.96899691,-1.01261573\H,0,1.27611355,2.79246415,-2.
 06844265\H,0,0.80965324,3.73443456,-0.65675355\H,0,2.51064605,3.392048
 31,-0.94242675\O,0,4.99188467,2.00491365,1.81368486\O,0,5.17828058,1.9
 7652082,3.26100193\H,0,6.04241758,1.53621654,3.31500297\O,0,-2.1191152
 2,2.66091755,2.28386502\H,0,-2.19311734,3.54237988,1.89177464\C,0,7.84
 87631,-2.91779659,-3.15922418\H,0,8.47228129,-2.67890085,-2.28967858\H
 ,0,7.3039633,-3.83707096,-2.89933251\C,0,8.78902405,-3.181149,-4.34790
 977\H,0,8.22825919,-3.57271825,-5.20429705\H,0,9.21109533,-2.22171947,
 -4.67939413\C,0,9.95982959,-4.12826582,-4.02579534\H,0,10.55690067,-3.
 683318,-3.21658578\H,0,10.62416899,-4.17593521,-4.90141691\C,0,9.59243
 394,-5.57210304,-3.621654\H,0,8.94353979,-5.52677997,-2.73520755\C,0,8
 .82731745,-6.31484299,-4.72853699\H,0,9.4249716,-6.36599225,-5.6480394
 4\H,0,8.59895999,-7.3425958,-4.4240793\H,0,7.87877459,-5.82661475,-4.9
 7467741\C,0,10.85780278,-6.35001784,-3.22615097\H,0,11.54715198,-6.433
 61506,-4.07625023\H,0,10.61379267,-7.36612177,-2.89568408\H,0,11.39472
 83,-5.85185286,-2.410686\\Version=EM64L-G09RevC.01\HF=-1273.68334\RMSD
 =5.523e-07\Dipole=0.4235372,-0.4420632,-0.8406112\Quadrupole=2.0162914
 ,0.5879755,-2.6042669,-5.934404,3.6924221,-6.5030045\PG=C01 [X(C27H46O
 3)]\\@


 ... FOR AFTERWARDS A MAN FINDS PLEASURE IN HIS PAINS,
 WHEN HE HAS SUFFERED LONG AND WANDERED FAR.

                                    -- HOMER
 Job cpu time:  0 days  0 hours 39 minutes 19.3 seconds.
 File lengths (MBytes):  RWF=    159 Int=      0 D2E=      0 Chk=     11 Scr=      1
 Normal termination of Gaussian 09 at Fri Apr 28 12:06:30 2017.
