 Entering Gaussian System, Link 0=/scratch/michal/g09//g09
 Input=JOB2-gau_m1-18-1.com
 Output=JOB2-gau_m1-18-1.log
 Initial command:
 /scratch/michal/g09/l1.exe /scratch/michal/gauss_scratch/Gau-15628.inp -scrdir=/scratch/michal/gauss_scratch/
 Entering Link 1 = /scratch/michal/g09/l1.exe PID=     15630.
  
 Copyright (c) 1988,1990,1992,1993,1995,1998,2003,2009,2011,
            Gaussian, Inc.  All Rights Reserved.
  
 This is part of the Gaussian(R) 09 program.  It is based on
 the Gaussian(R) 03 system (copyright 2003, Gaussian, Inc.),
 the Gaussian(R) 98 system (copyright 1998, Gaussian, Inc.),
 the Gaussian(R) 94 system (copyright 1995, Gaussian, Inc.),
 the Gaussian 92(TM) system (copyright 1992, Gaussian, Inc.),
 the Gaussian 90(TM) system (copyright 1990, Gaussian, Inc.),
 the Gaussian 88(TM) system (copyright 1988, Gaussian, Inc.),
 the Gaussian 86(TM) system (copyright 1986, Carnegie Mellon
 University), and the Gaussian 82(TM) system (copyright 1983,
 Carnegie Mellon University). Gaussian is a federally registered
 trademark of Gaussian, Inc.
  
 This software contains proprietary and confidential information,
 including trade secrets, belonging to Gaussian, Inc.
  
 This software is provided under written license and may be
 used, copied, transmitted, or stored only in accord with that
 written license.
  
 The following legend is applicable only to US Government
 contracts under FAR:
  
                    RESTRICTED RIGHTS LEGEND
  
 Use, reproduction and disclosure by the US Government is
 subject to restrictions as set forth in subparagraphs (a)
 and (c) of the Commercial Computer Software - Restricted
 Rights clause in FAR 52.227-19.
  
 Gaussian, Inc.
 340 Quinnipiac St., Bldg. 40, Wallingford CT 06492
  
  
 ---------------------------------------------------------------
 Warning -- This program may not be used in any manner that
 competes with the business of Gaussian, Inc. or will provide
 assistance to any competitor of Gaussian, Inc.  The licensee
 of this program is prohibited from giving any competitor of
 Gaussian, Inc. access to this program.  By using this program,
 the user acknowledges that Gaussian, Inc. is engaged in the
 business of creating and licensing software in the field of
 computational chemistry and represents and warrants to the
 licensee that it is not a competitor of Gaussian, Inc. and that
 it will not use this program in any manner prohibited above.
 ---------------------------------------------------------------
  

 Cite this work as:
 Gaussian 09, Revision C.01,
 M. J. Frisch, G. W. Trucks, H. B. Schlegel, G. E. Scuseria, 
 M. A. Robb, J. R. Cheeseman, G. Scalmani, V. Barone, B. Mennucci, 
 G. A. Petersson, H. Nakatsuji, M. Caricato, X. Li, H. P. Hratchian, 
 A. F. Izmaylov, J. Bloino, G. Zheng, J. L. Sonnenberg, M. Hada, 
 M. Ehara, K. Toyota, R. Fukuda, J. Hasegawa, M. Ishida, T. Nakajima, 
 Y. Honda, O. Kitao, H. Nakai, T. Vreven, J. A. Montgomery, Jr., 
 J. E. Peralta, F. Ogliaro, M. Bearpark, J. J. Heyd, E. Brothers, 
 K. N. Kudin, V. N. Staroverov, T. Keith, R. Kobayashi, J. Normand, 
 K. Raghavachari, A. Rendell, J. C. Burant, S. S. Iyengar, J. Tomasi, 
 M. Cossi, N. Rega, J. M. Millam, M. Klene, J. E. Knox, J. B. Cross, 
 V. Bakken, C. Adamo, J. Jaramillo, R. Gomperts, R. E. Stratmann, 
 O. Yazyev, A. J. Austin, R. Cammi, C. Pomelli, J. W. Ochterski, 
 R. L. Martin, K. Morokuma, V. G. Zakrzewski, G. A. Voth, 
 P. Salvador, J. J. Dannenberg, S. Dapprich, A. D. Daniels, 
 O. Farkas, J. B. Foresman, J. V. Ortiz, J. Cioslowski, 
 and D. J. Fox, Gaussian, Inc., Wallingford CT, 2010.
 
 ******************************************
 Gaussian 09:  EM64L-G09RevC.01 23-Sep-2011
                28-Apr-2017 
 ******************************************
 %Mem=256MB
 %NProc=48
 Will use up to   48 processors via shared memory.
 ----------------------------------------------------------------------
 #P HF/6-31G* SCF(Conver=6) NoSymm Test Pop=chelpg IOp(6/33=2) GFInput 
 GFPrint
 ----------------------------------------------------------------------
 1/38=1/1;
 2/12=2,15=1,17=6,18=5,40=1/2;
 3/5=1,6=6,7=1,11=9,16=1,24=110,25=1,30=1/1,2,3;
 4//1;
 5/5=2,6=6,38=5/2;
 6/7=2,8=2,9=2,10=2,15=8,20=3,28=1,33=2/1,2;
 99/5=1,9=1/99;
 Leave Link    1 at Fri Apr 28 13:31:05 2017, MaxMem=   33554432 cpu:       4.1
 (Enter /scratch/michal/g09/l101.exe)
 ----------------------------------------------
 MEP - Input generated by R.E.D.-III.x MOLECULE
 ----------------------------------------------
 Charge =  0 Multiplicity = 1
 Symbolic Z-Matrix:
 C                     1.75874  -1.24809  -0.07163 
 H                     1.87187  -1.12531  -1.15573 
 C                     3.15093  -1.30968   0.57276 
 H                     3.72781  -2.12864   0.13159 
 H                     3.01285  -1.55757   1.63779 
 C                     3.9142   -0.0044    0.45362 
 C                     3.19057   1.27738   0.88114 
 C                     1.7482    1.25385   0.28539 
 H                     1.81833   1.44683  -0.79415 
 H                     1.16628   2.07834   0.71013 
 C                     0.97869  -0.0602    0.48947 
 H                     0.78592  -0.23151   1.55901 
 H                     0.        0.        0. 
 C                     5.17489   0.        0. 
 H                     5.63518  -0.93623  -0.31765 
 C                     6.05887   1.20743  -0.10803 
 H                     6.28772   1.39893  -1.16911 
 C                     5.48279   2.47763   0.53592 
 H                     5.69378   2.41051   1.60878 
 C                     3.94569   2.52863   0.31037 
 H                     3.79877   2.48683  -0.78176 
 C                     3.34884   3.87304   0.78603 
 H                     3.3627    3.91739   1.88045 
 H                     2.29429   3.93029   0.49488 
 C                     4.07298   5.1153    0.23132 
 H                     3.93264   5.16291  -0.85837 
 H                     3.59501   6.00886   0.6454 
 C                     5.58381   5.08388   0.53402 
 C                     6.12961   3.74687  -0.04633 
 H                     5.84559   3.76277  -1.11348 
 C                     7.65831   3.91095   0. 
 H                     8.16851   3.2719   -0.72533 
 H                     8.04854   3.62734   0.9827 
 C                     7.8757    5.42296  -0.28126 
 H                     8.52543   5.86783   0.48173 
 H                     8.37532   5.58669  -1.24161 
 C                     6.469     6.10511  -0.261 
 H                     6.07385   6.102    -1.28779 
 C                     5.83888   5.21653   2.0527 
 H                     5.39922   4.39425   2.6227 
 H                     6.90688   5.2345    2.28837 
 H                     5.40297   6.14506   2.43664 
 C                     6.5332    7.58185   0.20256 
 H                     6.9368    7.5856    1.22563 
 C                     5.16145   8.28107   0.25089 
 H                     4.61228   8.17151  -0.69099 
 H                     5.28551   9.35417   0.43921 
 H                     4.52773   7.88422   1.04808 
 C                     3.11554   1.30524   2.43104 
 H                     2.48308   2.1257    2.78379 
 H                     2.69141   0.37878   2.82785 
 H                     4.10975   1.42026   2.87225 
 O                     7.39441   0.89713   0.36446 
 O                     7.34533   0.63506   1.79811 
 H                     7.3914   -0.33501   1.81066 
 O                     1.05452  -2.48476   0.0685 
 H                     0.89058  -2.64344   1.00879 
 C                     7.53477   8.41687  -0.63986 
 H                     7.59365   9.4175   -0.1879 
 H                     8.53945   7.98729  -0.54138 
 C                     7.21271   8.57696  -2.13521 
 H                     7.18102   7.59028  -2.61326 
 H                     6.21231   9.01072  -2.25272 
 C                     8.24555   9.46232  -2.85205 
 H                     9.24387   9.02407  -2.7082 
 H                     8.2722    10.44282  -2.35475 
 C                     8.03049   9.69221  -4.36622 
 H                     8.85691   10.34092  -4.69262 
 C                     8.12803   8.39315  -5.18332 
 H                     7.2975    7.71277  -4.96228 
 H                     8.09831   8.6055   -6.25818 
 H                     9.06257   7.8593   -4.97421 
 C                     6.7223    10.44024  -4.67249 
 H                     5.84276   9.83183  -4.43213 
 H                     6.66014   10.69784  -5.73602 
 H                     6.65147   11.37179  -4.09861 
 
 NAtoms=     76 NQM=        0 NQMF=       0 NMMI=     76 NMMIF=      0
                NMic=       0 NMicF=      0.
                    Isotopes and Nuclear Properties:
 (Nuclear quadrupole moments (NQMom) in fm**2, nuclear magnetic moments (NMagM)
  in nuclear magnetons)

  Atom         1           2           3           4           5           6           7           8           9          10
 IAtWgt=          12           1          12           1           1          12          12          12           1           1
 AtmWgt=  12.0000000   1.0078250  12.0000000   1.0078250   1.0078250  12.0000000  12.0000000  12.0000000   1.0078250   1.0078250
 NucSpn=           0           1           0           1           1           0           0           0           1           1
 AtZEff=   0.0000000   0.0000000   0.0000000   0.0000000   0.0000000   0.0000000   0.0000000   0.0000000   0.0000000   0.0000000
 NQMom=    0.0000000   0.0000000   0.0000000   0.0000000   0.0000000   0.0000000   0.0000000   0.0000000   0.0000000   0.0000000
 NMagM=    0.0000000   2.7928460   0.0000000   2.7928460   2.7928460   0.0000000   0.0000000   0.0000000   2.7928460   2.7928460

  Atom        11          12          13          14          15          16          17          18          19          20
 IAtWgt=          12           1           1          12           1          12           1          12           1          12
 AtmWgt=  12.0000000   1.0078250   1.0078250  12.0000000   1.0078250  12.0000000   1.0078250  12.0000000   1.0078250  12.0000000
 NucSpn=           0           1           1           0           1           0           1           0           1           0
 AtZEff=   0.0000000   0.0000000   0.0000000   0.0000000   0.0000000   0.0000000   0.0000000   0.0000000   0.0000000   0.0000000
 NQMom=    0.0000000   0.0000000   0.0000000   0.0000000   0.0000000   0.0000000   0.0000000   0.0000000   0.0000000   0.0000000
 NMagM=    0.0000000   2.7928460   2.7928460   0.0000000   2.7928460   0.0000000   2.7928460   0.0000000   2.7928460   0.0000000

  Atom        21          22          23          24          25          26          27          28          29          30
 IAtWgt=           1          12           1           1          12           1           1          12          12           1
 AtmWgt=   1.0078250  12.0000000   1.0078250   1.0078250  12.0000000   1.0078250   1.0078250  12.0000000  12.0000000   1.0078250
 NucSpn=           1           0           1           1           0           1           1           0           0           1
 AtZEff=   0.0000000   0.0000000   0.0000000   0.0000000   0.0000000   0.0000000   0.0000000   0.0000000   0.0000000   0.0000000
 NQMom=    0.0000000   0.0000000   0.0000000   0.0000000   0.0000000   0.0000000   0.0000000   0.0000000   0.0000000   0.0000000
 NMagM=    2.7928460   0.0000000   2.7928460   2.7928460   0.0000000   2.7928460   2.7928460   0.0000000   0.0000000   2.7928460

  Atom        31          32          33          34          35          36          37          38          39          40
 IAtWgt=          12           1           1          12           1           1          12           1          12           1
 AtmWgt=  12.0000000   1.0078250   1.0078250  12.0000000   1.0078250   1.0078250  12.0000000   1.0078250  12.0000000   1.0078250
 NucSpn=           0           1           1           0           1           1           0           1           0           1
 AtZEff=   0.0000000   0.0000000   0.0000000   0.0000000   0.0000000   0.0000000   0.0000000   0.0000000   0.0000000   0.0000000
 NQMom=    0.0000000   0.0000000   0.0000000   0.0000000   0.0000000   0.0000000   0.0000000   0.0000000   0.0000000   0.0000000
 NMagM=    0.0000000   2.7928460   2.7928460   0.0000000   2.7928460   2.7928460   0.0000000   2.7928460   0.0000000   2.7928460

  Atom        41          42          43          44          45          46          47          48          49          50
 IAtWgt=           1           1          12           1          12           1           1           1          12           1
 AtmWgt=   1.0078250   1.0078250  12.0000000   1.0078250  12.0000000   1.0078250   1.0078250   1.0078250  12.0000000   1.0078250
 NucSpn=           1           1           0           1           0           1           1           1           0           1
 AtZEff=   0.0000000   0.0000000   0.0000000   0.0000000   0.0000000   0.0000000   0.0000000   0.0000000   0.0000000   0.0000000
 NQMom=    0.0000000   0.0000000   0.0000000   0.0000000   0.0000000   0.0000000   0.0000000   0.0000000   0.0000000   0.0000000
 NMagM=    2.7928460   2.7928460   0.0000000   2.7928460   0.0000000   2.7928460   2.7928460   2.7928460   0.0000000   2.7928460

  Atom        51          52          53          54          55          56          57          58          59          60
 IAtWgt=           1           1          16          16           1          16           1          12           1           1
 AtmWgt=   1.0078250   1.0078250  15.9949146  15.9949146   1.0078250  15.9949146   1.0078250  12.0000000   1.0078250   1.0078250
 NucSpn=           1           1           0           0           1           0           1           0           1           1
 AtZEff=   0.0000000   0.0000000   0.0000000   0.0000000   0.0000000   0.0000000   0.0000000   0.0000000   0.0000000   0.0000000
 NQMom=    0.0000000   0.0000000   0.0000000   0.0000000   0.0000000   0.0000000   0.0000000   0.0000000   0.0000000   0.0000000
 NMagM=    2.7928460   2.7928460   0.0000000   0.0000000   2.7928460   0.0000000   2.7928460   0.0000000   2.7928460   2.7928460

  Atom        61          62          63          64          65          66          67          68          69          70
 IAtWgt=          12           1           1          12           1           1          12           1          12           1
 AtmWgt=  12.0000000   1.0078250   1.0078250  12.0000000   1.0078250   1.0078250  12.0000000   1.0078250  12.0000000   1.0078250
 NucSpn=           0           1           1           0           1           1           0           1           0           1
 AtZEff=   0.0000000   0.0000000   0.0000000   0.0000000   0.0000000   0.0000000   0.0000000   0.0000000   0.0000000   0.0000000
 NQMom=    0.0000000   0.0000000   0.0000000   0.0000000   0.0000000   0.0000000   0.0000000   0.0000000   0.0000000   0.0000000
 NMagM=    0.0000000   2.7928460   2.7928460   0.0000000   2.7928460   2.7928460   0.0000000   2.7928460   0.0000000   2.7928460

  Atom        71          72          73          74          75          76
 IAtWgt=           1           1          12           1           1           1
 AtmWgt=   1.0078250   1.0078250  12.0000000   1.0078250   1.0078250   1.0078250
 NucSpn=           1           1           0           1           1           1
 AtZEff=   0.0000000   0.0000000   0.0000000   0.0000000   0.0000000   0.0000000
 NQMom=    0.0000000   0.0000000   0.0000000   0.0000000   0.0000000   0.0000000
 NMagM=    2.7928460   2.7928460   0.0000000   2.7928460   2.7928460   2.7928460
 Leave Link  101 at Fri Apr 28 13:31:05 2017, MaxMem=   33554432 cpu:      13.1
 (Enter /scratch/michal/g09/l202.exe)
 Symmetry turned off by external request.
 Stoichiometry    C27H46O3
 Framework group  C1[X(C27H46O3)]
 Deg. of freedom   222
 Full point group                 C1      NOp   1
                          Input orientation:                          
 ---------------------------------------------------------------------
 Center     Atomic      Atomic             Coordinates (Angstroms)
 Number     Number       Type             X           Y           Z
 ---------------------------------------------------------------------
      1          6           0        1.758744   -1.248091   -0.071633
      2          1           0        1.871872   -1.125313   -1.155731
      3          6           0        3.150933   -1.309680    0.572762
      4          1           0        3.727812   -2.128645    0.131595
      5          1           0        3.012853   -1.557573    1.637793
      6          6           0        3.914205   -0.004399    0.453624
      7          6           0        3.190569    1.277377    0.881143
      8          6           0        1.748204    1.253855    0.285394
      9          1           0        1.818327    1.446833   -0.794152
     10          1           0        1.166284    2.078344    0.710134
     11          6           0        0.978694   -0.060205    0.489468
     12          1           0        0.785920   -0.231508    1.559010
     13          1           0        0.000000    0.000000    0.000000
     14          6           0        5.174892    0.000000    0.000000
     15          1           0        5.635184   -0.936230   -0.317651
     16          6           0        6.058872    1.207430   -0.108029
     17          1           0        6.287719    1.398930   -1.169108
     18          6           0        5.482786    2.477628    0.535920
     19          1           0        5.693781    2.410512    1.608783
     20          6           0        3.945691    2.528628    0.310366
     21          1           0        3.798770    2.486830   -0.781760
     22          6           0        3.348841    3.873035    0.786033
     23          1           0        3.362697    3.917392    1.880451
     24          1           0        2.294295    3.930290    0.494879
     25          6           0        4.072981    5.115298    0.231318
     26          1           0        3.932644    5.162914   -0.858374
     27          1           0        3.595008    6.008863    0.645404
     28          6           0        5.583811    5.083879    0.534020
     29          6           0        6.129611    3.746865   -0.046326
     30          1           0        5.845587    3.762768   -1.113476
     31          6           0        7.658313    3.910946    0.000000
     32          1           0        8.168514    3.271905   -0.725329
     33          1           0        8.048545    3.627342    0.982695
     34          6           0        7.875696    5.422964   -0.281264
     35          1           0        8.525426    5.867828    0.481728
     36          1           0        8.375324    5.586687   -1.241613
     37          6           0        6.469004    6.105112   -0.261000
     38          1           0        6.073854    6.102000   -1.287793
     39          6           0        5.838878    5.216534    2.052700
     40          1           0        5.399217    4.394254    2.622703
     41          1           0        6.906878    5.234499    2.288367
     42          1           0        5.402969    6.145055    2.436639
     43          6           0        6.533198    7.581850    0.202560
     44          1           0        6.936797    7.585604    1.225631
     45          6           0        5.161450    8.281071    0.250891
     46          1           0        4.612279    8.171506   -0.690986
     47          1           0        5.285508    9.354168    0.439215
     48          1           0        4.527731    7.884220    1.048085
     49          6           0        3.115540    1.305236    2.431043
     50          1           0        2.483084    2.125698    2.783787
     51          1           0        2.691412    0.378785    2.827853
     52          1           0        4.109746    1.420256    2.872251
     53          8           0        7.394409    0.897135    0.364457
     54          8           0        7.345332    0.635055    1.798109
     55          1           0        7.391400   -0.335012    1.810663
     56          8           0        1.054519   -2.484764    0.068495
     57          1           0        0.890583   -2.643438    1.008786
     58          6           0        7.534766    8.416875   -0.639863
     59          1           0        7.593646    9.417498   -0.187897
     60          1           0        8.539449    7.987293   -0.541381
     61          6           0        7.212714    8.576958   -2.135212
     62          1           0        7.181023    7.590275   -2.613260
     63          1           0        6.212308    9.010719   -2.252716
     64          6           0        8.245549    9.462318   -2.852053
     65          1           0        9.243869    9.024069   -2.708198
     66          1           0        8.272204   10.442817   -2.354751
     67          6           0        8.030490    9.692211   -4.366224
     68          1           0        8.856910   10.340919   -4.692620
     69          6           0        8.128026    8.393150   -5.183319
     70          1           0        7.297504    7.712772   -4.962278
     71          1           0        8.098306    8.605498   -6.258182
     72          1           0        9.062568    7.859302   -4.974212
     73          6           0        6.722300   10.440244   -4.672493
     74          1           0        5.842765    9.831830   -4.432125
     75          1           0        6.660139   10.697843   -5.736018
     76          1           0        6.651474   11.371786   -4.098613
 ---------------------------------------------------------------------
 Rotational constants (GHZ):      0.2882614      0.0599737      0.0582409
 Leave Link  202 at Fri Apr 28 13:31:05 2017, MaxMem=   33554432 cpu:       0.1
 (Enter /scratch/michal/g09/l301.exe)
 Standard basis: 6-31G(d) (6D, 7F)
 Ernie: Thresh=  0.10000D-02 Tol=  0.10000D-05 Strict=F.
 AO basis set in the form of general basis input (Overlap normalization):
      1 0
 S   6 1.00       0.000000000000
      0.3047524880D+04  0.1834737132D-02
      0.4573695180D+03  0.1403732281D-01
      0.1039486850D+03  0.6884262226D-01
      0.2921015530D+02  0.2321844432D+00
      0.9286662960D+01  0.4679413484D+00
      0.3163926960D+01  0.3623119853D+00
 SP   3 1.00       0.000000000000
      0.7868272350D+01 -0.1193324198D+00  0.6899906659D-01
      0.1881288540D+01 -0.1608541517D+00  0.3164239610D+00
      0.5442492580D+00  0.1143456438D+01  0.7443082909D+00
 SP   1 1.00       0.000000000000
      0.1687144782D+00  0.1000000000D+01  0.1000000000D+01
 D   1 1.00       0.000000000000
      0.8000000000D+00  0.1000000000D+01
 ****
      2 0
 S   3 1.00       0.000000000000
      0.1873113696D+02  0.3349460434D-01
      0.2825394365D+01  0.2347269535D+00
      0.6401216923D+00  0.8137573261D+00
 S   1 1.00       0.000000000000
      0.1612777588D+00  0.1000000000D+01
 ****
      3 0
 S   6 1.00       0.000000000000
      0.3047524880D+04  0.1834737132D-02
      0.4573695180D+03  0.1403732281D-01
      0.1039486850D+03  0.6884262226D-01
      0.2921015530D+02  0.2321844432D+00
      0.9286662960D+01  0.4679413484D+00
      0.3163926960D+01  0.3623119853D+00
 SP   3 1.00       0.000000000000
      0.7868272350D+01 -0.1193324198D+00  0.6899906659D-01
      0.1881288540D+01 -0.1608541517D+00  0.3164239610D+00
      0.5442492580D+00  0.1143456438D+01  0.7443082909D+00
 SP   1 1.00       0.000000000000
      0.1687144782D+00  0.1000000000D+01  0.1000000000D+01
 D   1 1.00       0.000000000000
      0.8000000000D+00  0.1000000000D+01
 ****
      4 0
 S   3 1.00       0.000000000000
      0.1873113696D+02  0.3349460434D-01
      0.2825394365D+01  0.2347269535D+00
      0.6401216923D+00  0.8137573261D+00
 S   1 1.00       0.000000000000
      0.1612777588D+00  0.1000000000D+01
 ****
      5 0
 S   3 1.00       0.000000000000
      0.1873113696D+02  0.3349460434D-01
      0.2825394365D+01  0.2347269535D+00
      0.6401216923D+00  0.8137573261D+00
 S   1 1.00       0.000000000000
      0.1612777588D+00  0.1000000000D+01
 ****
      6 0
 S   6 1.00       0.000000000000
      0.3047524880D+04  0.1834737132D-02
      0.4573695180D+03  0.1403732281D-01
      0.1039486850D+03  0.6884262226D-01
      0.2921015530D+02  0.2321844432D+00
      0.9286662960D+01  0.4679413484D+00
      0.3163926960D+01  0.3623119853D+00
 SP   3 1.00       0.000000000000
      0.7868272350D+01 -0.1193324198D+00  0.6899906659D-01
      0.1881288540D+01 -0.1608541517D+00  0.3164239610D+00
      0.5442492580D+00  0.1143456438D+01  0.7443082909D+00
 SP   1 1.00       0.000000000000
      0.1687144782D+00  0.1000000000D+01  0.1000000000D+01
 D   1 1.00       0.000000000000
      0.8000000000D+00  0.1000000000D+01
 ****
      7 0
 S   6 1.00       0.000000000000
      0.3047524880D+04  0.1834737132D-02
      0.4573695180D+03  0.1403732281D-01
      0.1039486850D+03  0.6884262226D-01
      0.2921015530D+02  0.2321844432D+00
      0.9286662960D+01  0.4679413484D+00
      0.3163926960D+01  0.3623119853D+00
 SP   3 1.00       0.000000000000
      0.7868272350D+01 -0.1193324198D+00  0.6899906659D-01
      0.1881288540D+01 -0.1608541517D+00  0.3164239610D+00
      0.5442492580D+00  0.1143456438D+01  0.7443082909D+00
 SP   1 1.00       0.000000000000
      0.1687144782D+00  0.1000000000D+01  0.1000000000D+01
 D   1 1.00       0.000000000000
      0.8000000000D+00  0.1000000000D+01
 ****
      8 0
 S   6 1.00       0.000000000000
      0.3047524880D+04  0.1834737132D-02
      0.4573695180D+03  0.1403732281D-01
      0.1039486850D+03  0.6884262226D-01
      0.2921015530D+02  0.2321844432D+00
      0.9286662960D+01  0.4679413484D+00
      0.3163926960D+01  0.3623119853D+00
 SP   3 1.00       0.000000000000
      0.7868272350D+01 -0.1193324198D+00  0.6899906659D-01
      0.1881288540D+01 -0.1608541517D+00  0.3164239610D+00
      0.5442492580D+00  0.1143456438D+01  0.7443082909D+00
 SP   1 1.00       0.000000000000
      0.1687144782D+00  0.1000000000D+01  0.1000000000D+01
 D   1 1.00       0.000000000000
      0.8000000000D+00  0.1000000000D+01
 ****
      9 0
 S   3 1.00       0.000000000000
      0.1873113696D+02  0.3349460434D-01
      0.2825394365D+01  0.2347269535D+00
      0.6401216923D+00  0.8137573261D+00
 S   1 1.00       0.000000000000
      0.1612777588D+00  0.1000000000D+01
 ****
     10 0
 S   3 1.00       0.000000000000
      0.1873113696D+02  0.3349460434D-01
      0.2825394365D+01  0.2347269535D+00
      0.6401216923D+00  0.8137573261D+00
 S   1 1.00       0.000000000000
      0.1612777588D+00  0.1000000000D+01
 ****
     11 0
 S   6 1.00       0.000000000000
      0.3047524880D+04  0.1834737132D-02
      0.4573695180D+03  0.1403732281D-01
      0.1039486850D+03  0.6884262226D-01
      0.2921015530D+02  0.2321844432D+00
      0.9286662960D+01  0.4679413484D+00
      0.3163926960D+01  0.3623119853D+00
 SP   3 1.00       0.000000000000
      0.7868272350D+01 -0.1193324198D+00  0.6899906659D-01
      0.1881288540D+01 -0.1608541517D+00  0.3164239610D+00
      0.5442492580D+00  0.1143456438D+01  0.7443082909D+00
 SP   1 1.00       0.000000000000
      0.1687144782D+00  0.1000000000D+01  0.1000000000D+01
 D   1 1.00       0.000000000000
      0.8000000000D+00  0.1000000000D+01
 ****
     12 0
 S   3 1.00       0.000000000000
      0.1873113696D+02  0.3349460434D-01
      0.2825394365D+01  0.2347269535D+00
      0.6401216923D+00  0.8137573261D+00
 S   1 1.00       0.000000000000
      0.1612777588D+00  0.1000000000D+01
 ****
     13 0
 S   3 1.00       0.000000000000
      0.1873113696D+02  0.3349460434D-01
      0.2825394365D+01  0.2347269535D+00
      0.6401216923D+00  0.8137573261D+00
 S   1 1.00       0.000000000000
      0.1612777588D+00  0.1000000000D+01
 ****
     14 0
 S   6 1.00       0.000000000000
      0.3047524880D+04  0.1834737132D-02
      0.4573695180D+03  0.1403732281D-01
      0.1039486850D+03  0.6884262226D-01
      0.2921015530D+02  0.2321844432D+00
      0.9286662960D+01  0.4679413484D+00
      0.3163926960D+01  0.3623119853D+00
 SP   3 1.00       0.000000000000
      0.7868272350D+01 -0.1193324198D+00  0.6899906659D-01
      0.1881288540D+01 -0.1608541517D+00  0.3164239610D+00
      0.5442492580D+00  0.1143456438D+01  0.7443082909D+00
 SP   1 1.00       0.000000000000
      0.1687144782D+00  0.1000000000D+01  0.1000000000D+01
 D   1 1.00       0.000000000000
      0.8000000000D+00  0.1000000000D+01
 ****
     15 0
 S   3 1.00       0.000000000000
      0.1873113696D+02  0.3349460434D-01
      0.2825394365D+01  0.2347269535D+00
      0.6401216923D+00  0.8137573261D+00
 S   1 1.00       0.000000000000
      0.1612777588D+00  0.1000000000D+01
 ****
     16 0
 S   6 1.00       0.000000000000
      0.3047524880D+04  0.1834737132D-02
      0.4573695180D+03  0.1403732281D-01
      0.1039486850D+03  0.6884262226D-01
      0.2921015530D+02  0.2321844432D+00
      0.9286662960D+01  0.4679413484D+00
      0.3163926960D+01  0.3623119853D+00
 SP   3 1.00       0.000000000000
      0.7868272350D+01 -0.1193324198D+00  0.6899906659D-01
      0.1881288540D+01 -0.1608541517D+00  0.3164239610D+00
      0.5442492580D+00  0.1143456438D+01  0.7443082909D+00
 SP   1 1.00       0.000000000000
      0.1687144782D+00  0.1000000000D+01  0.1000000000D+01
 D   1 1.00       0.000000000000
      0.8000000000D+00  0.1000000000D+01
 ****
     17 0
 S   3 1.00       0.000000000000
      0.1873113696D+02  0.3349460434D-01
      0.2825394365D+01  0.2347269535D+00
      0.6401216923D+00  0.8137573261D+00
 S   1 1.00       0.000000000000
      0.1612777588D+00  0.1000000000D+01
 ****
     18 0
 S   6 1.00       0.000000000000
      0.3047524880D+04  0.1834737132D-02
      0.4573695180D+03  0.1403732281D-01
      0.1039486850D+03  0.6884262226D-01
      0.2921015530D+02  0.2321844432D+00
      0.9286662960D+01  0.4679413484D+00
      0.3163926960D+01  0.3623119853D+00
 SP   3 1.00       0.000000000000
      0.7868272350D+01 -0.1193324198D+00  0.6899906659D-01
      0.1881288540D+01 -0.1608541517D+00  0.3164239610D+00
      0.5442492580D+00  0.1143456438D+01  0.7443082909D+00
 SP   1 1.00       0.000000000000
      0.1687144782D+00  0.1000000000D+01  0.1000000000D+01
 D   1 1.00       0.000000000000
      0.8000000000D+00  0.1000000000D+01
 ****
     19 0
 S   3 1.00       0.000000000000
      0.1873113696D+02  0.3349460434D-01
      0.2825394365D+01  0.2347269535D+00
      0.6401216923D+00  0.8137573261D+00
 S   1 1.00       0.000000000000
      0.1612777588D+00  0.1000000000D+01
 ****
     20 0
 S   6 1.00       0.000000000000
      0.3047524880D+04  0.1834737132D-02
      0.4573695180D+03  0.1403732281D-01
      0.1039486850D+03  0.6884262226D-01
      0.2921015530D+02  0.2321844432D+00
      0.9286662960D+01  0.4679413484D+00
      0.3163926960D+01  0.3623119853D+00
 SP   3 1.00       0.000000000000
      0.7868272350D+01 -0.1193324198D+00  0.6899906659D-01
      0.1881288540D+01 -0.1608541517D+00  0.3164239610D+00
      0.5442492580D+00  0.1143456438D+01  0.7443082909D+00
 SP   1 1.00       0.000000000000
      0.1687144782D+00  0.1000000000D+01  0.1000000000D+01
 D   1 1.00       0.000000000000
      0.8000000000D+00  0.1000000000D+01
 ****
     21 0
 S   3 1.00       0.000000000000
      0.1873113696D+02  0.3349460434D-01
      0.2825394365D+01  0.2347269535D+00
      0.6401216923D+00  0.8137573261D+00
 S   1 1.00       0.000000000000
      0.1612777588D+00  0.1000000000D+01
 ****
     22 0
 S   6 1.00       0.000000000000
      0.3047524880D+04  0.1834737132D-02
      0.4573695180D+03  0.1403732281D-01
      0.1039486850D+03  0.6884262226D-01
      0.2921015530D+02  0.2321844432D+00
      0.9286662960D+01  0.4679413484D+00
      0.3163926960D+01  0.3623119853D+00
 SP   3 1.00       0.000000000000
      0.7868272350D+01 -0.1193324198D+00  0.6899906659D-01
      0.1881288540D+01 -0.1608541517D+00  0.3164239610D+00
      0.5442492580D+00  0.1143456438D+01  0.7443082909D+00
 SP   1 1.00       0.000000000000
      0.1687144782D+00  0.1000000000D+01  0.1000000000D+01
 D   1 1.00       0.000000000000
      0.8000000000D+00  0.1000000000D+01
 ****
     23 0
 S   3 1.00       0.000000000000
      0.1873113696D+02  0.3349460434D-01
      0.2825394365D+01  0.2347269535D+00
      0.6401216923D+00  0.8137573261D+00
 S   1 1.00       0.000000000000
      0.1612777588D+00  0.1000000000D+01
 ****
     24 0
 S   3 1.00       0.000000000000
      0.1873113696D+02  0.3349460434D-01
      0.2825394365D+01  0.2347269535D+00
      0.6401216923D+00  0.8137573261D+00
 S   1 1.00       0.000000000000
      0.1612777588D+00  0.1000000000D+01
 ****
     25 0
 S   6 1.00       0.000000000000
      0.3047524880D+04  0.1834737132D-02
      0.4573695180D+03  0.1403732281D-01
      0.1039486850D+03  0.6884262226D-01
      0.2921015530D+02  0.2321844432D+00
      0.9286662960D+01  0.4679413484D+00
      0.3163926960D+01  0.3623119853D+00
 SP   3 1.00       0.000000000000
      0.7868272350D+01 -0.1193324198D+00  0.6899906659D-01
      0.1881288540D+01 -0.1608541517D+00  0.3164239610D+00
      0.5442492580D+00  0.1143456438D+01  0.7443082909D+00
 SP   1 1.00       0.000000000000
      0.1687144782D+00  0.1000000000D+01  0.1000000000D+01
 D   1 1.00       0.000000000000
      0.8000000000D+00  0.1000000000D+01
 ****
     26 0
 S   3 1.00       0.000000000000
      0.1873113696D+02  0.3349460434D-01
      0.2825394365D+01  0.2347269535D+00
      0.6401216923D+00  0.8137573261D+00
 S   1 1.00       0.000000000000
      0.1612777588D+00  0.1000000000D+01
 ****
     27 0
 S   3 1.00       0.000000000000
      0.1873113696D+02  0.3349460434D-01
      0.2825394365D+01  0.2347269535D+00
      0.6401216923D+00  0.8137573261D+00
 S   1 1.00       0.000000000000
      0.1612777588D+00  0.1000000000D+01
 ****
     28 0
 S   6 1.00       0.000000000000
      0.3047524880D+04  0.1834737132D-02
      0.4573695180D+03  0.1403732281D-01
      0.1039486850D+03  0.6884262226D-01
      0.2921015530D+02  0.2321844432D+00
      0.9286662960D+01  0.4679413484D+00
      0.3163926960D+01  0.3623119853D+00
 SP   3 1.00       0.000000000000
      0.7868272350D+01 -0.1193324198D+00  0.6899906659D-01
      0.1881288540D+01 -0.1608541517D+00  0.3164239610D+00
      0.5442492580D+00  0.1143456438D+01  0.7443082909D+00
 SP   1 1.00       0.000000000000
      0.1687144782D+00  0.1000000000D+01  0.1000000000D+01
 D   1 1.00       0.000000000000
      0.8000000000D+00  0.1000000000D+01
 ****
     29 0
 S   6 1.00       0.000000000000
      0.3047524880D+04  0.1834737132D-02
      0.4573695180D+03  0.1403732281D-01
      0.1039486850D+03  0.6884262226D-01
      0.2921015530D+02  0.2321844432D+00
      0.9286662960D+01  0.4679413484D+00
      0.3163926960D+01  0.3623119853D+00
 SP   3 1.00       0.000000000000
      0.7868272350D+01 -0.1193324198D+00  0.6899906659D-01
      0.1881288540D+01 -0.1608541517D+00  0.3164239610D+00
      0.5442492580D+00  0.1143456438D+01  0.7443082909D+00
 SP   1 1.00       0.000000000000
      0.1687144782D+00  0.1000000000D+01  0.1000000000D+01
 D   1 1.00       0.000000000000
      0.8000000000D+00  0.1000000000D+01
 ****
     30 0
 S   3 1.00       0.000000000000
      0.1873113696D+02  0.3349460434D-01
      0.2825394365D+01  0.2347269535D+00
      0.6401216923D+00  0.8137573261D+00
 S   1 1.00       0.000000000000
      0.1612777588D+00  0.1000000000D+01
 ****
     31 0
 S   6 1.00       0.000000000000
      0.3047524880D+04  0.1834737132D-02
      0.4573695180D+03  0.1403732281D-01
      0.1039486850D+03  0.6884262226D-01
      0.2921015530D+02  0.2321844432D+00
      0.9286662960D+01  0.4679413484D+00
      0.3163926960D+01  0.3623119853D+00
 SP   3 1.00       0.000000000000
      0.7868272350D+01 -0.1193324198D+00  0.6899906659D-01
      0.1881288540D+01 -0.1608541517D+00  0.3164239610D+00
      0.5442492580D+00  0.1143456438D+01  0.7443082909D+00
 SP   1 1.00       0.000000000000
      0.1687144782D+00  0.1000000000D+01  0.1000000000D+01
 D   1 1.00       0.000000000000
      0.8000000000D+00  0.1000000000D+01
 ****
     32 0
 S   3 1.00       0.000000000000
      0.1873113696D+02  0.3349460434D-01
      0.2825394365D+01  0.2347269535D+00
      0.6401216923D+00  0.8137573261D+00
 S   1 1.00       0.000000000000
      0.1612777588D+00  0.1000000000D+01
 ****
     33 0
 S   3 1.00       0.000000000000
      0.1873113696D+02  0.3349460434D-01
      0.2825394365D+01  0.2347269535D+00
      0.6401216923D+00  0.8137573261D+00
 S   1 1.00       0.000000000000
      0.1612777588D+00  0.1000000000D+01
 ****
     34 0
 S   6 1.00       0.000000000000
      0.3047524880D+04  0.1834737132D-02
      0.4573695180D+03  0.1403732281D-01
      0.1039486850D+03  0.6884262226D-01
      0.2921015530D+02  0.2321844432D+00
      0.9286662960D+01  0.4679413484D+00
      0.3163926960D+01  0.3623119853D+00
 SP   3 1.00       0.000000000000
      0.7868272350D+01 -0.1193324198D+00  0.6899906659D-01
      0.1881288540D+01 -0.1608541517D+00  0.3164239610D+00
      0.5442492580D+00  0.1143456438D+01  0.7443082909D+00
 SP   1 1.00       0.000000000000
      0.1687144782D+00  0.1000000000D+01  0.1000000000D+01
 D   1 1.00       0.000000000000
      0.8000000000D+00  0.1000000000D+01
 ****
     35 0
 S   3 1.00       0.000000000000
      0.1873113696D+02  0.3349460434D-01
      0.2825394365D+01  0.2347269535D+00
      0.6401216923D+00  0.8137573261D+00
 S   1 1.00       0.000000000000
      0.1612777588D+00  0.1000000000D+01
 ****
     36 0
 S   3 1.00       0.000000000000
      0.1873113696D+02  0.3349460434D-01
      0.2825394365D+01  0.2347269535D+00
      0.6401216923D+00  0.8137573261D+00
 S   1 1.00       0.000000000000
      0.1612777588D+00  0.1000000000D+01
 ****
     37 0
 S   6 1.00       0.000000000000
      0.3047524880D+04  0.1834737132D-02
      0.4573695180D+03  0.1403732281D-01
      0.1039486850D+03  0.6884262226D-01
      0.2921015530D+02  0.2321844432D+00
      0.9286662960D+01  0.4679413484D+00
      0.3163926960D+01  0.3623119853D+00
 SP   3 1.00       0.000000000000
      0.7868272350D+01 -0.1193324198D+00  0.6899906659D-01
      0.1881288540D+01 -0.1608541517D+00  0.3164239610D+00
      0.5442492580D+00  0.1143456438D+01  0.7443082909D+00
 SP   1 1.00       0.000000000000
      0.1687144782D+00  0.1000000000D+01  0.1000000000D+01
 D   1 1.00       0.000000000000
      0.8000000000D+00  0.1000000000D+01
 ****
     38 0
 S   3 1.00       0.000000000000
      0.1873113696D+02  0.3349460434D-01
      0.2825394365D+01  0.2347269535D+00
      0.6401216923D+00  0.8137573261D+00
 S   1 1.00       0.000000000000
      0.1612777588D+00  0.1000000000D+01
 ****
     39 0
 S   6 1.00       0.000000000000
      0.3047524880D+04  0.1834737132D-02
      0.4573695180D+03  0.1403732281D-01
      0.1039486850D+03  0.6884262226D-01
      0.2921015530D+02  0.2321844432D+00
      0.9286662960D+01  0.4679413484D+00
      0.3163926960D+01  0.3623119853D+00
 SP   3 1.00       0.000000000000
      0.7868272350D+01 -0.1193324198D+00  0.6899906659D-01
      0.1881288540D+01 -0.1608541517D+00  0.3164239610D+00
      0.5442492580D+00  0.1143456438D+01  0.7443082909D+00
 SP   1 1.00       0.000000000000
      0.1687144782D+00  0.1000000000D+01  0.1000000000D+01
 D   1 1.00       0.000000000000
      0.8000000000D+00  0.1000000000D+01
 ****
     40 0
 S   3 1.00       0.000000000000
      0.1873113696D+02  0.3349460434D-01
      0.2825394365D+01  0.2347269535D+00
      0.6401216923D+00  0.8137573261D+00
 S   1 1.00       0.000000000000
      0.1612777588D+00  0.1000000000D+01
 ****
     41 0
 S   3 1.00       0.000000000000
      0.1873113696D+02  0.3349460434D-01
      0.2825394365D+01  0.2347269535D+00
      0.6401216923D+00  0.8137573261D+00
 S   1 1.00       0.000000000000
      0.1612777588D+00  0.1000000000D+01
 ****
     42 0
 S   3 1.00       0.000000000000
      0.1873113696D+02  0.3349460434D-01
      0.2825394365D+01  0.2347269535D+00
      0.6401216923D+00  0.8137573261D+00
 S   1 1.00       0.000000000000
      0.1612777588D+00  0.1000000000D+01
 ****
     43 0
 S   6 1.00       0.000000000000
      0.3047524880D+04  0.1834737132D-02
      0.4573695180D+03  0.1403732281D-01
      0.1039486850D+03  0.6884262226D-01
      0.2921015530D+02  0.2321844432D+00
      0.9286662960D+01  0.4679413484D+00
      0.3163926960D+01  0.3623119853D+00
 SP   3 1.00       0.000000000000
      0.7868272350D+01 -0.1193324198D+00  0.6899906659D-01
      0.1881288540D+01 -0.1608541517D+00  0.3164239610D+00
      0.5442492580D+00  0.1143456438D+01  0.7443082909D+00
 SP   1 1.00       0.000000000000
      0.1687144782D+00  0.1000000000D+01  0.1000000000D+01
 D   1 1.00       0.000000000000
      0.8000000000D+00  0.1000000000D+01
 ****
     44 0
 S   3 1.00       0.000000000000
      0.1873113696D+02  0.3349460434D-01
      0.2825394365D+01  0.2347269535D+00
      0.6401216923D+00  0.8137573261D+00
 S   1 1.00       0.000000000000
      0.1612777588D+00  0.1000000000D+01
 ****
     45 0
 S   6 1.00       0.000000000000
      0.3047524880D+04  0.1834737132D-02
      0.4573695180D+03  0.1403732281D-01
      0.1039486850D+03  0.6884262226D-01
      0.2921015530D+02  0.2321844432D+00
      0.9286662960D+01  0.4679413484D+00
      0.3163926960D+01  0.3623119853D+00
 SP   3 1.00       0.000000000000
      0.7868272350D+01 -0.1193324198D+00  0.6899906659D-01
      0.1881288540D+01 -0.1608541517D+00  0.3164239610D+00
      0.5442492580D+00  0.1143456438D+01  0.7443082909D+00
 SP   1 1.00       0.000000000000
      0.1687144782D+00  0.1000000000D+01  0.1000000000D+01
 D   1 1.00       0.000000000000
      0.8000000000D+00  0.1000000000D+01
 ****
     46 0
 S   3 1.00       0.000000000000
      0.1873113696D+02  0.3349460434D-01
      0.2825394365D+01  0.2347269535D+00
      0.6401216923D+00  0.8137573261D+00
 S   1 1.00       0.000000000000
      0.1612777588D+00  0.1000000000D+01
 ****
     47 0
 S   3 1.00       0.000000000000
      0.1873113696D+02  0.3349460434D-01
      0.2825394365D+01  0.2347269535D+00
      0.6401216923D+00  0.8137573261D+00
 S   1 1.00       0.000000000000
      0.1612777588D+00  0.1000000000D+01
 ****
     48 0
 S   3 1.00       0.000000000000
      0.1873113696D+02  0.3349460434D-01
      0.2825394365D+01  0.2347269535D+00
      0.6401216923D+00  0.8137573261D+00
 S   1 1.00       0.000000000000
      0.1612777588D+00  0.1000000000D+01
 ****
     49 0
 S   6 1.00       0.000000000000
      0.3047524880D+04  0.1834737132D-02
      0.4573695180D+03  0.1403732281D-01
      0.1039486850D+03  0.6884262226D-01
      0.2921015530D+02  0.2321844432D+00
      0.9286662960D+01  0.4679413484D+00
      0.3163926960D+01  0.3623119853D+00
 SP   3 1.00       0.000000000000
      0.7868272350D+01 -0.1193324198D+00  0.6899906659D-01
      0.1881288540D+01 -0.1608541517D+00  0.3164239610D+00
      0.5442492580D+00  0.1143456438D+01  0.7443082909D+00
 SP   1 1.00       0.000000000000
      0.1687144782D+00  0.1000000000D+01  0.1000000000D+01
 D   1 1.00       0.000000000000
      0.8000000000D+00  0.1000000000D+01
 ****
     50 0
 S   3 1.00       0.000000000000
      0.1873113696D+02  0.3349460434D-01
      0.2825394365D+01  0.2347269535D+00
      0.6401216923D+00  0.8137573261D+00
 S   1 1.00       0.000000000000
      0.1612777588D+00  0.1000000000D+01
 ****
     51 0
 S   3 1.00       0.000000000000
      0.1873113696D+02  0.3349460434D-01
      0.2825394365D+01  0.2347269535D+00
      0.6401216923D+00  0.8137573261D+00
 S   1 1.00       0.000000000000
      0.1612777588D+00  0.1000000000D+01
 ****
     52 0
 S   3 1.00       0.000000000000
      0.1873113696D+02  0.3349460434D-01
      0.2825394365D+01  0.2347269535D+00
      0.6401216923D+00  0.8137573261D+00
 S   1 1.00       0.000000000000
      0.1612777588D+00  0.1000000000D+01
 ****
     53 0
 S   6 1.00       0.000000000000
      0.5484671660D+04  0.1831074430D-02
      0.8252349460D+03  0.1395017220D-01
      0.1880469580D+03  0.6844507810D-01
      0.5296450000D+02  0.2327143360D+00
      0.1689757040D+02  0.4701928980D+00
      0.5799635340D+01  0.3585208530D+00
 SP   3 1.00       0.000000000000
      0.1553961625D+02 -0.1107775495D+00  0.7087426823D-01
      0.3599933586D+01 -0.1480262627D+00  0.3397528391D+00
      0.1013761750D+01  0.1130767015D+01  0.7271585773D+00
 SP   1 1.00       0.000000000000
      0.2700058226D+00  0.1000000000D+01  0.1000000000D+01
 D   1 1.00       0.000000000000
      0.8000000000D+00  0.1000000000D+01
 ****
     54 0
 S   6 1.00       0.000000000000
      0.5484671660D+04  0.1831074430D-02
      0.8252349460D+03  0.1395017220D-01
      0.1880469580D+03  0.6844507810D-01
      0.5296450000D+02  0.2327143360D+00
      0.1689757040D+02  0.4701928980D+00
      0.5799635340D+01  0.3585208530D+00
 SP   3 1.00       0.000000000000
      0.1553961625D+02 -0.1107775495D+00  0.7087426823D-01
      0.3599933586D+01 -0.1480262627D+00  0.3397528391D+00
      0.1013761750D+01  0.1130767015D+01  0.7271585773D+00
 SP   1 1.00       0.000000000000
      0.2700058226D+00  0.1000000000D+01  0.1000000000D+01
 D   1 1.00       0.000000000000
      0.8000000000D+00  0.1000000000D+01
 ****
     55 0
 S   3 1.00       0.000000000000
      0.1873113696D+02  0.3349460434D-01
      0.2825394365D+01  0.2347269535D+00
      0.6401216923D+00  0.8137573261D+00
 S   1 1.00       0.000000000000
      0.1612777588D+00  0.1000000000D+01
 ****
     56 0
 S   6 1.00       0.000000000000
      0.5484671660D+04  0.1831074430D-02
      0.8252349460D+03  0.1395017220D-01
      0.1880469580D+03  0.6844507810D-01
      0.5296450000D+02  0.2327143360D+00
      0.1689757040D+02  0.4701928980D+00
      0.5799635340D+01  0.3585208530D+00
 SP   3 1.00       0.000000000000
      0.1553961625D+02 -0.1107775495D+00  0.7087426823D-01
      0.3599933586D+01 -0.1480262627D+00  0.3397528391D+00
      0.1013761750D+01  0.1130767015D+01  0.7271585773D+00
 SP   1 1.00       0.000000000000
      0.2700058226D+00  0.1000000000D+01  0.1000000000D+01
 D   1 1.00       0.000000000000
      0.8000000000D+00  0.1000000000D+01
 ****
     57 0
 S   3 1.00       0.000000000000
      0.1873113696D+02  0.3349460434D-01
      0.2825394365D+01  0.2347269535D+00
      0.6401216923D+00  0.8137573261D+00
 S   1 1.00       0.000000000000
      0.1612777588D+00  0.1000000000D+01
 ****
     58 0
 S   6 1.00       0.000000000000
      0.3047524880D+04  0.1834737132D-02
      0.4573695180D+03  0.1403732281D-01
      0.1039486850D+03  0.6884262226D-01
      0.2921015530D+02  0.2321844432D+00
      0.9286662960D+01  0.4679413484D+00
      0.3163926960D+01  0.3623119853D+00
 SP   3 1.00       0.000000000000
      0.7868272350D+01 -0.1193324198D+00  0.6899906659D-01
      0.1881288540D+01 -0.1608541517D+00  0.3164239610D+00
      0.5442492580D+00  0.1143456438D+01  0.7443082909D+00
 SP   1 1.00       0.000000000000
      0.1687144782D+00  0.1000000000D+01  0.1000000000D+01
 D   1 1.00       0.000000000000
      0.8000000000D+00  0.1000000000D+01
 ****
     59 0
 S   3 1.00       0.000000000000
      0.1873113696D+02  0.3349460434D-01
      0.2825394365D+01  0.2347269535D+00
      0.6401216923D+00  0.8137573261D+00
 S   1 1.00       0.000000000000
      0.1612777588D+00  0.1000000000D+01
 ****
     60 0
 S   3 1.00       0.000000000000
      0.1873113696D+02  0.3349460434D-01
      0.2825394365D+01  0.2347269535D+00
      0.6401216923D+00  0.8137573261D+00
 S   1 1.00       0.000000000000
      0.1612777588D+00  0.1000000000D+01
 ****
     61 0
 S   6 1.00       0.000000000000
      0.3047524880D+04  0.1834737132D-02
      0.4573695180D+03  0.1403732281D-01
      0.1039486850D+03  0.6884262226D-01
      0.2921015530D+02  0.2321844432D+00
      0.9286662960D+01  0.4679413484D+00
      0.3163926960D+01  0.3623119853D+00
 SP   3 1.00       0.000000000000
      0.7868272350D+01 -0.1193324198D+00  0.6899906659D-01
      0.1881288540D+01 -0.1608541517D+00  0.3164239610D+00
      0.5442492580D+00  0.1143456438D+01  0.7443082909D+00
 SP   1 1.00       0.000000000000
      0.1687144782D+00  0.1000000000D+01  0.1000000000D+01
 D   1 1.00       0.000000000000
      0.8000000000D+00  0.1000000000D+01
 ****
     62 0
 S   3 1.00       0.000000000000
      0.1873113696D+02  0.3349460434D-01
      0.2825394365D+01  0.2347269535D+00
      0.6401216923D+00  0.8137573261D+00
 S   1 1.00       0.000000000000
      0.1612777588D+00  0.1000000000D+01
 ****
     63 0
 S   3 1.00       0.000000000000
      0.1873113696D+02  0.3349460434D-01
      0.2825394365D+01  0.2347269535D+00
      0.6401216923D+00  0.8137573261D+00
 S   1 1.00       0.000000000000
      0.1612777588D+00  0.1000000000D+01
 ****
     64 0
 S   6 1.00       0.000000000000
      0.3047524880D+04  0.1834737132D-02
      0.4573695180D+03  0.1403732281D-01
      0.1039486850D+03  0.6884262226D-01
      0.2921015530D+02  0.2321844432D+00
      0.9286662960D+01  0.4679413484D+00
      0.3163926960D+01  0.3623119853D+00
 SP   3 1.00       0.000000000000
      0.7868272350D+01 -0.1193324198D+00  0.6899906659D-01
      0.1881288540D+01 -0.1608541517D+00  0.3164239610D+00
      0.5442492580D+00  0.1143456438D+01  0.7443082909D+00
 SP   1 1.00       0.000000000000
      0.1687144782D+00  0.1000000000D+01  0.1000000000D+01
 D   1 1.00       0.000000000000
      0.8000000000D+00  0.1000000000D+01
 ****
     65 0
 S   3 1.00       0.000000000000
      0.1873113696D+02  0.3349460434D-01
      0.2825394365D+01  0.2347269535D+00
      0.6401216923D+00  0.8137573261D+00
 S   1 1.00       0.000000000000
      0.1612777588D+00  0.1000000000D+01
 ****
     66 0
 S   3 1.00       0.000000000000
      0.1873113696D+02  0.3349460434D-01
      0.2825394365D+01  0.2347269535D+00
      0.6401216923D+00  0.8137573261D+00
 S   1 1.00       0.000000000000
      0.1612777588D+00  0.1000000000D+01
 ****
     67 0
 S   6 1.00       0.000000000000
      0.3047524880D+04  0.1834737132D-02
      0.4573695180D+03  0.1403732281D-01
      0.1039486850D+03  0.6884262226D-01
      0.2921015530D+02  0.2321844432D+00
      0.9286662960D+01  0.4679413484D+00
      0.3163926960D+01  0.3623119853D+00
 SP   3 1.00       0.000000000000
      0.7868272350D+01 -0.1193324198D+00  0.6899906659D-01
      0.1881288540D+01 -0.1608541517D+00  0.3164239610D+00
      0.5442492580D+00  0.1143456438D+01  0.7443082909D+00
 SP   1 1.00       0.000000000000
      0.1687144782D+00  0.1000000000D+01  0.1000000000D+01
 D   1 1.00       0.000000000000
      0.8000000000D+00  0.1000000000D+01
 ****
     68 0
 S   3 1.00       0.000000000000
      0.1873113696D+02  0.3349460434D-01
      0.2825394365D+01  0.2347269535D+00
      0.6401216923D+00  0.8137573261D+00
 S   1 1.00       0.000000000000
      0.1612777588D+00  0.1000000000D+01
 ****
     69 0
 S   6 1.00       0.000000000000
      0.3047524880D+04  0.1834737132D-02
      0.4573695180D+03  0.1403732281D-01
      0.1039486850D+03  0.6884262226D-01
      0.2921015530D+02  0.2321844432D+00
      0.9286662960D+01  0.4679413484D+00
      0.3163926960D+01  0.3623119853D+00
 SP   3 1.00       0.000000000000
      0.7868272350D+01 -0.1193324198D+00  0.6899906659D-01
      0.1881288540D+01 -0.1608541517D+00  0.3164239610D+00
      0.5442492580D+00  0.1143456438D+01  0.7443082909D+00
 SP   1 1.00       0.000000000000
      0.1687144782D+00  0.1000000000D+01  0.1000000000D+01
 D   1 1.00       0.000000000000
      0.8000000000D+00  0.1000000000D+01
 ****
     70 0
 S   3 1.00       0.000000000000
      0.1873113696D+02  0.3349460434D-01
      0.2825394365D+01  0.2347269535D+00
      0.6401216923D+00  0.8137573261D+00
 S   1 1.00       0.000000000000
      0.1612777588D+00  0.1000000000D+01
 ****
     71 0
 S   3 1.00       0.000000000000
      0.1873113696D+02  0.3349460434D-01
      0.2825394365D+01  0.2347269535D+00
      0.6401216923D+00  0.8137573261D+00
 S   1 1.00       0.000000000000
      0.1612777588D+00  0.1000000000D+01
 ****
     72 0
 S   3 1.00       0.000000000000
      0.1873113696D+02  0.3349460434D-01
      0.2825394365D+01  0.2347269535D+00
      0.6401216923D+00  0.8137573261D+00
 S   1 1.00       0.000000000000
      0.1612777588D+00  0.1000000000D+01
 ****
     73 0
 S   6 1.00       0.000000000000
      0.3047524880D+04  0.1834737132D-02
      0.4573695180D+03  0.1403732281D-01
      0.1039486850D+03  0.6884262226D-01
      0.2921015530D+02  0.2321844432D+00
      0.9286662960D+01  0.4679413484D+00
      0.3163926960D+01  0.3623119853D+00
 SP   3 1.00       0.000000000000
      0.7868272350D+01 -0.1193324198D+00  0.6899906659D-01
      0.1881288540D+01 -0.1608541517D+00  0.3164239610D+00
      0.5442492580D+00  0.1143456438D+01  0.7443082909D+00
 SP   1 1.00       0.000000000000
      0.1687144782D+00  0.1000000000D+01  0.1000000000D+01
 D   1 1.00       0.000000000000
      0.8000000000D+00  0.1000000000D+01
 ****
     74 0
 S   3 1.00       0.000000000000
      0.1873113696D+02  0.3349460434D-01
      0.2825394365D+01  0.2347269535D+00
      0.6401216923D+00  0.8137573261D+00
 S   1 1.00       0.000000000000
      0.1612777588D+00  0.1000000000D+01
 ****
     75 0
 S   3 1.00       0.000000000000
      0.1873113696D+02  0.3349460434D-01
      0.2825394365D+01  0.2347269535D+00
      0.6401216923D+00  0.8137573261D+00
 S   1 1.00       0.000000000000
      0.1612777588D+00  0.1000000000D+01
 ****
     76 0
 S   3 1.00       0.000000000000
      0.1873113696D+02  0.3349460434D-01
      0.2825394365D+01  0.2347269535D+00
      0.6401216923D+00  0.8137573261D+00
 S   1 1.00       0.000000000000
      0.1612777588D+00  0.1000000000D+01
 ****

 AO basis set (Overlap normalization):
 Atom C1       Shell     1 S   6     bf    1 -     1          3.323544573445         -2.358550821426         -0.135366544207
      0.3047524880D+04  0.1834737132D-02
      0.4573695180D+03  0.1403732281D-01
      0.1039486850D+03  0.6884262226D-01
      0.2921015530D+02  0.2321844432D+00
      0.9286662960D+01  0.4679413484D+00
      0.3163926960D+01  0.3623119853D+00
 Atom C1       Shell     2 SP   3    bf    2 -     5          3.323544573445         -2.358550821426         -0.135366544207
      0.7868272350D+01 -0.1193324198D+00  0.6899906659D-01
      0.1881288540D+01 -0.1608541517D+00  0.3164239610D+00
      0.5442492580D+00  0.1143456438D+01  0.7443082909D+00
 Atom C1       Shell     3 SP   1    bf    6 -     9          3.323544573445         -2.358550821426         -0.135366544207
      0.1687144782D+00  0.1000000000D+01  0.1000000000D+01
 Atom C1       Shell     4 D   1     bf   10 -    15          3.323544573445         -2.358550821426         -0.135366544207
      0.8000000000D+00  0.1000000000D+01
 Atom H2       Shell     5 S   3     bf   16 -    16          3.537325076769         -2.126532816858         -2.184014487471
      0.1873113696D+02  0.3349460434D-01
      0.2825394365D+01  0.2347269535D+00
      0.6401216923D+00  0.8137573261D+00
 Atom H2       Shell     6 S   1     bf   17 -    17          3.537325076769         -2.126532816858         -2.184014487471
      0.1612777588D+00  0.1000000000D+01
 Atom C3       Shell     7 S   6     bf   18 -    18          5.954400829914         -2.474937202019          1.082362998070
      0.3047524880D+04  0.1834737132D-02
      0.4573695180D+03  0.1403732281D-01
      0.1039486850D+03  0.6884262226D-01
      0.2921015530D+02  0.2321844432D+00
      0.9286662960D+01  0.4679413484D+00
      0.3163926960D+01  0.3623119853D+00
 Atom C3       Shell     8 SP   3    bf   19 -    22          5.954400829914         -2.474937202019          1.082362998070
      0.7868272350D+01 -0.1193324198D+00  0.6899906659D-01
      0.1881288540D+01 -0.1608541517D+00  0.3164239610D+00
      0.5442492580D+00  0.1143456438D+01  0.7443082909D+00
 Atom C3       Shell     9 SP   1    bf   23 -    26          5.954400829914         -2.474937202019          1.082362998070
      0.1687144782D+00  0.1000000000D+01  0.1000000000D+01
 Atom C3       Shell    10 D   1     bf   27 -    32          5.954400829914         -2.474937202019          1.082362998070
      0.8000000000D+00  0.1000000000D+01
 Atom H4       Shell    11 S   3     bf   33 -    33          7.044543792679         -4.022555309349          0.248677660080
      0.1873113696D+02  0.3349460434D-01
      0.2825394365D+01  0.2347269535D+00
      0.6401216923D+00  0.8137573261D+00
 Atom H4       Shell    12 S   1     bf   34 -    34          7.044543792679         -4.022555309349          0.248677660080
      0.1612777588D+00  0.1000000000D+01
 Atom H5       Shell    13 S   3     bf   35 -    35          5.693466651800         -2.943385476011          3.094980761480
      0.1873113696D+02  0.3349460434D-01
      0.2825394365D+01  0.2347269535D+00
      0.6401216923D+00  0.8137573261D+00
 Atom H5       Shell    14 S   1     bf   36 -    36          5.693466651800         -2.943385476011          3.094980761480
      0.1612777588D+00  0.1000000000D+01
 Atom C6       Shell    15 S   6     bf   37 -    37          7.396774986643         -0.008312584005          0.857224617078
      0.3047524880D+04  0.1834737132D-02
      0.4573695180D+03  0.1403732281D-01
      0.1039486850D+03  0.6884262226D-01
      0.2921015530D+02  0.2321844432D+00
      0.9286662960D+01  0.4679413484D+00
      0.3163926960D+01  0.3623119853D+00
 Atom C6       Shell    16 SP   3    bf   38 -    41          7.396774986643         -0.008312584005          0.857224617078
      0.7868272350D+01 -0.1193324198D+00  0.6899906659D-01
      0.1881288540D+01 -0.1608541517D+00  0.3164239610D+00
      0.5442492580D+00  0.1143456438D+01  0.7443082909D+00
 Atom C6       Shell    17 SP   1    bf   42 -    45          7.396774986643         -0.008312584005          0.857224617078
      0.1687144782D+00  0.1000000000D+01  0.1000000000D+01
 Atom C6       Shell    18 D   1     bf   46 -    51          7.396774986643         -0.008312584005          0.857224617078
      0.8000000000D+00  0.1000000000D+01
 Atom C7       Shell    19 S   6     bf   52 -    52          6.029302279479          2.413893567721          1.665118575964
      0.3047524880D+04  0.1834737132D-02
      0.4573695180D+03  0.1403732281D-01
      0.1039486850D+03  0.6884262226D-01
      0.2921015530D+02  0.2321844432D+00
      0.9286662960D+01  0.4679413484D+00
      0.3163926960D+01  0.3623119853D+00
 Atom C7       Shell    20 SP   3    bf   53 -    56          6.029302279479          2.413893567721          1.665118575964
      0.7868272350D+01 -0.1193324198D+00  0.6899906659D-01
      0.1881288540D+01 -0.1608541517D+00  0.3164239610D+00
      0.5442492580D+00  0.1143456438D+01  0.7443082909D+00
 Atom C7       Shell    21 SP   1    bf   57 -    60          6.029302279479          2.413893567721          1.665118575964
      0.1687144782D+00  0.1000000000D+01  0.1000000000D+01
 Atom C7       Shell    22 D   1     bf   61 -    66          6.029302279479          2.413893567721          1.665118575964
      0.8000000000D+00  0.1000000000D+01
 Atom C8       Shell    23 S   6     bf   67 -    67          3.303626009627          2.369442295788          0.539315838565
      0.3047524880D+04  0.1834737132D-02
      0.4573695180D+03  0.1403732281D-01
      0.1039486850D+03  0.6884262226D-01
      0.2921015530D+02  0.2321844432D+00
      0.9286662960D+01  0.4679413484D+00
      0.3163926960D+01  0.3623119853D+00
 Atom C8       Shell    24 SP   3    bf   68 -    71          3.303626009627          2.369442295788          0.539315838565
      0.7868272350D+01 -0.1193324198D+00  0.6899906659D-01
      0.1881288540D+01 -0.1608541517D+00  0.3164239610D+00
      0.5442492580D+00  0.1143456438D+01  0.7443082909D+00
 Atom C8       Shell    25 SP   1    bf   72 -    75          3.303626009627          2.369442295788          0.539315838565
      0.1687144782D+00  0.1000000000D+01  0.1000000000D+01
 Atom C8       Shell    26 D   1     bf   76 -    81          3.303626009627          2.369442295788          0.539315838565
      0.8000000000D+00  0.1000000000D+01
 Atom H9       Shell    27 S   3     bf   82 -    82          3.436139747675          2.734117789871         -1.500730619363
      0.1873113696D+02  0.3349460434D-01
      0.2825394365D+01  0.2347269535D+00
      0.6401216923D+00  0.8137573261D+00
 Atom H9       Shell    28 S   1     bf   83 -    83          3.436139747675          2.734117789871         -1.500730619363
      0.1612777588D+00  0.1000000000D+01
 Atom H10      Shell    29 S   3     bf   84 -    84          2.203956748454          3.927501442358          1.341958720959
      0.1873113696D+02  0.3349460434D-01
      0.2825394365D+01  0.2347269535D+00
      0.6401216923D+00  0.8137573261D+00
 Atom H10      Shell    30 S   1     bf   85 -    85          2.203956748454          3.927501442358          1.341958720959
      0.1612777588D+00  0.1000000000D+01
 Atom C11      Shell    31 S   6     bf   86 -    86          1.849463873563         -0.113770224837          0.924960073969
      0.3047524880D+04  0.1834737132D-02
      0.4573695180D+03  0.1403732281D-01
      0.1039486850D+03  0.6884262226D-01
      0.2921015530D+02  0.2321844432D+00
      0.9286662960D+01  0.4679413484D+00
      0.3163926960D+01  0.3623119853D+00
 Atom C11      Shell    32 SP   3    bf   87 -    90          1.849463873563         -0.113770224837          0.924960073969
      0.7868272350D+01 -0.1193324198D+00  0.6899906659D-01
      0.1881288540D+01 -0.1608541517D+00  0.3164239610D+00
      0.5442492580D+00  0.1143456438D+01  0.7443082909D+00
 Atom C11      Shell    33 SP   1    bf   91 -    94          1.849463873563         -0.113770224837          0.924960073969
      0.1687144782D+00  0.1000000000D+01  0.1000000000D+01
 Atom C11      Shell    34 D   1     bf   95 -   100          1.849463873563         -0.113770224837          0.924960073969
      0.8000000000D+00  0.1000000000D+01
 Atom H12      Shell    35 S   3     bf  101 -   101          1.485174280453         -0.437487530154          2.946102108505
      0.1873113696D+02  0.3349460434D-01
      0.2825394365D+01  0.2347269535D+00
      0.6401216923D+00  0.8137573261D+00
 Atom H12      Shell    36 S   1     bf  102 -   102          1.485174280453         -0.437487530154          2.946102108505
      0.1612777588D+00  0.1000000000D+01
 Atom H13      Shell    37 S   3     bf  103 -   103          0.000000000000          0.000000000000          0.000000000000
      0.1873113696D+02  0.3349460434D-01
      0.2825394365D+01  0.2347269535D+00
      0.6401216923D+00  0.8137573261D+00
 Atom H13      Shell    38 S   1     bf  104 -   104          0.000000000000          0.000000000000          0.000000000000
      0.1612777588D+00  0.1000000000D+01
 Atom C14      Shell    39 S   6     bf  105 -   105          9.779127815781          0.000000000000          0.000000000000
      0.3047524880D+04  0.1834737132D-02
      0.4573695180D+03  0.1403732281D-01
      0.1039486850D+03  0.6884262226D-01
      0.2921015530D+02  0.2321844432D+00
      0.9286662960D+01  0.4679413484D+00
      0.3163926960D+01  0.3623119853D+00
 Atom C14      Shell    40 SP   3    bf  106 -   109          9.779127815781          0.000000000000          0.000000000000
      0.7868272350D+01 -0.1193324198D+00  0.6899906659D-01
      0.1881288540D+01 -0.1608541517D+00  0.3164239610D+00
      0.5442492580D+00  0.1143456438D+01  0.7443082909D+00
 Atom C14      Shell    41 SP   1    bf  110 -   113          9.779127815781          0.000000000000          0.000000000000
      0.1687144782D+00  0.1000000000D+01  0.1000000000D+01
 Atom C14      Shell    42 D   1     bf  114 -   119          9.779127815781          0.000000000000          0.000000000000
      0.8000000000D+00  0.1000000000D+01
 Atom H15      Shell    43 S   3     bf  120 -   120         10.648954128268         -1.769218202905         -0.600272696639
      0.1873113696D+02  0.3349460434D-01
      0.2825394365D+01  0.2347269535D+00
      0.6401216923D+00  0.8137573261D+00
 Atom H15      Shell    44 S   1     bf  121 -   121         10.648954128268         -1.769218202905         -0.600272696639
      0.1612777588D+00  0.1000000000D+01
 Atom C16      Shell    45 S   6     bf  122 -   122         11.449608659723          2.281712024630         -0.204145092129
      0.3047524880D+04  0.1834737132D-02
      0.4573695180D+03  0.1403732281D-01
      0.1039486850D+03  0.6884262226D-01
      0.2921015530D+02  0.2321844432D+00
      0.9286662960D+01  0.4679413484D+00
      0.3163926960D+01  0.3623119853D+00
 Atom C16      Shell    46 SP   3    bf  123 -   126         11.449608659723          2.281712024630         -0.204145092129
      0.7868272350D+01 -0.1193324198D+00  0.6899906659D-01
      0.1881288540D+01 -0.1608541517D+00  0.3164239610D+00
      0.5442492580D+00  0.1143456438D+01  0.7443082909D+00
 Atom C16      Shell    47 SP   1    bf  127 -   130         11.449608659723          2.281712024630         -0.204145092129
      0.1687144782D+00  0.1000000000D+01  0.1000000000D+01
 Atom C16      Shell    48 D   1     bf  131 -   136         11.449608659723          2.281712024630         -0.204145092129
      0.8000000000D+00  0.1000000000D+01
 Atom H17      Shell    49 S   3     bf  137 -   137         11.882067099514          2.643593936571         -2.209294015355
      0.1873113696D+02  0.3349460434D-01
      0.2825394365D+01  0.2347269535D+00
      0.6401216923D+00  0.8137573261D+00
 Atom H17      Shell    50 S   1     bf  138 -   138         11.882067099514          2.643593936571         -2.209294015355
      0.1612777588D+00  0.1000000000D+01
 Atom C18      Shell    51 S   6     bf  139 -   139         10.360964589932          4.682037585484          1.012742917307
      0.3047524880D+04  0.1834737132D-02
      0.4573695180D+03  0.1403732281D-01
      0.1039486850D+03  0.6884262226D-01
      0.2921015530D+02  0.2321844432D+00
      0.9286662960D+01  0.4679413484D+00
      0.3163926960D+01  0.3623119853D+00
 Atom C18      Shell    52 SP   3    bf  140 -   143         10.360964589932          4.682037585484          1.012742917307
      0.7868272350D+01 -0.1193324198D+00  0.6899906659D-01
      0.1881288540D+01 -0.1608541517D+00  0.3164239610D+00
      0.5442492580D+00  0.1143456438D+01  0.7443082909D+00
 Atom C18      Shell    53 SP   1    bf  144 -   147         10.360964589932          4.682037585484          1.012742917307
      0.1687144782D+00  0.1000000000D+01  0.1000000000D+01
 Atom C18      Shell    54 D   1     bf  148 -   153         10.360964589932          4.682037585484          1.012742917307
      0.8000000000D+00  0.1000000000D+01
 Atom H19      Shell    55 S   3     bf  154 -   154         10.759686580552          4.555208219233          3.040159239448
      0.1873113696D+02  0.3349460434D-01
      0.2825394365D+01  0.2347269535D+00
      0.6401216923D+00  0.8137573261D+00
 Atom H19      Shell    56 S   1     bf  155 -   155         10.759686580552          4.555208219233          3.040159239448
      0.1612777588D+00  0.1000000000D+01
 Atom C20      Shell    57 S   6     bf  156 -   156          7.456276188677          4.778415205631          0.586506400808
      0.3047524880D+04  0.1834737132D-02
      0.4573695180D+03  0.1403732281D-01
      0.1039486850D+03  0.6884262226D-01
      0.2921015530D+02  0.2321844432D+00
      0.9286662960D+01  0.4679413484D+00
      0.3163926960D+01  0.3623119853D+00
 Atom C20      Shell    58 SP   3    bf  157 -   160          7.456276188677          4.778415205631          0.586506400808
      0.7868272350D+01 -0.1193324198D+00  0.6899906659D-01
      0.1881288540D+01 -0.1608541517D+00  0.3164239610D+00
      0.5442492580D+00  0.1143456438D+01  0.7443082909D+00
 Atom C20      Shell    59 SP   1    bf  161 -   164          7.456276188677          4.778415205631          0.586506400808
      0.1687144782D+00  0.1000000000D+01  0.1000000000D+01
 Atom C20      Shell    60 D   1     bf  165 -   170          7.456276188677          4.778415205631          0.586506400808
      0.8000000000D+00  0.1000000000D+01
 Atom H21      Shell    61 S   3     bf  171 -   171          7.178634866233          4.699426788667         -1.477311602446
      0.1873113696D+02  0.3349460434D-01
      0.2825394365D+01  0.2347269535D+00
      0.6401216923D+00  0.8137573261D+00
 Atom H21      Shell    62 S   1     bf  172 -   172          7.178634866233          4.699426788667         -1.477311602446
      0.1612777588D+00  0.1000000000D+01
 Atom C22      Shell    63 S   6     bf  173 -   173          6.328393051778          7.318976303458          1.485388008479
      0.3047524880D+04  0.1834737132D-02
      0.4573695180D+03  0.1403732281D-01
      0.1039486850D+03  0.6884262226D-01
      0.2921015530D+02  0.2321844432D+00
      0.9286662960D+01  0.4679413484D+00
      0.3163926960D+01  0.3623119853D+00
 Atom C22      Shell    64 SP   3    bf  174 -   177          6.328393051778          7.318976303458          1.485388008479
      0.7868272350D+01 -0.1193324198D+00  0.6899906659D-01
      0.1881288540D+01 -0.1608541517D+00  0.3164239610D+00
      0.5442492580D+00  0.1143456438D+01  0.7443082909D+00
 Atom C22      Shell    65 SP   1    bf  178 -   181          6.328393051778          7.318976303458          1.485388008479
      0.1687144782D+00  0.1000000000D+01  0.1000000000D+01
 Atom C22      Shell    66 D   1     bf  182 -   187          6.328393051778          7.318976303458          1.485388008479
      0.8000000000D+00  0.1000000000D+01
 Atom H23      Shell    67 S   3     bf  188 -   188          6.354576057725          7.402798243027          3.553537320722
      0.1873113696D+02  0.3349460434D-01
      0.2825394365D+01  0.2347269535D+00
      0.6401216923D+00  0.8137573261D+00
 Atom H23      Shell    68 S   1     bf  189 -   189          6.354576057725          7.402798243027          3.553537320722
      0.1612777588D+00  0.1000000000D+01
 Atom H24      Shell    69 S   3     bf  190 -   190          4.335589066871          7.427172629888          0.935186440320
      0.1873113696D+02  0.3349460434D-01
      0.2825394365D+01  0.2347269535D+00
      0.6401216923D+00  0.8137573261D+00
 Atom H24      Shell    70 S   1     bf  191 -   191          4.335589066871          7.427172629888          0.935186440320
      0.1612777588D+00  0.1000000000D+01
 Atom C25      Shell    71 S   6     bf  192 -   192          7.696818199810          9.666512289200          0.437128142038
      0.3047524880D+04  0.1834737132D-02
      0.4573695180D+03  0.1403732281D-01
      0.1039486850D+03  0.6884262226D-01
      0.2921015530D+02  0.2321844432D+00
      0.9286662960D+01  0.4679413484D+00
      0.3163926960D+01  0.3623119853D+00
 Atom C25      Shell    72 SP   3    bf  193 -   196          7.696818199810          9.666512289200          0.437128142038
      0.7868272350D+01 -0.1193324198D+00  0.6899906659D-01
      0.1881288540D+01 -0.1608541517D+00  0.3164239610D+00
      0.5442492580D+00  0.1143456438D+01  0.7443082909D+00
 Atom C25      Shell    73 SP   1    bf  197 -   200          7.696818199810          9.666512289200          0.437128142038
      0.1687144782D+00  0.1000000000D+01  0.1000000000D+01
 Atom C25      Shell    74 D   1     bf  201 -   206          7.696818199810          9.666512289200          0.437128142038
      0.8000000000D+00  0.1000000000D+01
 Atom H26      Shell    75 S   3     bf  207 -   207          7.431620572773          9.756493299771         -1.622091477233
      0.1873113696D+02  0.3349460434D-01
      0.2825394365D+01  0.2347269535D+00
      0.6401216923D+00  0.8137573261D+00
 Atom H26      Shell    76 S   1     bf  208 -   208          7.431620572773          9.756493299771         -1.622091477233
      0.1612777588D+00  0.1000000000D+01
 Atom H27      Shell    77 S   3     bf  209 -   209          6.793581132451         11.355106309304          1.219637239706
      0.1873113696D+02  0.3349460434D-01
      0.2825394365D+01  0.2347269535D+00
      0.6401216923D+00  0.8137573261D+00
 Atom H27      Shell    78 S   1     bf  210 -   210          6.793581132451         11.355106309304          1.219637239706
      0.1612777588D+00  0.1000000000D+01
 Atom C28      Shell    79 S   6     bf  211 -   211         10.551874248096          9.607138322427          1.009151190436
      0.3047524880D+04  0.1834737132D-02
      0.4573695180D+03  0.1403732281D-01
      0.1039486850D+03  0.6884262226D-01
      0.2921015530D+02  0.2321844432D+00
      0.9286662960D+01  0.4679413484D+00
      0.3163926960D+01  0.3623119853D+00
 Atom C28      Shell    80 SP   3    bf  212 -   215         10.551874248096          9.607138322427          1.009151190436
      0.7868272350D+01 -0.1193324198D+00  0.6899906659D-01
      0.1881288540D+01 -0.1608541517D+00  0.3164239610D+00
      0.5442492580D+00  0.1143456438D+01  0.7443082909D+00
 Atom C28      Shell    81 SP   1    bf  216 -   219         10.551874248096          9.607138322427          1.009151190436
      0.1687144782D+00  0.1000000000D+01  0.1000000000D+01
 Atom C28      Shell    82 D   1     bf  220 -   225         10.551874248096          9.607138322427          1.009151190436
      0.8000000000D+00  0.1000000000D+01
 Atom C29      Shell    83 S   6     bf  226 -   226         11.583286336788          7.080548820278         -0.087543490627
      0.3047524880D+04  0.1834737132D-02
      0.4573695180D+03  0.1403732281D-01
      0.1039486850D+03  0.6884262226D-01
      0.2921015530D+02  0.2321844432D+00
      0.9286662960D+01  0.4679413484D+00
      0.3163926960D+01  0.3623119853D+00
 Atom C29      Shell    84 SP   3    bf  227 -   230         11.583286336788          7.080548820278         -0.087543490627
      0.7868272350D+01 -0.1193324198D+00  0.6899906659D-01
      0.1881288540D+01 -0.1608541517D+00  0.3164239610D+00
      0.5442492580D+00  0.1143456438D+01  0.7443082909D+00
 Atom C29      Shell    85 SP   1    bf  231 -   234         11.583286336788          7.080548820278         -0.087543490627
      0.1687144782D+00  0.1000000000D+01  0.1000000000D+01
 Atom C29      Shell    86 D   1     bf  235 -   240         11.583286336788          7.080548820278         -0.087543490627
      0.8000000000D+00  0.1000000000D+01
 Atom H30      Shell    87 S   3     bf  241 -   241         11.046558893902          7.110601116072         -2.104165054589
      0.1873113696D+02  0.3349460434D-01
      0.2825394365D+01  0.2347269535D+00
      0.6401216923D+00  0.8137573261D+00
 Atom H30      Shell    88 S   1     bf  242 -   242         11.046558893902          7.110601116072         -2.104165054589
      0.1612777588D+00  0.1000000000D+01
 Atom C31      Shell    89 S   6     bf  243 -   243         14.472114417788          7.390617295142          0.000000000000
      0.3047524880D+04  0.1834737132D-02
      0.4573695180D+03  0.1403732281D-01
      0.1039486850D+03  0.6884262226D-01
      0.2921015530D+02  0.2321844432D+00
      0.9286662960D+01  0.4679413484D+00
      0.3163926960D+01  0.3623119853D+00
 Atom C31      Shell    90 SP   3    bf  244 -   247         14.472114417788          7.390617295142          0.000000000000
      0.7868272350D+01 -0.1193324198D+00  0.6899906659D-01
      0.1881288540D+01 -0.1608541517D+00  0.3164239610D+00
      0.5442492580D+00  0.1143456438D+01  0.7443082909D+00
 Atom C31      Shell    91 SP   1    bf  248 -   251         14.472114417788          7.390617295142          0.000000000000
      0.1687144782D+00  0.1000000000D+01  0.1000000000D+01
 Atom C31      Shell    92 D   1     bf  252 -   257         14.472114417788          7.390617295142          0.000000000000
      0.8000000000D+00  0.1000000000D+01
 Atom H32      Shell    93 S   3     bf  258 -   258         15.436253503368          6.183003759210         -1.370674035514
      0.1873113696D+02  0.3349460434D-01
      0.2825394365D+01  0.2347269535D+00
      0.6401216923D+00  0.8137573261D+00
 Atom H32      Shell    94 S   1     bf  259 -   259         15.436253503368          6.183003759210         -1.370674035514
      0.1612777588D+00  0.1000000000D+01
 Atom H33      Shell    95 S   3     bf  260 -   260         15.209544930035          6.854682611266          1.857024459951
      0.1873113696D+02  0.3349460434D-01
      0.2825394365D+01  0.2347269535D+00
      0.6401216923D+00  0.8137573261D+00
 Atom H33      Shell    96 S   1     bf  261 -   261         15.209544930035          6.854682611266          1.857024459951
      0.1612777588D+00  0.1000000000D+01
 Atom C34      Shell    97 S   6     bf  262 -   262         14.882908432479         10.247916145991         -0.531512384574
      0.3047524880D+04  0.1834737132D-02
      0.4573695180D+03  0.1403732281D-01
      0.1039486850D+03  0.6884262226D-01
      0.2921015530D+02  0.2321844432D+00
      0.9286662960D+01  0.4679413484D+00
      0.3163926960D+01  0.3623119853D+00
 Atom C34      Shell    98 SP   3    bf  263 -   266         14.882908432479         10.247916145991         -0.531512384574
      0.7868272350D+01 -0.1193324198D+00  0.6899906659D-01
      0.1881288540D+01 -0.1608541517D+00  0.3164239610D+00
      0.5442492580D+00  0.1143456438D+01  0.7443082909D+00
 Atom C34      Shell    99 SP   1    bf  267 -   270         14.882908432479         10.247916145991         -0.531512384574
      0.1687144782D+00  0.1000000000D+01  0.1000000000D+01
 Atom C34      Shell   100 D   1     bf  271 -   276         14.882908432479         10.247916145991         -0.531512384574
      0.8000000000D+00  0.1000000000D+01
 Atom H35      Shell   101 S   3     bf  277 -   277         16.110720665231         11.088587158988          0.910333480317
      0.1873113696D+02  0.3349460434D-01
      0.2825394365D+01  0.2347269535D+00
      0.6401216923D+00  0.8137573261D+00
 Atom H35      Shell   102 S   1     bf  278 -   278         16.110720665231         11.088587158988          0.910333480317
      0.1612777588D+00  0.1000000000D+01
 Atom H36      Shell   103 S   3     bf  279 -   279         15.827068766465         10.557309308324         -2.346308249572
      0.1873113696D+02  0.3349460434D-01
      0.2825394365D+01  0.2347269535D+00
      0.6401216923D+00  0.8137573261D+00
 Atom H36      Shell   104 S   1     bf  280 -   280         15.827068766465         10.557309308324         -2.346308249572
      0.1612777588D+00  0.1000000000D+01
 Atom C37      Shell   105 S   6     bf  281 -   281         12.224645288932         11.536989898464         -0.493218293916
      0.3047524880D+04  0.1834737132D-02
      0.4573695180D+03  0.1403732281D-01
      0.1039486850D+03  0.6884262226D-01
      0.2921015530D+02  0.2321844432D+00
      0.9286662960D+01  0.4679413484D+00
      0.3163926960D+01  0.3623119853D+00
 Atom C37      Shell   106 SP   3    bf  282 -   285         12.224645288932         11.536989898464         -0.493218293916
      0.7868272350D+01 -0.1193324198D+00  0.6899906659D-01
      0.1881288540D+01 -0.1608541517D+00  0.3164239610D+00
      0.5442492580D+00  0.1143456438D+01  0.7443082909D+00
 Atom C37      Shell   107 SP   1    bf  286 -   289         12.224645288932         11.536989898464         -0.493218293916
      0.1687144782D+00  0.1000000000D+01  0.1000000000D+01
 Atom C37      Shell   108 D   1     bf  290 -   295         12.224645288932         11.536989898464         -0.493218293916
      0.8000000000D+00  0.1000000000D+01
 Atom H38      Shell   109 S   3     bf  296 -   296         11.477920272084         11.531108787279         -2.433576085847
      0.1873113696D+02  0.3349460434D-01
      0.2825394365D+01  0.2347269535D+00
      0.6401216923D+00  0.8137573261D+00
 Atom H38      Shell   110 S   1     bf  297 -   297         11.477920272084         11.531108787279         -2.433576085847
      0.1612777588D+00  0.1000000000D+01
 Atom C39      Shell   111 S   6     bf  298 -   298         11.033881212605          9.857821208702          3.879041248714
      0.3047524880D+04  0.1834737132D-02
      0.4573695180D+03  0.1403732281D-01
      0.1039486850D+03  0.6884262226D-01
[...]
 **** Fit      -0.000481
 **** Fit      -0.000587
 **** Fit      -0.000709
 **** Fit      -0.000812
 **** Fit      -0.000900
 **** Fit      -0.001033
 **** Fit      -0.001283
 **** Fit      -0.001649
 **** Fit      -0.002033
 **** Fit      -0.002333
 **** Fit      -0.002506
 **** Fit      -0.002572
 **** Fit      -0.002568
 **** Fit      -0.000588
 **** Fit      -0.000556
 **** Fit      -0.000476
 **** Fit      -0.000363
 **** Fit      -0.000255
 **** Fit      -0.000203
 **** Fit      -0.000251
 **** Fit      -0.000411
 **** Fit      -0.000654
 **** Fit      -0.000938
 **** Fit      -0.001230
 **** Fit      -0.001515
 **** Fit      -0.001800
 **** Fit      -0.002089
 **** Fit      -0.002362
 **** Fit      -0.002574
 **** Fit      -0.002692
 **** Fit      -0.002717
 **** Fit      -0.002676
 **** Fit      -0.002596
 **** Fit      -0.000374
 **** Fit      -0.000311
 **** Fit      -0.000206
 **** Fit      -0.000077
 **** Fit       0.000035
 **** Fit       0.000068
 **** Fit      -0.000029
 **** Fit      -0.000266
 **** Fit      -0.000605
 **** Fit      -0.000996
 **** Fit      -0.001397
 **** Fit      -0.001785
 **** Fit      -0.002140
 **** Fit      -0.002437
 **** Fit      -0.002651
 **** Fit      -0.002765
 **** Fit      -0.002782
 **** Fit      -0.002726
 **** Fit      -0.002625
 **** Fit      -0.000206
 **** Fit      -0.000122
 **** Fit      -0.000001
 **** Fit       0.000136
 **** Fit       0.000245
 **** Fit       0.000264
 **** Fit       0.000143
 **** Fit      -0.000128
 **** Fit      -0.000508
 **** Fit      -0.000939
 **** Fit      -0.001376
 **** Fit      -0.001787
 **** Fit      -0.002145
 **** Fit      -0.002423
 **** Fit      -0.002599
 **** Fit      -0.002668
 **** Fit      -0.002647
 **** Fit      -0.002565
 **** Fit      -0.000001
 **** Fit       0.000119
 **** Fit       0.000246
 **** Fit       0.000340
 **** Fit       0.000344
 **** Fit       0.000215
 **** Fit      -0.000052
 **** Fit      -0.000421
 **** Fit      -0.000835
 **** Fit      -0.001249
 **** Fit      -0.001631
 **** Fit      -0.001955
 **** Fit      -0.002198
 **** Fit      -0.002344
 **** Fit      -0.002396
 **** Fit      -0.002372
 **** Fit       0.000056
 **** Fit       0.000160
 **** Fit       0.000263
 **** Fit       0.000330
 **** Fit       0.000318
 **** Fit       0.000194
 **** Fit      -0.000044
 **** Fit      -0.000366
 **** Fit      -0.000726
 **** Fit      -0.001084
 **** Fit      -0.001411
 **** Fit      -0.001883
 **** Fit      -0.002004
 **** Fit      -0.002050
 **** Fit       0.000143
 **** Fit       0.000216
 **** Fit       0.000256
 **** Fit       0.000231
 **** Fit       0.000120
 **** Fit      -0.000077
 **** Fit      -0.000339
 **** Fit      -0.000631
 **** Fit      -0.000920
 **** Fit       0.000138
 **** Fit       0.000155
 **** Fit       0.000124
 **** Fit       0.000029
 **** Fit      -0.000126
 **** Fit      -0.000328
 **** Fit      -0.000552
 **** Fit       0.000022
 **** Fit      -0.000055
 **** Fit      -0.000173
 **** Fit      -0.005523
 **** Fit      -0.005463
 **** Fit      -0.005326
 **** Fit      -0.004892
 **** Fit      -0.004910
 **** Fit      -0.004826
 **** Fit      -0.004676
 **** Fit      -0.004497
 **** Fit      -0.004308
 **** Fit      -0.004307
 **** Fit      -0.004215
 **** Fit      -0.004067
 **** Fit      -0.003902
 **** Fit      -0.000357
 **** Fit      -0.000251
 **** Fit      -0.000208
 **** Fit      -0.003731
 **** Fit      -0.003727
 **** Fit      -0.003644
 **** Fit      -0.003515
 **** Fit      -0.003375
 **** Fit      -0.000543
 **** Fit      -0.000315
 **** Fit      -0.000102
 **** Fit       0.000056
 **** Fit       0.000128
 **** Fit       0.000107
 **** Fit       0.000007
 **** Fit      -0.003188
 **** Fit      -0.003130
 **** Fit      -0.003034
 **** Fit      -0.000699
 **** Fit      -0.000436
 **** Fit      -0.000134
 **** Fit       0.000153
 **** Fit       0.000369
 **** Fit       0.000471
 **** Fit       0.000453
 **** Fit       0.000338
 **** Fit       0.000164
 **** Fit      -0.000909
 **** Fit      -0.000685
 **** Fit      -0.000369
 **** Fit       0.000003
 **** Fit       0.000365
 **** Fit       0.000639
 **** Fit       0.000773
 **** Fit       0.000759
 **** Fit       0.000633
 **** Fit       0.000446
 **** Fit       0.000238
 **** Fit      -0.000195
 **** Fit      -0.000430
 **** Fit      -0.000955
 **** Fit      -0.000718
 **** Fit      -0.000370
 **** Fit       0.000054
 **** Fit       0.000475
 **** Fit       0.000801
 **** Fit       0.000967
 **** Fit       0.000966
 **** Fit       0.000845
 **** Fit       0.000666
 **** Fit       0.000475
 **** Fit       0.000286
 **** Fit       0.000090
 **** Fit      -0.000130
 **** Fit      -0.000383
 **** Fit      -0.000661
 **** Fit      -0.000947
 **** Fit      -0.001663
 **** Fit      -0.001825
 **** Fit      -0.001947
 **** Fit      -0.001023
 **** Fit      -0.000800
 **** Fit      -0.000451
 **** Fit      -0.000012
 **** Fit       0.000438
 **** Fit       0.000797
 **** Fit       0.000994
 **** Fit       0.001023
 **** Fit       0.000933
 **** Fit       0.000795
 **** Fit       0.000652
 **** Fit       0.000514
 **** Fit       0.000359
 **** Fit       0.000159
 **** Fit      -0.000097
 **** Fit      -0.000395
 **** Fit      -0.000703
 **** Fit      -0.000992
 **** Fit      -0.001242
 **** Fit      -0.001448
 **** Fit      -0.001616
 **** Fit      -0.001750
 **** Fit      -0.001852
 **** Fit      -0.001099
 **** Fit      -0.000912
 **** Fit      -0.000599
 **** Fit      -0.000188
 **** Fit       0.000248
 **** Fit       0.000614
 **** Fit       0.000837
 **** Fit       0.000910
 **** Fit       0.000881
 **** Fit       0.000815
 **** Fit       0.000752
 **** Fit       0.000692
 **** Fit       0.000595
 **** Fit       0.000418
 **** Fit       0.000147
 **** Fit      -0.000191
 **** Fit      -0.000544
 **** Fit      -0.000869
 **** Fit      -0.001141
 **** Fit      -0.001360
 **** Fit      -0.001534
 **** Fit      -0.001673
 **** Fit      -0.001781
 **** Fit      -0.001156
 **** Fit      -0.001021
 **** Fit      -0.000770
 **** Fit      -0.000422
 **** Fit      -0.000037
 **** Fit       0.000305
 **** Fit       0.000542
 **** Fit       0.000663
 **** Fit       0.000706
 **** Fit       0.000726
 **** Fit       0.000758
 **** Fit       0.000786
 **** Fit       0.000755
 **** Fit       0.000600
 **** Fit       0.000305
 **** Fit      -0.000085
 **** Fit      -0.000495
 **** Fit      -0.000864
 **** Fit      -0.001162
 **** Fit      -0.001392
 **** Fit      -0.001567
 **** Fit      -0.001700
 **** Fit      -0.001800
 **** Fit      -0.001169
 **** Fit      -0.001088
 **** Fit      -0.000906
 **** Fit      -0.000638
 **** Fit      -0.000325
 **** Fit      -0.000030
 **** Fit       0.000199
 **** Fit       0.000349
 **** Fit       0.000448
 **** Fit       0.000538
 **** Fit       0.000646
 **** Fit       0.000747
 **** Fit       0.000767
 **** Fit       0.000627
 **** Fit       0.000308
 **** Fit      -0.000128
 **** Fit      -0.000582
 **** Fit      -0.000979
 **** Fit      -0.001290
 **** Fit      -0.001518
 **** Fit      -0.001682
 **** Fit      -0.001798
 **** Fit      -0.001086
 **** Fit      -0.000966
 **** Fit      -0.000773
 **** Fit      -0.000538
 **** Fit      -0.000305
 **** Fit      -0.000108
 **** Fit       0.000039
 **** Fit       0.000154
 **** Fit       0.000267
 **** Fit       0.000400
 **** Fit       0.000524
 **** Fit       0.000559
 **** Fit       0.000421
 **** Fit       0.000091
 **** Fit      -0.000357
 **** Fit      -0.000814
 **** Fit      -0.001203
 **** Fit      -0.001496
 **** Fit      -0.001702
 **** Fit      -0.000935
 **** Fit      -0.000803
 **** Fit      -0.000638
 **** Fit      -0.000470
 **** Fit      -0.000326
 **** Fit      -0.000218
 **** Fit      -0.000136
 **** Fit      -0.000056
 **** Fit       0.000035
 **** Fit       0.000116
 **** Fit       0.000117
 **** Fit      -0.000035
 **** Fit      -0.000350
 **** Fit      -0.000760
 **** Fit      -0.001165
 **** Fit      -0.001498
 **** Fit      -0.001740
 **** Fit      -0.001898
 **** Fit      -0.000826
 **** Fit      -0.000735
 **** Fit      -0.000624
 **** Fit      -0.000518
 **** Fit      -0.000439
 **** Fit      -0.000396
 **** Fit      -0.000382
 **** Fit      -0.000381
 **** Fit      -0.000382
 **** Fit      -0.000396
 **** Fit      -0.000468
 **** Fit      -0.000643
 **** Fit      -0.000923
 **** Fit      -0.001254
 **** Fit      -0.001564
 **** Fit      -0.001806
 **** Fit      -0.001970
 **** Fit      -0.002067
 **** Fit      -0.000664
 **** Fit      -0.000595
 **** Fit      -0.000521
 **** Fit      -0.000467
 **** Fit      -0.000451
 **** Fit      -0.000481
 **** Fit      -0.000552
 **** Fit      -0.000648
 **** Fit      -0.000758
 **** Fit      -0.000882
 **** Fit      -0.001035
 **** Fit      -0.001234
 **** Fit      -0.001471
 **** Fit      -0.001712
 **** Fit      -0.001916
 **** Fit      -0.002059
 **** Fit      -0.002142
 **** Fit      -0.000480
 **** Fit      -0.000419
 **** Fit      -0.000366
 **** Fit      -0.000348
 **** Fit      -0.000385
 **** Fit      -0.000482
 **** Fit      -0.000632
 **** Fit      -0.000816
 **** Fit      -0.001020
 **** Fit      -0.001233
 **** Fit      -0.001449
 **** Fit      -0.001663
 **** Fit      -0.001863
 **** Fit      -0.002029
 **** Fit      -0.002145
 **** Fit      -0.002206
 **** Fit      -0.002222
 **** Fit      -0.000305
 **** Fit      -0.000243
 **** Fit      -0.000201
 **** Fit      -0.000207
 **** Fit      -0.000280
 **** Fit      -0.000427
 **** Fit      -0.000634
 **** Fit      -0.000881
 **** Fit      -0.001145
 **** Fit      -0.001410
 **** Fit      -0.001659
 **** Fit      -0.001876
 **** Fit      -0.002047
 **** Fit      -0.002162
 **** Fit      -0.002220
 **** Fit      -0.002229
 **** Fit      -0.000162
 **** Fit      -0.000101
 **** Fit      -0.000066
 **** Fit      -0.000086
 **** Fit      -0.000181
 **** Fit      -0.000354
 **** Fit      -0.000591
 **** Fit      -0.000866
 **** Fit      -0.001154
 **** Fit      -0.001435
 **** Fit      -0.001687
 **** Fit      -0.001894
 **** Fit      -0.002042
 **** Fit      -0.002128
 **** Fit      -0.002156
 **** Fit      -0.000067
 **** Fit      -0.000011
 **** Fit       0.000015
 **** Fit      -0.000014
 **** Fit      -0.000116
 **** Fit      -0.000294
 **** Fit      -0.000532
 **** Fit      -0.000805
 **** Fit      -0.001087
 **** Fit      -0.001590
 **** Fit      -0.001777
 **** Fit       0.000025
 **** Fit       0.000041
 **** Fit       0.000006
 **** Fit      -0.000094
 **** Fit      -0.000261
 **** Fit      -0.000480
 **** Fit      -0.000728
 **** Fit       0.000024
 **** Fit      -0.000014
 **** Fit      -0.000106
 **** Fit      -0.000252
 **** Fit      -0.000440
 **** Fit      -0.000338
 **** Fit      -0.000160
 **** Fit      -0.000026
 **** Fit       0.000040
 **** Fit       0.000030
 **** Fit      -0.000475
 **** Fit      -0.000245
 **** Fit      -0.000026
 **** Fit       0.000144
 **** Fit       0.000235
 **** Fit       0.000239
 **** Fit       0.000169
 **** Fit      -0.000685
 **** Fit      -0.000464
 **** Fit      -0.000208
 **** Fit       0.000042
 **** Fit       0.000242
 **** Fit       0.000357
 **** Fit       0.000379
 **** Fit       0.000324
 **** Fit       0.000218
 **** Fit      -0.000722
 **** Fit      -0.000502
 **** Fit      -0.000238
 **** Fit       0.000027
 **** Fit       0.000245
 **** Fit       0.000382
 **** Fit       0.000427
 **** Fit       0.000398
 **** Fit       0.000321
 **** Fit       0.000217
 **** Fit       0.000095
 **** Fit      -0.000052
 **** Fit      -0.000234
 **** Fit      -0.000451
 **** Fit      -0.000695
 **** Fit      -0.000779
 **** Fit      -0.000578
 **** Fit      -0.000328
 **** Fit      -0.000069
 **** Fit       0.000154
 **** Fit       0.000306
 **** Fit       0.000377
 **** Fit       0.000382
 **** Fit       0.000346
 **** Fit       0.000286
 **** Fit       0.000205
 **** Fit       0.000089
 **** Fit      -0.000077
 **** Fit      -0.000295
 **** Fit      -0.000551
 **** Fit      -0.000820
 **** Fit      -0.000837
 **** Fit      -0.000668
 **** Fit      -0.000450
 **** Fit      -0.000215
 **** Fit      -0.000004
 **** Fit       0.000154
 **** Fit       0.000246
 **** Fit       0.000286
 **** Fit       0.000292
 **** Fit       0.000278
 **** Fit       0.000239
 **** Fit       0.000154
 **** Fit       0.000003
 **** Fit      -0.000219
 **** Fit      -0.000491
 **** Fit      -0.000778
 **** Fit      -0.001048
 **** Fit      -0.000742
 **** Fit      -0.000566
 **** Fit      -0.000369
 **** Fit      -0.000183
 **** Fit      -0.000034
 **** Fit       0.000068
 **** Fit       0.000130
 **** Fit       0.000167
 **** Fit       0.000186
 **** Fit       0.000178
 **** Fit       0.000115
 **** Fit      -0.000026
 **** Fit      -0.000251
 **** Fit      -0.000533
 **** Fit      -0.000830
 **** Fit      -0.001105
 **** Fit      -0.000644
 **** Fit      -0.000490
 **** Fit      -0.000340
 **** Fit      -0.000213
 **** Fit      -0.000121
 **** Fit      -0.000058
 **** Fit      -0.000015
 **** Fit       0.000012
 **** Fit       0.000011
 **** Fit      -0.000046
 **** Fit      -0.000185
 **** Fit      -0.000407
 **** Fit      -0.000685
 **** Fit      -0.000974
 **** Fit      -0.001237
 **** Fit      -0.001452
 **** Fit      -0.000444
 **** Fit      -0.000353
 **** Fit      -0.000249
 **** Fit      -0.000229
 **** Fit      -0.000224
 **** Fit      -0.000247
 **** Fit      -0.000319
 **** Fit      -0.000461
 **** Fit      -0.000674
 **** Fit      -0.000929
 **** Fit      -0.001187
 **** Fit      -0.001416
 **** Fit      -0.001597
 **** Fit      -0.000418
 **** Fit      -0.000442
 **** Fit      -0.000484
 **** Fit      -0.000550
 **** Fit      -0.000652
 **** Fit      -0.000803
 **** Fit      -0.000999
 **** Fit      -0.001217
 **** Fit      -0.001427
 **** Fit      -0.001604
 **** Fit      -0.000505
 **** Fit      -0.000472
 **** Fit      -0.000465
 **** Fit      -0.000489
 **** Fit      -0.000543
 **** Fit      -0.000622
 **** Fit      -0.000719
 **** Fit      -0.000835
 **** Fit      -0.000972
 **** Fit      -0.001132
 **** Fit      -0.001308
 **** Fit      -0.001484
 **** Fit      -0.001640
 **** Fit      -0.001763
 **** Fit      -0.000420
 **** Fit      -0.000415
 **** Fit      -0.000444
 **** Fit      -0.000512
 **** Fit      -0.000614
 **** Fit      -0.000743
 **** Fit      -0.000891
 **** Fit      -0.001051
 **** Fit      -0.001217
 **** Fit      -0.001382
 **** Fit      -0.001539
 **** Fit      -0.001677
 **** Fit      -0.001785
 **** Fit      -0.000323
 **** Fit      -0.000339
 **** Fit      -0.000395
 **** Fit      -0.000495
 **** Fit      -0.000633
 **** Fit      -0.000984
 **** Fit      -0.001172
 **** Fit      -0.001353
 **** Fit      -0.001519
 **** Fit      -0.001659
 **** Fit      -0.001767
 **** Fit      -0.000236
 **** Fit      -0.000265
 **** Fit      -0.000338
 **** Fit      -0.000458
 **** Fit      -0.000617
 **** Fit      -0.000210
 **** Fit      -0.000291
 **** Fit      -0.000417
 **** Fit      -0.000227
 **** Fit      -0.000093
 **** Fit      -0.000006
 **** Fit      -0.000269
 **** Fit      -0.000131
 **** Fit      -0.000034
 **** Fit      -0.000273
 **** Fit      -0.000422
 **** Fit      -0.000210
 **** Fit      -0.000074
 **** Fit      -0.000137
 **** Fit      -0.000235
 **** Fit      -0.000373
 **** Fit      -0.000551
 **** Fit      -0.000756
 **** Fit      -0.000134
 **** Fit      -0.000182
 **** Fit      -0.000268
 **** Fit      -0.000399
 **** Fit      -0.000573
 **** Fit      -0.000777
 **** Fit      -0.000248
 **** Fit      -0.000292
 **** Fit      -0.000375
 **** Fit      -0.000501
 **** Fit      -0.000670
 **** Fit      -0.000867
 **** Fit      -0.001071
 **** Fit      -0.000398
 **** Fit      -0.000453
 **** Fit      -0.000541
 **** Fit      -0.000667
 **** Fit      -0.000828
 **** Fit      -0.001010
 **** Fit      -0.001195
 **** Fit      -0.000561
 **** Fit      -0.000637
 **** Fit      -0.000738
 **** Fit      -0.000866
 **** Fit      -0.001017
 **** Fit      -0.001178
 **** Fit      -0.000710
 **** Fit      -0.000811
 **** Fit      -0.000928
 **** Fit      -0.001059
 **** Fit      -0.001198
 **** Fit      -0.001336
 **** Fit      -0.001076
 **** Fit      -0.001208
 -----------------------------------------------------------------
 Leave Link  602 at Fri Apr 28 13:32:29 2017, MaxMem=   33554432 cpu:      96.0
 (Enter /scratch/michal/g09/l9999.exe)

 Test job not archived.
 1\1\GINC-RZEPICHA\SP\RHF\6-31G(d)\C27H46O3\MICHAL\28-Apr-2017\0\\#P HF
 /6-31G* SCF(Conver=6) NoSymm Test Pop=chelpg IOp(6/33=2) GFInput GFPri
 nt\\MEP - Input generated by R.E.D.-III.x MOLECULE\\0,1\C,0,1.75874404
 ,-1.24809134,-0.07163289\H,0,1.87187181,-1.1253127,-1.15573069\C,0,3.1
 5093321,-1.30968036,0.57276183\H,0,3.72781202,-2.12864459,0.13159455\H
 ,0,3.01285279,-1.55757251,1.63779328\C,0,3.91420474,-0.00439883,0.4536
 2373\C,0,3.19056935,1.27737746,0.8811428\C,0,1.74820359,1.25385486,0.2
 8539365\H,0,1.81832684,1.44683282,-0.79415244\H,0,1.16628368,2.0783442
 5,0.71013397\C,0,0.97869413,-0.06020461,0.48946779\H,0,0.78592038,-0.2
 3150843,1.55901009\H,0,0.,0.,0.\C,0,5.17489156,0.,0.\H,0,5.63518382,-0
 .93622995,-0.31765063\C,0,6.05887195,1.20743,-0.10802893\H,0,6.2877191
 ,1.39892966,-1.16910804\C,0,5.48278632,2.47762758,0.53592047\H,0,5.693
 78091,2.41051237,1.60878298\C,0,3.94569142,2.52862842,0.31036582\H,0,3
 .79876996,2.48682955,-0.78175963\C,0,3.34884137,3.87303545,0.78603348\
 H,0,3.36269682,3.91739211,1.88045096\H,0,2.29429492,3.93029048,0.49487
 935\C,0,4.07298077,5.11529799,0.23131825\H,0,3.93264423,5.16291389,-0.
 85837384\H,0,3.5950083,6.00886346,0.64540423\C,0,5.58381136,5.08387864
 ,0.53401981\C,0,6.12961113,3.74686506,-0.04632602\H,0,5.8455872,3.7627
 6805,-1.11347619\C,0,7.65831311,3.91094623,0.\H,0,8.16851354,3.2719046
 7,-0.72532946\H,0,8.04854453,3.62734181,0.98269502\C,0,7.87569594,5.42
 296366,-0.28126424\H,0,8.52542619,5.8678276,0.48172773\H,0,8.37532407,
 5.58668747,-1.24161285\C,0,6.46900367,6.10511211,-0.26099988\H,0,6.073
 85381,6.10199996,-1.287793\C,0,5.83887846,5.21653431,2.05270022\H,0,5.
 39921736,4.39425359,2.62270318\H,0,6.90687775,5.23449887,2.28836725\H,
 0,5.40296942,6.1450554,2.43663911\C,0,6.53319833,7.58185021,0.2025601\
 H,0,6.936797,7.58560378,1.2256311\C,0,5.1614498,8.28107121,0.25089119\
 H,0,4.61227907,8.17150634,-0.69098567\H,0,5.28550765,9.35416759,0.4392
 1482\H,0,4.52773062,7.88421965,1.0480845\C,0,3.11554033,1.30523626,2.4
 3104283\H,0,2.48308444,2.12569758,2.78378709\H,0,2.6914124,0.37878477,
 2.82785317\H,0,4.10974638,1.42025639,2.87225082\O,0,7.3944088,0.897134
 74,0.36445722\O,0,7.34533218,0.63505514,1.79810931\H,0,7.39139955,-0.3
 3501211,1.81066309\O,0,1.05451868,-2.48476427,0.06849518\H,0,0.8905831
 9,-2.64343814,1.00878596\C,0,7.53476559,8.41687476,-0.63986303\H,0,7.5
 936459,9.41749754,-0.18789715\H,0,8.53944864,7.98729341,-0.54138125\C,
 0,7.2127143,8.57695845,-2.13521155\H,0,7.18102336,7.590275,-2.61325972
 \H,0,6.21230769,9.01071874,-2.25271587\C,0,8.24554942,9.46231839,-2.85
 205282\H,0,9.24386865,9.0240694,-2.70819815\H,0,8.27220356,10.44281741
 ,-2.35475143\C,0,8.03049026,9.69221089,-4.36622415\H,0,8.85690965,10.3
 4091923,-4.69262004\C,0,8.12802623,8.39315049,-5.18331942\H,0,7.297503
 57,7.71277198,-4.9622777\H,0,8.09830585,8.60549846,-6.25818224\H,0,9.0
 6256772,7.85930239,-4.97421246\C,0,6.72230047,10.44024431,-4.67249306\
 H,0,5.84276486,9.83183013,-4.43212535\H,0,6.66013939,10.69784295,-5.73
 601755\H,0,6.65147389,11.37178619,-4.09861269\\Version=EM64L-G09RevC.0
 1\HF=-1273.6830919\RMSD=5.218e-07\Dipole=-0.5322779,0.0477312,0.426102
 4\Quadrupole=-10.4804525,3.5630234,6.9174291,-6.6021749,-1.9635184,-4.
 7256026\PG=C01 [X(C27H46O3)]\\@


 SLITHERY-DITHERY
 FRIEDRICH A. KEKULE
 DREAMT ON A BUS OF THINGS
 FREUD WOULD THINK KEEN.
 MOST OF THE TIME THEY WERE
 HERPETOLOGICAL
 BITING THEIR TAILS IN THE
 SHAPE OF BENZENE.
 Job cpu time:  0 days  0 hours 43 minutes  1.6 seconds.
 File lengths (MBytes):  RWF=    159 Int=      0 D2E=      0 Chk=     11 Scr=      1
 Normal termination of Gaussian 09 at Fri Apr 28 13:32:30 2017.
