 Entering Gaussian System, Link 0=/scratch/michal/g09//g09
 Input=JOB2-gau_m1-20-1.com
 Output=JOB2-gau_m1-20-1.log
 Initial command:
 /scratch/michal/g09/l1.exe /scratch/michal/gauss_scratch/Gau-19792.inp -scrdir=/scratch/michal/gauss_scratch/
 Entering Link 1 = /scratch/michal/g09/l1.exe PID=     19794.
  
 Copyright (c) 1988,1990,1992,1993,1995,1998,2003,2009,2011,
            Gaussian, Inc.  All Rights Reserved.
  
 This is part of the Gaussian(R) 09 program.  It is based on
 the Gaussian(R) 03 system (copyright 2003, Gaussian, Inc.),
 the Gaussian(R) 98 system (copyright 1998, Gaussian, Inc.),
 the Gaussian(R) 94 system (copyright 1995, Gaussian, Inc.),
 the Gaussian 92(TM) system (copyright 1992, Gaussian, Inc.),
 the Gaussian 90(TM) system (copyright 1990, Gaussian, Inc.),
 the Gaussian 88(TM) system (copyright 1988, Gaussian, Inc.),
 the Gaussian 86(TM) system (copyright 1986, Carnegie Mellon
 University), and the Gaussian 82(TM) system (copyright 1983,
 Carnegie Mellon University). Gaussian is a federally registered
 trademark of Gaussian, Inc.
  
 This software contains proprietary and confidential information,
 including trade secrets, belonging to Gaussian, Inc.
  
 This software is provided under written license and may be
 used, copied, transmitted, or stored only in accord with that
 written license.
  
 The following legend is applicable only to US Government
 contracts under FAR:
  
                    RESTRICTED RIGHTS LEGEND
  
 Use, reproduction and disclosure by the US Government is
 subject to restrictions as set forth in subparagraphs (a)
 and (c) of the Commercial Computer Software - Restricted
 Rights clause in FAR 52.227-19.
  
 Gaussian, Inc.
 340 Quinnipiac St., Bldg. 40, Wallingford CT 06492
  
  
 ---------------------------------------------------------------
 Warning -- This program may not be used in any manner that
 competes with the business of Gaussian, Inc. or will provide
 assistance to any competitor of Gaussian, Inc.  The licensee
 of this program is prohibited from giving any competitor of
 Gaussian, Inc. access to this program.  By using this program,
 the user acknowledges that Gaussian, Inc. is engaged in the
 business of creating and licensing software in the field of
 computational chemistry and represents and warrants to the
 licensee that it is not a competitor of Gaussian, Inc. and that
 it will not use this program in any manner prohibited above.
 ---------------------------------------------------------------
  

 Cite this work as:
 Gaussian 09, Revision C.01,
 M. J. Frisch, G. W. Trucks, H. B. Schlegel, G. E. Scuseria, 
 M. A. Robb, J. R. Cheeseman, G. Scalmani, V. Barone, B. Mennucci, 
 G. A. Petersson, H. Nakatsuji, M. Caricato, X. Li, H. P. Hratchian, 
 A. F. Izmaylov, J. Bloino, G. Zheng, J. L. Sonnenberg, M. Hada, 
 M. Ehara, K. Toyota, R. Fukuda, J. Hasegawa, M. Ishida, T. Nakajima, 
 Y. Honda, O. Kitao, H. Nakai, T. Vreven, J. A. Montgomery, Jr., 
 J. E. Peralta, F. Ogliaro, M. Bearpark, J. J. Heyd, E. Brothers, 
 K. N. Kudin, V. N. Staroverov, T. Keith, R. Kobayashi, J. Normand, 
 K. Raghavachari, A. Rendell, J. C. Burant, S. S. Iyengar, J. Tomasi, 
 M. Cossi, N. Rega, J. M. Millam, M. Klene, J. E. Knox, J. B. Cross, 
 V. Bakken, C. Adamo, J. Jaramillo, R. Gomperts, R. E. Stratmann, 
 O. Yazyev, A. J. Austin, R. Cammi, C. Pomelli, J. W. Ochterski, 
 R. L. Martin, K. Morokuma, V. G. Zakrzewski, G. A. Voth, 
 P. Salvador, J. J. Dannenberg, S. Dapprich, A. D. Daniels, 
 O. Farkas, J. B. Foresman, J. V. Ortiz, J. Cioslowski, 
 and D. J. Fox, Gaussian, Inc., Wallingford CT, 2010.
 
 ******************************************
 Gaussian 09:  EM64L-G09RevC.01 23-Sep-2011
                28-Apr-2017 
 ******************************************
 %Mem=256MB
 %NProc=48
 Will use up to   48 processors via shared memory.
 ----------------------------------------------------------------------
 #P HF/6-31G* SCF(Conver=6) NoSymm Test Pop=chelpg IOp(6/33=2) GFInput 
 GFPrint
 ----------------------------------------------------------------------
 1/38=1/1;
 2/12=2,15=1,17=6,18=5,40=1/2;
 3/5=1,6=6,7=1,11=9,16=1,24=110,25=1,30=1/1,2,3;
 4//1;
 5/5=2,6=6,38=5/2;
 6/7=2,8=2,9=2,10=2,15=8,20=3,28=1,33=2/1,2;
 99/5=1,9=1/99;
 Leave Link    1 at Fri Apr 28 13:42:04 2017, MaxMem=   33554432 cpu:       5.1
 (Enter /scratch/michal/g09/l101.exe)
 ----------------------------------------------
 MEP - Input generated by R.E.D.-III.x MOLECULE
 ----------------------------------------------
 Charge =  0 Multiplicity = 1
 Symbolic Z-Matrix:
 C                     1.75965  -1.24724  -0.07472 
 H                     1.87348  -1.11839  -1.15808 
 C                     3.15108  -1.31242   0.56995 
 H                     3.72967  -2.12716   0.12407 
 H                     3.01405  -1.56794   1.63345 
 C                     3.91299  -0.00536   0.45575 
 C                     3.18728   1.26948   0.89734 
 C                     1.74653   1.25349   0.29787 
 H                     1.82028   1.45313  -0.78028 
 H                     1.16276   2.075     0.72647 
 C                     0.97755  -0.06253   0.49152 
 H                     0.78169  -0.24039   1.55934 
 H                     0.        0.        0. 
 C                     5.17257   0.        0. 
 H                     5.63859  -0.93301  -0.30895 
 C                     6.05814   1.20735  -0.09384 
 H                     6.31278   1.40879  -1.146 
 C                     5.4813    2.47305   0.56136 
 H                     5.69833   2.40153   1.63531 
 C                     3.94252   2.52693   0.34546 
 H                     3.79323   2.50473  -0.74639 
 C                     3.35475   3.86504   0.84932 
 H                     3.38483   3.89266   1.94394 
 H                     2.29602   3.92539   0.57509 
 C                     4.06962   5.11573   0.30226 
 H                     3.91351   5.17912  -0.78439 
 H                     3.59793   6.00311   0.73615 
 C                     5.58497   5.08163   0.58245 
 C                     6.12015   3.74906  -0.01755 
 H                     5.81759   3.7732   -1.07854 
 C                     7.64907   3.91293   0. 
 H                     8.14032   3.28512  -0.74999 
 H                     8.06064   3.61759   0.9703 
 C                     7.86357   5.42761  -0.26946 
 H                     8.52525   5.86343   0.48832 
 H                     8.34812   5.6015   -1.23564 
 C                     6.45752   6.10895  -0.21947 
 H                     6.04518   6.11267  -1.23925 
 C                     5.86315   5.20189   2.09799 
 H                     5.42634   4.37831   2.66835 
 H                     6.93462   5.21318   2.31884 
 H                     5.4379    6.12968   2.495 
 C                     6.52961   7.58172   0.25535 
 H                     6.94591   7.57576   1.27327 
 C                     5.15887   8.28078   0.32687 
 H                     4.60061   8.18383  -0.61099 
 H                     5.28566   9.35108   0.52833 
 H                     4.53276   7.8742    1.12503 
 C                     3.10687   1.28062   2.44737 
 H                     2.4671    2.09207   2.80816 
 H                     2.69008   0.34643   2.83273 
 H                     4.09847   1.39745   2.89458 
 O                     7.30353   0.95874   0.60625 
 O                     8.03647  -0.06181  -0.13637 
 H                     8.80058   0.45801  -0.43549 
 O                     1.05266  -2.48361   0.05769 
 H                     0.92145  -2.6658    0.99885 
 C                     7.52118   8.4268   -0.59073 
 H                     7.59087   9.41415  -0.11575 
 H                     8.52572   7.99072  -0.51816 
 C                     7.1711    8.60466  -2.07773 
 H                     7.06341   7.61894  -2.54796 
 H                     6.19353   9.09153  -2.1788 
 C                     8.22709   9.38845  -2.88063 
 H                     7.94926   9.36145  -3.94484 
 H                     9.18689   8.85691  -2.8054 
 C                     8.45516   10.86271  -2.48347 
 H                     8.74694   10.8945  -1.42406 
 C                     9.61631   11.45634  -3.29734 
 H                     9.38256   11.45599  -4.36984 
 H                     9.82053   12.49203  -3.00265 
 H                     10.53803   10.87983  -3.15778 
 C                     7.18882   11.71762  -2.64998 
 H                     6.8425    11.70122  -3.69169 
 H                     7.38402   12.76222  -2.382 
 H                     6.36568   11.36497  -2.02019 
 
 NAtoms=     76 NQM=        0 NQMF=       0 NMMI=     76 NMMIF=      0
                NMic=       0 NMicF=      0.
                    Isotopes and Nuclear Properties:
 (Nuclear quadrupole moments (NQMom) in fm**2, nuclear magnetic moments (NMagM)
  in nuclear magnetons)

  Atom         1           2           3           4           5           6           7           8           9          10
 IAtWgt=          12           1          12           1           1          12          12          12           1           1
 AtmWgt=  12.0000000   1.0078250  12.0000000   1.0078250   1.0078250  12.0000000  12.0000000  12.0000000   1.0078250   1.0078250
 NucSpn=           0           1           0           1           1           0           0           0           1           1
 AtZEff=   0.0000000   0.0000000   0.0000000   0.0000000   0.0000000   0.0000000   0.0000000   0.0000000   0.0000000   0.0000000
 NQMom=    0.0000000   0.0000000   0.0000000   0.0000000   0.0000000   0.0000000   0.0000000   0.0000000   0.0000000   0.0000000
 NMagM=    0.0000000   2.7928460   0.0000000   2.7928460   2.7928460   0.0000000   0.0000000   0.0000000   2.7928460   2.7928460

  Atom        11          12          13          14          15          16          17          18          19          20
 IAtWgt=          12           1           1          12           1          12           1          12           1          12
 AtmWgt=  12.0000000   1.0078250   1.0078250  12.0000000   1.0078250  12.0000000   1.0078250  12.0000000   1.0078250  12.0000000
 NucSpn=           0           1           1           0           1           0           1           0           1           0
 AtZEff=   0.0000000   0.0000000   0.0000000   0.0000000   0.0000000   0.0000000   0.0000000   0.0000000   0.0000000   0.0000000
 NQMom=    0.0000000   0.0000000   0.0000000   0.0000000   0.0000000   0.0000000   0.0000000   0.0000000   0.0000000   0.0000000
 NMagM=    0.0000000   2.7928460   2.7928460   0.0000000   2.7928460   0.0000000   2.7928460   0.0000000   2.7928460   0.0000000

  Atom        21          22          23          24          25          26          27          28          29          30
 IAtWgt=           1          12           1           1          12           1           1          12          12           1
 AtmWgt=   1.0078250  12.0000000   1.0078250   1.0078250  12.0000000   1.0078250   1.0078250  12.0000000  12.0000000   1.0078250
 NucSpn=           1           0           1           1           0           1           1           0           0           1
 AtZEff=   0.0000000   0.0000000   0.0000000   0.0000000   0.0000000   0.0000000   0.0000000   0.0000000   0.0000000   0.0000000
 NQMom=    0.0000000   0.0000000   0.0000000   0.0000000   0.0000000   0.0000000   0.0000000   0.0000000   0.0000000   0.0000000
 NMagM=    2.7928460   0.0000000   2.7928460   2.7928460   0.0000000   2.7928460   2.7928460   0.0000000   0.0000000   2.7928460

  Atom        31          32          33          34          35          36          37          38          39          40
 IAtWgt=          12           1           1          12           1           1          12           1          12           1
 AtmWgt=  12.0000000   1.0078250   1.0078250  12.0000000   1.0078250   1.0078250  12.0000000   1.0078250  12.0000000   1.0078250
 NucSpn=           0           1           1           0           1           1           0           1           0           1
 AtZEff=   0.0000000   0.0000000   0.0000000   0.0000000   0.0000000   0.0000000   0.0000000   0.0000000   0.0000000   0.0000000
 NQMom=    0.0000000   0.0000000   0.0000000   0.0000000   0.0000000   0.0000000   0.0000000   0.0000000   0.0000000   0.0000000
 NMagM=    0.0000000   2.7928460   2.7928460   0.0000000   2.7928460   2.7928460   0.0000000   2.7928460   0.0000000   2.7928460

  Atom        41          42          43          44          45          46          47          48          49          50
 IAtWgt=           1           1          12           1          12           1           1           1          12           1
 AtmWgt=   1.0078250   1.0078250  12.0000000   1.0078250  12.0000000   1.0078250   1.0078250   1.0078250  12.0000000   1.0078250
 NucSpn=           1           1           0           1           0           1           1           1           0           1
 AtZEff=   0.0000000   0.0000000   0.0000000   0.0000000   0.0000000   0.0000000   0.0000000   0.0000000   0.0000000   0.0000000
 NQMom=    0.0000000   0.0000000   0.0000000   0.0000000   0.0000000   0.0000000   0.0000000   0.0000000   0.0000000   0.0000000
 NMagM=    2.7928460   2.7928460   0.0000000   2.7928460   0.0000000   2.7928460   2.7928460   2.7928460   0.0000000   2.7928460

  Atom        51          52          53          54          55          56          57          58          59          60
 IAtWgt=           1           1          16          16           1          16           1          12           1           1
 AtmWgt=   1.0078250   1.0078250  15.9949146  15.9949146   1.0078250  15.9949146   1.0078250  12.0000000   1.0078250   1.0078250
 NucSpn=           1           1           0           0           1           0           1           0           1           1
 AtZEff=   0.0000000   0.0000000   0.0000000   0.0000000   0.0000000   0.0000000   0.0000000   0.0000000   0.0000000   0.0000000
 NQMom=    0.0000000   0.0000000   0.0000000   0.0000000   0.0000000   0.0000000   0.0000000   0.0000000   0.0000000   0.0000000
 NMagM=    2.7928460   2.7928460   0.0000000   0.0000000   2.7928460   0.0000000   2.7928460   0.0000000   2.7928460   2.7928460

  Atom        61          62          63          64          65          66          67          68          69          70
 IAtWgt=          12           1           1          12           1           1          12           1          12           1
 AtmWgt=  12.0000000   1.0078250   1.0078250  12.0000000   1.0078250   1.0078250  12.0000000   1.0078250  12.0000000   1.0078250
 NucSpn=           0           1           1           0           1           1           0           1           0           1
 AtZEff=   0.0000000   0.0000000   0.0000000   0.0000000   0.0000000   0.0000000   0.0000000   0.0000000   0.0000000   0.0000000
 NQMom=    0.0000000   0.0000000   0.0000000   0.0000000   0.0000000   0.0000000   0.0000000   0.0000000   0.0000000   0.0000000
 NMagM=    0.0000000   2.7928460   2.7928460   0.0000000   2.7928460   2.7928460   0.0000000   2.7928460   0.0000000   2.7928460

  Atom        71          72          73          74          75          76
 IAtWgt=           1           1          12           1           1           1
 AtmWgt=   1.0078250   1.0078250  12.0000000   1.0078250   1.0078250   1.0078250
 NucSpn=           1           1           0           1           1           1
 AtZEff=   0.0000000   0.0000000   0.0000000   0.0000000   0.0000000   0.0000000
 NQMom=    0.0000000   0.0000000   0.0000000   0.0000000   0.0000000   0.0000000
 NMagM=    2.7928460   2.7928460   0.0000000   2.7928460   2.7928460   2.7928460
 Leave Link  101 at Fri Apr 28 13:42:04 2017, MaxMem=   33554432 cpu:      13.9
 (Enter /scratch/michal/g09/l202.exe)
 Symmetry turned off by external request.
 Stoichiometry    C27H46O3
 Framework group  C1[X(C27H46O3)]
 Deg. of freedom   222
 Full point group                 C1      NOp   1
                          Input orientation:                          
 ---------------------------------------------------------------------
 Center     Atomic      Atomic             Coordinates (Angstroms)
 Number     Number       Type             X           Y           Z
 ---------------------------------------------------------------------
      1          6           0        1.759654   -1.247243   -0.074724
      2          1           0        1.873484   -1.118391   -1.158084
      3          6           0        3.151077   -1.312422    0.569952
      4          1           0        3.729665   -2.127165    0.124065
      5          1           0        3.014049   -1.567938    1.633447
      6          6           0        3.912991   -0.005362    0.455749
      7          6           0        3.187276    1.269481    0.897339
      8          6           0        1.746533    1.253491    0.297871
      9          1           0        1.820281    1.453127   -0.780281
     10          1           0        1.162758    2.074997    0.726465
     11          6           0        0.977548   -0.062530    0.491524
     12          1           0        0.781685   -0.240391    1.559340
     13          1           0        0.000000    0.000000    0.000000
     14          6           0        5.172568    0.000000    0.000000
     15          1           0        5.638589   -0.933010   -0.308952
     16          6           0        6.058145    1.207348   -0.093835
     17          1           0        6.312778    1.408790   -1.146003
     18          6           0        5.481296    2.473050    0.561359
     19          1           0        5.698326    2.401534    1.635306
     20          6           0        3.942519    2.526934    0.345464
     21          1           0        3.793230    2.504734   -0.746394
     22          6           0        3.354750    3.865044    0.849321
     23          1           0        3.384834    3.892659    1.943937
     24          1           0        2.296022    3.925387    0.575086
     25          6           0        4.069622    5.115727    0.302257
     26          1           0        3.913506    5.179123   -0.784388
     27          1           0        3.597929    6.003115    0.736152
     28          6           0        5.584968    5.081625    0.582445
     29          6           0        6.120148    3.749063   -0.017555
     30          1           0        5.817590    3.773201   -1.078545
     31          6           0        7.649070    3.912931    0.000000
     32          1           0        8.140315    3.285124   -0.749994
     33          1           0        8.060638    3.617586    0.970302
     34          6           0        7.863571    5.427607   -0.269465
     35          1           0        8.525254    5.863430    0.488317
     36          1           0        8.348122    5.601501   -1.235640
     37          6           0        6.457519    6.108953   -0.219468
     38          1           0        6.045177    6.112675   -1.239249
     39          6           0        5.863151    5.201887    2.097985
     40          1           0        5.426338    4.378307    2.668345
     41          1           0        6.934622    5.213184    2.318838
     42          1           0        5.437900    6.129685    2.495000
     43          6           0        6.529609    7.581717    0.255354
     44          1           0        6.945906    7.575760    1.273273
     45          6           0        5.158871    8.280777    0.326874
     46          1           0        4.600606    8.183826   -0.610992
     47          1           0        5.285663    9.351077    0.528332
     48          1           0        4.532761    7.874195    1.125027
     49          6           0        3.106866    1.280617    2.447374
     50          1           0        2.467099    2.092072    2.808164
     51          1           0        2.690081    0.346431    2.832730
     52          1           0        4.098474    1.397448    2.894579
     53          8           0        7.303529    0.958738    0.606250
     54          8           0        8.036473   -0.061810   -0.136371
     55          1           0        8.800577    0.458014   -0.435487
     56          8           0        1.052659   -2.483607    0.057692
     57          1           0        0.921448   -2.665797    0.998849
     58          6           0        7.521182    8.426800   -0.590731
     59          1           0        7.590866    9.414149   -0.115751
     60          1           0        8.525719    7.990718   -0.518160
     61          6           0        7.171098    8.604655   -2.077727
     62          1           0        7.063406    7.618941   -2.547955
     63          1           0        6.193530    9.091534   -2.178799
     64          6           0        8.227086    9.388455   -2.880628
     65          1           0        7.949260    9.361449   -3.944841
     66          1           0        9.186891    8.856912   -2.805400
     67          6           0        8.455161   10.862707   -2.483467
     68          1           0        8.746941   10.894505   -1.424056
     69          6           0        9.616309   11.456344   -3.297336
     70          1           0        9.382563   11.455994   -4.369838
     71          1           0        9.820528   12.492035   -3.002655
     72          1           0       10.538032   10.879835   -3.157780
     73          6           0        7.188815   11.717616   -2.649982
     74          1           0        6.842496   11.701219   -3.691685
     75          1           0        7.384018   12.762217   -2.382001
     76          1           0        6.365684   11.364965   -2.020192
 ---------------------------------------------------------------------
 Rotational constants (GHZ):      0.3363531      0.0559060      0.0520814
 Leave Link  202 at Fri Apr 28 13:42:05 2017, MaxMem=   33554432 cpu:       0.1
 (Enter /scratch/michal/g09/l301.exe)
 Standard basis: 6-31G(d) (6D, 7F)
 Ernie: Thresh=  0.10000D-02 Tol=  0.10000D-05 Strict=F.
 AO basis set in the form of general basis input (Overlap normalization):
      1 0
 S   6 1.00       0.000000000000
      0.3047524880D+04  0.1834737132D-02
      0.4573695180D+03  0.1403732281D-01
      0.1039486850D+03  0.6884262226D-01
      0.2921015530D+02  0.2321844432D+00
      0.9286662960D+01  0.4679413484D+00
      0.3163926960D+01  0.3623119853D+00
 SP   3 1.00       0.000000000000
      0.7868272350D+01 -0.1193324198D+00  0.6899906659D-01
      0.1881288540D+01 -0.1608541517D+00  0.3164239610D+00
      0.5442492580D+00  0.1143456438D+01  0.7443082909D+00
 SP   1 1.00       0.000000000000
      0.1687144782D+00  0.1000000000D+01  0.1000000000D+01
 D   1 1.00       0.000000000000
      0.8000000000D+00  0.1000000000D+01
 ****
      2 0
 S   3 1.00       0.000000000000
      0.1873113696D+02  0.3349460434D-01
      0.2825394365D+01  0.2347269535D+00
      0.6401216923D+00  0.8137573261D+00
 S   1 1.00       0.000000000000
      0.1612777588D+00  0.1000000000D+01
 ****
      3 0
 S   6 1.00       0.000000000000
      0.3047524880D+04  0.1834737132D-02
      0.4573695180D+03  0.1403732281D-01
      0.1039486850D+03  0.6884262226D-01
      0.2921015530D+02  0.2321844432D+00
      0.9286662960D+01  0.4679413484D+00
      0.3163926960D+01  0.3623119853D+00
 SP   3 1.00       0.000000000000
      0.7868272350D+01 -0.1193324198D+00  0.6899906659D-01
      0.1881288540D+01 -0.1608541517D+00  0.3164239610D+00
      0.5442492580D+00  0.1143456438D+01  0.7443082909D+00
 SP   1 1.00       0.000000000000
      0.1687144782D+00  0.1000000000D+01  0.1000000000D+01
 D   1 1.00       0.000000000000
      0.8000000000D+00  0.1000000000D+01
 ****
      4 0
 S   3 1.00       0.000000000000
      0.1873113696D+02  0.3349460434D-01
      0.2825394365D+01  0.2347269535D+00
      0.6401216923D+00  0.8137573261D+00
 S   1 1.00       0.000000000000
      0.1612777588D+00  0.1000000000D+01
 ****
      5 0
 S   3 1.00       0.000000000000
      0.1873113696D+02  0.3349460434D-01
      0.2825394365D+01  0.2347269535D+00
      0.6401216923D+00  0.8137573261D+00
 S   1 1.00       0.000000000000
      0.1612777588D+00  0.1000000000D+01
 ****
      6 0
 S   6 1.00       0.000000000000
      0.3047524880D+04  0.1834737132D-02
      0.4573695180D+03  0.1403732281D-01
      0.1039486850D+03  0.6884262226D-01
      0.2921015530D+02  0.2321844432D+00
      0.9286662960D+01  0.4679413484D+00
      0.3163926960D+01  0.3623119853D+00
 SP   3 1.00       0.000000000000
      0.7868272350D+01 -0.1193324198D+00  0.6899906659D-01
      0.1881288540D+01 -0.1608541517D+00  0.3164239610D+00
      0.5442492580D+00  0.1143456438D+01  0.7443082909D+00
 SP   1 1.00       0.000000000000
      0.1687144782D+00  0.1000000000D+01  0.1000000000D+01
 D   1 1.00       0.000000000000
      0.8000000000D+00  0.1000000000D+01
 ****
      7 0
 S   6 1.00       0.000000000000
      0.3047524880D+04  0.1834737132D-02
      0.4573695180D+03  0.1403732281D-01
      0.1039486850D+03  0.6884262226D-01
      0.2921015530D+02  0.2321844432D+00
      0.9286662960D+01  0.4679413484D+00
      0.3163926960D+01  0.3623119853D+00
 SP   3 1.00       0.000000000000
      0.7868272350D+01 -0.1193324198D+00  0.6899906659D-01
      0.1881288540D+01 -0.1608541517D+00  0.3164239610D+00
      0.5442492580D+00  0.1143456438D+01  0.7443082909D+00
 SP   1 1.00       0.000000000000
      0.1687144782D+00  0.1000000000D+01  0.1000000000D+01
 D   1 1.00       0.000000000000
      0.8000000000D+00  0.1000000000D+01
 ****
      8 0
 S   6 1.00       0.000000000000
      0.3047524880D+04  0.1834737132D-02
      0.4573695180D+03  0.1403732281D-01
      0.1039486850D+03  0.6884262226D-01
      0.2921015530D+02  0.2321844432D+00
      0.9286662960D+01  0.4679413484D+00
      0.3163926960D+01  0.3623119853D+00
 SP   3 1.00       0.000000000000
      0.7868272350D+01 -0.1193324198D+00  0.6899906659D-01
      0.1881288540D+01 -0.1608541517D+00  0.3164239610D+00
      0.5442492580D+00  0.1143456438D+01  0.7443082909D+00
 SP   1 1.00       0.000000000000
      0.1687144782D+00  0.1000000000D+01  0.1000000000D+01
 D   1 1.00       0.000000000000
      0.8000000000D+00  0.1000000000D+01
 ****
      9 0
 S   3 1.00       0.000000000000
      0.1873113696D+02  0.3349460434D-01
      0.2825394365D+01  0.2347269535D+00
      0.6401216923D+00  0.8137573261D+00
 S   1 1.00       0.000000000000
      0.1612777588D+00  0.1000000000D+01
 ****
     10 0
 S   3 1.00       0.000000000000
      0.1873113696D+02  0.3349460434D-01
      0.2825394365D+01  0.2347269535D+00
      0.6401216923D+00  0.8137573261D+00
 S   1 1.00       0.000000000000
      0.1612777588D+00  0.1000000000D+01
 ****
     11 0
 S   6 1.00       0.000000000000
      0.3047524880D+04  0.1834737132D-02
      0.4573695180D+03  0.1403732281D-01
      0.1039486850D+03  0.6884262226D-01
      0.2921015530D+02  0.2321844432D+00
      0.9286662960D+01  0.4679413484D+00
      0.3163926960D+01  0.3623119853D+00
 SP   3 1.00       0.000000000000
      0.7868272350D+01 -0.1193324198D+00  0.6899906659D-01
      0.1881288540D+01 -0.1608541517D+00  0.3164239610D+00
      0.5442492580D+00  0.1143456438D+01  0.7443082909D+00
 SP   1 1.00       0.000000000000
      0.1687144782D+00  0.1000000000D+01  0.1000000000D+01
 D   1 1.00       0.000000000000
      0.8000000000D+00  0.1000000000D+01
 ****
     12 0
 S   3 1.00       0.000000000000
      0.1873113696D+02  0.3349460434D-01
      0.2825394365D+01  0.2347269535D+00
      0.6401216923D+00  0.8137573261D+00
 S   1 1.00       0.000000000000
      0.1612777588D+00  0.1000000000D+01
 ****
     13 0
 S   3 1.00       0.000000000000
      0.1873113696D+02  0.3349460434D-01
      0.2825394365D+01  0.2347269535D+00
      0.6401216923D+00  0.8137573261D+00
 S   1 1.00       0.000000000000
      0.1612777588D+00  0.1000000000D+01
 ****
     14 0
 S   6 1.00       0.000000000000
      0.3047524880D+04  0.1834737132D-02
      0.4573695180D+03  0.1403732281D-01
      0.1039486850D+03  0.6884262226D-01
      0.2921015530D+02  0.2321844432D+00
      0.9286662960D+01  0.4679413484D+00
      0.3163926960D+01  0.3623119853D+00
 SP   3 1.00       0.000000000000
      0.7868272350D+01 -0.1193324198D+00  0.6899906659D-01
      0.1881288540D+01 -0.1608541517D+00  0.3164239610D+00
      0.5442492580D+00  0.1143456438D+01  0.7443082909D+00
 SP   1 1.00       0.000000000000
      0.1687144782D+00  0.1000000000D+01  0.1000000000D+01
 D   1 1.00       0.000000000000
      0.8000000000D+00  0.1000000000D+01
 ****
     15 0
 S   3 1.00       0.000000000000
      0.1873113696D+02  0.3349460434D-01
      0.2825394365D+01  0.2347269535D+00
      0.6401216923D+00  0.8137573261D+00
 S   1 1.00       0.000000000000
      0.1612777588D+00  0.1000000000D+01
 ****
     16 0
 S   6 1.00       0.000000000000
      0.3047524880D+04  0.1834737132D-02
      0.4573695180D+03  0.1403732281D-01
      0.1039486850D+03  0.6884262226D-01
      0.2921015530D+02  0.2321844432D+00
      0.9286662960D+01  0.4679413484D+00
      0.3163926960D+01  0.3623119853D+00
 SP   3 1.00       0.000000000000
      0.7868272350D+01 -0.1193324198D+00  0.6899906659D-01
      0.1881288540D+01 -0.1608541517D+00  0.3164239610D+00
      0.5442492580D+00  0.1143456438D+01  0.7443082909D+00
 SP   1 1.00       0.000000000000
      0.1687144782D+00  0.1000000000D+01  0.1000000000D+01
 D   1 1.00       0.000000000000
      0.8000000000D+00  0.1000000000D+01
 ****
     17 0
 S   3 1.00       0.000000000000
      0.1873113696D+02  0.3349460434D-01
      0.2825394365D+01  0.2347269535D+00
      0.6401216923D+00  0.8137573261D+00
 S   1 1.00       0.000000000000
      0.1612777588D+00  0.1000000000D+01
 ****
     18 0
 S   6 1.00       0.000000000000
      0.3047524880D+04  0.1834737132D-02
      0.4573695180D+03  0.1403732281D-01
      0.1039486850D+03  0.6884262226D-01
      0.2921015530D+02  0.2321844432D+00
      0.9286662960D+01  0.4679413484D+00
      0.3163926960D+01  0.3623119853D+00
 SP   3 1.00       0.000000000000
      0.7868272350D+01 -0.1193324198D+00  0.6899906659D-01
      0.1881288540D+01 -0.1608541517D+00  0.3164239610D+00
      0.5442492580D+00  0.1143456438D+01  0.7443082909D+00
 SP   1 1.00       0.000000000000
      0.1687144782D+00  0.1000000000D+01  0.1000000000D+01
 D   1 1.00       0.000000000000
      0.8000000000D+00  0.1000000000D+01
 ****
     19 0
 S   3 1.00       0.000000000000
      0.1873113696D+02  0.3349460434D-01
      0.2825394365D+01  0.2347269535D+00
      0.6401216923D+00  0.8137573261D+00
 S   1 1.00       0.000000000000
      0.1612777588D+00  0.1000000000D+01
 ****
     20 0
 S   6 1.00       0.000000000000
      0.3047524880D+04  0.1834737132D-02
      0.4573695180D+03  0.1403732281D-01
      0.1039486850D+03  0.6884262226D-01
      0.2921015530D+02  0.2321844432D+00
      0.9286662960D+01  0.4679413484D+00
      0.3163926960D+01  0.3623119853D+00
 SP   3 1.00       0.000000000000
      0.7868272350D+01 -0.1193324198D+00  0.6899906659D-01
      0.1881288540D+01 -0.1608541517D+00  0.3164239610D+00
      0.5442492580D+00  0.1143456438D+01  0.7443082909D+00
 SP   1 1.00       0.000000000000
      0.1687144782D+00  0.1000000000D+01  0.1000000000D+01
 D   1 1.00       0.000000000000
      0.8000000000D+00  0.1000000000D+01
 ****
     21 0
 S   3 1.00       0.000000000000
      0.1873113696D+02  0.3349460434D-01
      0.2825394365D+01  0.2347269535D+00
      0.6401216923D+00  0.8137573261D+00
 S   1 1.00       0.000000000000
      0.1612777588D+00  0.1000000000D+01
 ****
     22 0
 S   6 1.00       0.000000000000
      0.3047524880D+04  0.1834737132D-02
      0.4573695180D+03  0.1403732281D-01
      0.1039486850D+03  0.6884262226D-01
      0.2921015530D+02  0.2321844432D+00
      0.9286662960D+01  0.4679413484D+00
      0.3163926960D+01  0.3623119853D+00
 SP   3 1.00       0.000000000000
      0.7868272350D+01 -0.1193324198D+00  0.6899906659D-01
      0.1881288540D+01 -0.1608541517D+00  0.3164239610D+00
      0.5442492580D+00  0.1143456438D+01  0.7443082909D+00
 SP   1 1.00       0.000000000000
      0.1687144782D+00  0.1000000000D+01  0.1000000000D+01
 D   1 1.00       0.000000000000
      0.8000000000D+00  0.1000000000D+01
 ****
     23 0
 S   3 1.00       0.000000000000
      0.1873113696D+02  0.3349460434D-01
      0.2825394365D+01  0.2347269535D+00
      0.6401216923D+00  0.8137573261D+00
 S   1 1.00       0.000000000000
      0.1612777588D+00  0.1000000000D+01
 ****
     24 0
 S   3 1.00       0.000000000000
      0.1873113696D+02  0.3349460434D-01
      0.2825394365D+01  0.2347269535D+00
      0.6401216923D+00  0.8137573261D+00
 S   1 1.00       0.000000000000
      0.1612777588D+00  0.1000000000D+01
 ****
     25 0
 S   6 1.00       0.000000000000
      0.3047524880D+04  0.1834737132D-02
      0.4573695180D+03  0.1403732281D-01
      0.1039486850D+03  0.6884262226D-01
      0.2921015530D+02  0.2321844432D+00
      0.9286662960D+01  0.4679413484D+00
      0.3163926960D+01  0.3623119853D+00
 SP   3 1.00       0.000000000000
      0.7868272350D+01 -0.1193324198D+00  0.6899906659D-01
      0.1881288540D+01 -0.1608541517D+00  0.3164239610D+00
      0.5442492580D+00  0.1143456438D+01  0.7443082909D+00
 SP   1 1.00       0.000000000000
      0.1687144782D+00  0.1000000000D+01  0.1000000000D+01
 D   1 1.00       0.000000000000
      0.8000000000D+00  0.1000000000D+01
 ****
     26 0
 S   3 1.00       0.000000000000
      0.1873113696D+02  0.3349460434D-01
      0.2825394365D+01  0.2347269535D+00
      0.6401216923D+00  0.8137573261D+00
 S   1 1.00       0.000000000000
      0.1612777588D+00  0.1000000000D+01
 ****
     27 0
 S   3 1.00       0.000000000000
      0.1873113696D+02  0.3349460434D-01
      0.2825394365D+01  0.2347269535D+00
      0.6401216923D+00  0.8137573261D+00
 S   1 1.00       0.000000000000
      0.1612777588D+00  0.1000000000D+01
 ****
     28 0
 S   6 1.00       0.000000000000
      0.3047524880D+04  0.1834737132D-02
      0.4573695180D+03  0.1403732281D-01
      0.1039486850D+03  0.6884262226D-01
      0.2921015530D+02  0.2321844432D+00
      0.9286662960D+01  0.4679413484D+00
      0.3163926960D+01  0.3623119853D+00
 SP   3 1.00       0.000000000000
      0.7868272350D+01 -0.1193324198D+00  0.6899906659D-01
      0.1881288540D+01 -0.1608541517D+00  0.3164239610D+00
      0.5442492580D+00  0.1143456438D+01  0.7443082909D+00
 SP   1 1.00       0.000000000000
      0.1687144782D+00  0.1000000000D+01  0.1000000000D+01
 D   1 1.00       0.000000000000
      0.8000000000D+00  0.1000000000D+01
 ****
     29 0
 S   6 1.00       0.000000000000
      0.3047524880D+04  0.1834737132D-02
      0.4573695180D+03  0.1403732281D-01
      0.1039486850D+03  0.6884262226D-01
      0.2921015530D+02  0.2321844432D+00
      0.9286662960D+01  0.4679413484D+00
      0.3163926960D+01  0.3623119853D+00
 SP   3 1.00       0.000000000000
      0.7868272350D+01 -0.1193324198D+00  0.6899906659D-01
      0.1881288540D+01 -0.1608541517D+00  0.3164239610D+00
      0.5442492580D+00  0.1143456438D+01  0.7443082909D+00
 SP   1 1.00       0.000000000000
      0.1687144782D+00  0.1000000000D+01  0.1000000000D+01
 D   1 1.00       0.000000000000
      0.8000000000D+00  0.1000000000D+01
 ****
     30 0
 S   3 1.00       0.000000000000
      0.1873113696D+02  0.3349460434D-01
      0.2825394365D+01  0.2347269535D+00
      0.6401216923D+00  0.8137573261D+00
 S   1 1.00       0.000000000000
      0.1612777588D+00  0.1000000000D+01
 ****
     31 0
 S   6 1.00       0.000000000000
      0.3047524880D+04  0.1834737132D-02
      0.4573695180D+03  0.1403732281D-01
      0.1039486850D+03  0.6884262226D-01
      0.2921015530D+02  0.2321844432D+00
      0.9286662960D+01  0.4679413484D+00
      0.3163926960D+01  0.3623119853D+00
 SP   3 1.00       0.000000000000
      0.7868272350D+01 -0.1193324198D+00  0.6899906659D-01
      0.1881288540D+01 -0.1608541517D+00  0.3164239610D+00
      0.5442492580D+00  0.1143456438D+01  0.7443082909D+00
 SP   1 1.00       0.000000000000
      0.1687144782D+00  0.1000000000D+01  0.1000000000D+01
 D   1 1.00       0.000000000000
      0.8000000000D+00  0.1000000000D+01
 ****
     32 0
 S   3 1.00       0.000000000000
      0.1873113696D+02  0.3349460434D-01
      0.2825394365D+01  0.2347269535D+00
      0.6401216923D+00  0.8137573261D+00
 S   1 1.00       0.000000000000
      0.1612777588D+00  0.1000000000D+01
 ****
     33 0
 S   3 1.00       0.000000000000
      0.1873113696D+02  0.3349460434D-01
      0.2825394365D+01  0.2347269535D+00
      0.6401216923D+00  0.8137573261D+00
 S   1 1.00       0.000000000000
      0.1612777588D+00  0.1000000000D+01
 ****
     34 0
 S   6 1.00       0.000000000000
      0.3047524880D+04  0.1834737132D-02
      0.4573695180D+03  0.1403732281D-01
      0.1039486850D+03  0.6884262226D-01
      0.2921015530D+02  0.2321844432D+00
      0.9286662960D+01  0.4679413484D+00
      0.3163926960D+01  0.3623119853D+00
 SP   3 1.00       0.000000000000
      0.7868272350D+01 -0.1193324198D+00  0.6899906659D-01
      0.1881288540D+01 -0.1608541517D+00  0.3164239610D+00
      0.5442492580D+00  0.1143456438D+01  0.7443082909D+00
 SP   1 1.00       0.000000000000
      0.1687144782D+00  0.1000000000D+01  0.1000000000D+01
 D   1 1.00       0.000000000000
      0.8000000000D+00  0.1000000000D+01
 ****
     35 0
 S   3 1.00       0.000000000000
      0.1873113696D+02  0.3349460434D-01
      0.2825394365D+01  0.2347269535D+00
      0.6401216923D+00  0.8137573261D+00
 S   1 1.00       0.000000000000
      0.1612777588D+00  0.1000000000D+01
 ****
     36 0
 S   3 1.00       0.000000000000
      0.1873113696D+02  0.3349460434D-01
      0.2825394365D+01  0.2347269535D+00
      0.6401216923D+00  0.8137573261D+00
 S   1 1.00       0.000000000000
      0.1612777588D+00  0.1000000000D+01
 ****
     37 0
 S   6 1.00       0.000000000000
      0.3047524880D+04  0.1834737132D-02
      0.4573695180D+03  0.1403732281D-01
      0.1039486850D+03  0.6884262226D-01
      0.2921015530D+02  0.2321844432D+00
      0.9286662960D+01  0.4679413484D+00
      0.3163926960D+01  0.3623119853D+00
 SP   3 1.00       0.000000000000
      0.7868272350D+01 -0.1193324198D+00  0.6899906659D-01
      0.1881288540D+01 -0.1608541517D+00  0.3164239610D+00
      0.5442492580D+00  0.1143456438D+01  0.7443082909D+00
 SP   1 1.00       0.000000000000
      0.1687144782D+00  0.1000000000D+01  0.1000000000D+01
 D   1 1.00       0.000000000000
      0.8000000000D+00  0.1000000000D+01
 ****
     38 0
 S   3 1.00       0.000000000000
      0.1873113696D+02  0.3349460434D-01
      0.2825394365D+01  0.2347269535D+00
      0.6401216923D+00  0.8137573261D+00
 S   1 1.00       0.000000000000
      0.1612777588D+00  0.1000000000D+01
 ****
     39 0
 S   6 1.00       0.000000000000
      0.3047524880D+04  0.1834737132D-02
      0.4573695180D+03  0.1403732281D-01
      0.1039486850D+03  0.6884262226D-01
      0.2921015530D+02  0.2321844432D+00
      0.9286662960D+01  0.4679413484D+00
      0.3163926960D+01  0.3623119853D+00
 SP   3 1.00       0.000000000000
      0.7868272350D+01 -0.1193324198D+00  0.6899906659D-01
      0.1881288540D+01 -0.1608541517D+00  0.3164239610D+00
      0.5442492580D+00  0.1143456438D+01  0.7443082909D+00
 SP   1 1.00       0.000000000000
      0.1687144782D+00  0.1000000000D+01  0.1000000000D+01
 D   1 1.00       0.000000000000
      0.8000000000D+00  0.1000000000D+01
 ****
     40 0
 S   3 1.00       0.000000000000
      0.1873113696D+02  0.3349460434D-01
      0.2825394365D+01  0.2347269535D+00
      0.6401216923D+00  0.8137573261D+00
 S   1 1.00       0.000000000000
      0.1612777588D+00  0.1000000000D+01
 ****
     41 0
 S   3 1.00       0.000000000000
      0.1873113696D+02  0.3349460434D-01
      0.2825394365D+01  0.2347269535D+00
      0.6401216923D+00  0.8137573261D+00
 S   1 1.00       0.000000000000
      0.1612777588D+00  0.1000000000D+01
 ****
     42 0
 S   3 1.00       0.000000000000
      0.1873113696D+02  0.3349460434D-01
      0.2825394365D+01  0.2347269535D+00
      0.6401216923D+00  0.8137573261D+00
 S   1 1.00       0.000000000000
      0.1612777588D+00  0.1000000000D+01
 ****
     43 0
 S   6 1.00       0.000000000000
      0.3047524880D+04  0.1834737132D-02
      0.4573695180D+03  0.1403732281D-01
      0.1039486850D+03  0.6884262226D-01
      0.2921015530D+02  0.2321844432D+00
      0.9286662960D+01  0.4679413484D+00
      0.3163926960D+01  0.3623119853D+00
 SP   3 1.00       0.000000000000
      0.7868272350D+01 -0.1193324198D+00  0.6899906659D-01
      0.1881288540D+01 -0.1608541517D+00  0.3164239610D+00
      0.5442492580D+00  0.1143456438D+01  0.7443082909D+00
 SP   1 1.00       0.000000000000
      0.1687144782D+00  0.1000000000D+01  0.1000000000D+01
 D   1 1.00       0.000000000000
      0.8000000000D+00  0.1000000000D+01
 ****
     44 0
 S   3 1.00       0.000000000000
      0.1873113696D+02  0.3349460434D-01
      0.2825394365D+01  0.2347269535D+00
      0.6401216923D+00  0.8137573261D+00
 S   1 1.00       0.000000000000
      0.1612777588D+00  0.1000000000D+01
 ****
     45 0
 S   6 1.00       0.000000000000
      0.3047524880D+04  0.1834737132D-02
      0.4573695180D+03  0.1403732281D-01
      0.1039486850D+03  0.6884262226D-01
      0.2921015530D+02  0.2321844432D+00
      0.9286662960D+01  0.4679413484D+00
      0.3163926960D+01  0.3623119853D+00
 SP   3 1.00       0.000000000000
      0.7868272350D+01 -0.1193324198D+00  0.6899906659D-01
      0.1881288540D+01 -0.1608541517D+00  0.3164239610D+00
      0.5442492580D+00  0.1143456438D+01  0.7443082909D+00
 SP   1 1.00       0.000000000000
      0.1687144782D+00  0.1000000000D+01  0.1000000000D+01
 D   1 1.00       0.000000000000
      0.8000000000D+00  0.1000000000D+01
 ****
     46 0
 S   3 1.00       0.000000000000
      0.1873113696D+02  0.3349460434D-01
      0.2825394365D+01  0.2347269535D+00
      0.6401216923D+00  0.8137573261D+00
 S   1 1.00       0.000000000000
      0.1612777588D+00  0.1000000000D+01
 ****
     47 0
 S   3 1.00       0.000000000000
      0.1873113696D+02  0.3349460434D-01
      0.2825394365D+01  0.2347269535D+00
      0.6401216923D+00  0.8137573261D+00
 S   1 1.00       0.000000000000
      0.1612777588D+00  0.1000000000D+01
 ****
     48 0
 S   3 1.00       0.000000000000
      0.1873113696D+02  0.3349460434D-01
      0.2825394365D+01  0.2347269535D+00
      0.6401216923D+00  0.8137573261D+00
 S   1 1.00       0.000000000000
      0.1612777588D+00  0.1000000000D+01
 ****
     49 0
 S   6 1.00       0.000000000000
      0.3047524880D+04  0.1834737132D-02
      0.4573695180D+03  0.1403732281D-01
      0.1039486850D+03  0.6884262226D-01
      0.2921015530D+02  0.2321844432D+00
      0.9286662960D+01  0.4679413484D+00
      0.3163926960D+01  0.3623119853D+00
 SP   3 1.00       0.000000000000
      0.7868272350D+01 -0.1193324198D+00  0.6899906659D-01
      0.1881288540D+01 -0.1608541517D+00  0.3164239610D+00
      0.5442492580D+00  0.1143456438D+01  0.7443082909D+00
 SP   1 1.00       0.000000000000
      0.1687144782D+00  0.1000000000D+01  0.1000000000D+01
 D   1 1.00       0.000000000000
      0.8000000000D+00  0.1000000000D+01
 ****
     50 0
 S   3 1.00       0.000000000000
      0.1873113696D+02  0.3349460434D-01
      0.2825394365D+01  0.2347269535D+00
      0.6401216923D+00  0.8137573261D+00
 S   1 1.00       0.000000000000
      0.1612777588D+00  0.1000000000D+01
 ****
     51 0
 S   3 1.00       0.000000000000
      0.1873113696D+02  0.3349460434D-01
      0.2825394365D+01  0.2347269535D+00
      0.6401216923D+00  0.8137573261D+00
 S   1 1.00       0.000000000000
      0.1612777588D+00  0.1000000000D+01
 ****
     52 0
 S   3 1.00       0.000000000000
      0.1873113696D+02  0.3349460434D-01
      0.2825394365D+01  0.2347269535D+00
      0.6401216923D+00  0.8137573261D+00
 S   1 1.00       0.000000000000
      0.1612777588D+00  0.1000000000D+01
 ****
     53 0
 S   6 1.00       0.000000000000
      0.5484671660D+04  0.1831074430D-02
      0.8252349460D+03  0.1395017220D-01
      0.1880469580D+03  0.6844507810D-01
      0.5296450000D+02  0.2327143360D+00
      0.1689757040D+02  0.4701928980D+00
      0.5799635340D+01  0.3585208530D+00
 SP   3 1.00       0.000000000000
      0.1553961625D+02 -0.1107775495D+00  0.7087426823D-01
      0.3599933586D+01 -0.1480262627D+00  0.3397528391D+00
      0.1013761750D+01  0.1130767015D+01  0.7271585773D+00
 SP   1 1.00       0.000000000000
      0.2700058226D+00  0.1000000000D+01  0.1000000000D+01
 D   1 1.00       0.000000000000
      0.8000000000D+00  0.1000000000D+01
 ****
     54 0
 S   6 1.00       0.000000000000
      0.5484671660D+04  0.1831074430D-02
      0.8252349460D+03  0.1395017220D-01
      0.1880469580D+03  0.6844507810D-01
      0.5296450000D+02  0.2327143360D+00
      0.1689757040D+02  0.4701928980D+00
      0.5799635340D+01  0.3585208530D+00
 SP   3 1.00       0.000000000000
      0.1553961625D+02 -0.1107775495D+00  0.7087426823D-01
      0.3599933586D+01 -0.1480262627D+00  0.3397528391D+00
      0.1013761750D+01  0.1130767015D+01  0.7271585773D+00
 SP   1 1.00       0.000000000000
      0.2700058226D+00  0.1000000000D+01  0.1000000000D+01
 D   1 1.00       0.000000000000
      0.8000000000D+00  0.1000000000D+01
 ****
     55 0
 S   3 1.00       0.000000000000
      0.1873113696D+02  0.3349460434D-01
      0.2825394365D+01  0.2347269535D+00
      0.6401216923D+00  0.8137573261D+00
 S   1 1.00       0.000000000000
      0.1612777588D+00  0.1000000000D+01
 ****
     56 0
 S   6 1.00       0.000000000000
      0.5484671660D+04  0.1831074430D-02
      0.8252349460D+03  0.1395017220D-01
      0.1880469580D+03  0.6844507810D-01
      0.5296450000D+02  0.2327143360D+00
      0.1689757040D+02  0.4701928980D+00
      0.5799635340D+01  0.3585208530D+00
 SP   3 1.00       0.000000000000
      0.1553961625D+02 -0.1107775495D+00  0.7087426823D-01
      0.3599933586D+01 -0.1480262627D+00  0.3397528391D+00
      0.1013761750D+01  0.1130767015D+01  0.7271585773D+00
 SP   1 1.00       0.000000000000
      0.2700058226D+00  0.1000000000D+01  0.1000000000D+01
 D   1 1.00       0.000000000000
      0.8000000000D+00  0.1000000000D+01
 ****
     57 0
 S   3 1.00       0.000000000000
      0.1873113696D+02  0.3349460434D-01
      0.2825394365D+01  0.2347269535D+00
      0.6401216923D+00  0.8137573261D+00
 S   1 1.00       0.000000000000
      0.1612777588D+00  0.1000000000D+01
 ****
     58 0
 S   6 1.00       0.000000000000
      0.3047524880D+04  0.1834737132D-02
      0.4573695180D+03  0.1403732281D-01
      0.1039486850D+03  0.6884262226D-01
      0.2921015530D+02  0.2321844432D+00
      0.9286662960D+01  0.4679413484D+00
      0.3163926960D+01  0.3623119853D+00
 SP   3 1.00       0.000000000000
      0.7868272350D+01 -0.1193324198D+00  0.6899906659D-01
      0.1881288540D+01 -0.1608541517D+00  0.3164239610D+00
      0.5442492580D+00  0.1143456438D+01  0.7443082909D+00
 SP   1 1.00       0.000000000000
      0.1687144782D+00  0.1000000000D+01  0.1000000000D+01
 D   1 1.00       0.000000000000
      0.8000000000D+00  0.1000000000D+01
 ****
     59 0
 S   3 1.00       0.000000000000
      0.1873113696D+02  0.3349460434D-01
      0.2825394365D+01  0.2347269535D+00
      0.6401216923D+00  0.8137573261D+00
 S   1 1.00       0.000000000000
      0.1612777588D+00  0.1000000000D+01
 ****
     60 0
 S   3 1.00       0.000000000000
      0.1873113696D+02  0.3349460434D-01
      0.2825394365D+01  0.2347269535D+00
      0.6401216923D+00  0.8137573261D+00
 S   1 1.00       0.000000000000
      0.1612777588D+00  0.1000000000D+01
 ****
     61 0
 S   6 1.00       0.000000000000
      0.3047524880D+04  0.1834737132D-02
      0.4573695180D+03  0.1403732281D-01
      0.1039486850D+03  0.6884262226D-01
      0.2921015530D+02  0.2321844432D+00
      0.9286662960D+01  0.4679413484D+00
      0.3163926960D+01  0.3623119853D+00
 SP   3 1.00       0.000000000000
      0.7868272350D+01 -0.1193324198D+00  0.6899906659D-01
      0.1881288540D+01 -0.1608541517D+00  0.3164239610D+00
      0.5442492580D+00  0.1143456438D+01  0.7443082909D+00
 SP   1 1.00       0.000000000000
      0.1687144782D+00  0.1000000000D+01  0.1000000000D+01
 D   1 1.00       0.000000000000
      0.8000000000D+00  0.1000000000D+01
 ****
     62 0
 S   3 1.00       0.000000000000
      0.1873113696D+02  0.3349460434D-01
      0.2825394365D+01  0.2347269535D+00
      0.6401216923D+00  0.8137573261D+00
 S   1 1.00       0.000000000000
      0.1612777588D+00  0.1000000000D+01
 ****
     63 0
 S   3 1.00       0.000000000000
      0.1873113696D+02  0.3349460434D-01
      0.2825394365D+01  0.2347269535D+00
      0.6401216923D+00  0.8137573261D+00
 S   1 1.00       0.000000000000
      0.1612777588D+00  0.1000000000D+01
 ****
     64 0
 S   6 1.00       0.000000000000
      0.3047524880D+04  0.1834737132D-02
      0.4573695180D+03  0.1403732281D-01
      0.1039486850D+03  0.6884262226D-01
      0.2921015530D+02  0.2321844432D+00
      0.9286662960D+01  0.4679413484D+00
      0.3163926960D+01  0.3623119853D+00
 SP   3 1.00       0.000000000000
      0.7868272350D+01 -0.1193324198D+00  0.6899906659D-01
      0.1881288540D+01 -0.1608541517D+00  0.3164239610D+00
      0.5442492580D+00  0.1143456438D+01  0.7443082909D+00
 SP   1 1.00       0.000000000000
      0.1687144782D+00  0.1000000000D+01  0.1000000000D+01
 D   1 1.00       0.000000000000
      0.8000000000D+00  0.1000000000D+01
 ****
     65 0
 S   3 1.00       0.000000000000
      0.1873113696D+02  0.3349460434D-01
      0.2825394365D+01  0.2347269535D+00
      0.6401216923D+00  0.8137573261D+00
 S   1 1.00       0.000000000000
      0.1612777588D+00  0.1000000000D+01
 ****
     66 0
 S   3 1.00       0.000000000000
      0.1873113696D+02  0.3349460434D-01
      0.2825394365D+01  0.2347269535D+00
      0.6401216923D+00  0.8137573261D+00
 S   1 1.00       0.000000000000
      0.1612777588D+00  0.1000000000D+01
 ****
     67 0
 S   6 1.00       0.000000000000
      0.3047524880D+04  0.1834737132D-02
      0.4573695180D+03  0.1403732281D-01
      0.1039486850D+03  0.6884262226D-01
      0.2921015530D+02  0.2321844432D+00
      0.9286662960D+01  0.4679413484D+00
      0.3163926960D+01  0.3623119853D+00
 SP   3 1.00       0.000000000000
      0.7868272350D+01 -0.1193324198D+00  0.6899906659D-01
      0.1881288540D+01 -0.1608541517D+00  0.3164239610D+00
      0.5442492580D+00  0.1143456438D+01  0.7443082909D+00
 SP   1 1.00       0.000000000000
      0.1687144782D+00  0.1000000000D+01  0.1000000000D+01
 D   1 1.00       0.000000000000
      0.8000000000D+00  0.1000000000D+01
 ****
     68 0
 S   3 1.00       0.000000000000
      0.1873113696D+02  0.3349460434D-01
      0.2825394365D+01  0.2347269535D+00
      0.6401216923D+00  0.8137573261D+00
 S   1 1.00       0.000000000000
      0.1612777588D+00  0.1000000000D+01
 ****
     69 0
 S   6 1.00       0.000000000000
      0.3047524880D+04  0.1834737132D-02
      0.4573695180D+03  0.1403732281D-01
      0.1039486850D+03  0.6884262226D-01
      0.2921015530D+02  0.2321844432D+00
      0.9286662960D+01  0.4679413484D+00
      0.3163926960D+01  0.3623119853D+00
 SP   3 1.00       0.000000000000
      0.7868272350D+01 -0.1193324198D+00  0.6899906659D-01
      0.1881288540D+01 -0.1608541517D+00  0.3164239610D+00
      0.5442492580D+00  0.1143456438D+01  0.7443082909D+00
 SP   1 1.00       0.000000000000
      0.1687144782D+00  0.1000000000D+01  0.1000000000D+01
 D   1 1.00       0.000000000000
      0.8000000000D+00  0.1000000000D+01
 ****
     70 0
 S   3 1.00       0.000000000000
      0.1873113696D+02  0.3349460434D-01
      0.2825394365D+01  0.2347269535D+00
      0.6401216923D+00  0.8137573261D+00
 S   1 1.00       0.000000000000
      0.1612777588D+00  0.1000000000D+01
 ****
     71 0
 S   3 1.00       0.000000000000
      0.1873113696D+02  0.3349460434D-01
      0.2825394365D+01  0.2347269535D+00
      0.6401216923D+00  0.8137573261D+00
 S   1 1.00       0.000000000000
      0.1612777588D+00  0.1000000000D+01
 ****
     72 0
 S   3 1.00       0.000000000000
      0.1873113696D+02  0.3349460434D-01
      0.2825394365D+01  0.2347269535D+00
      0.6401216923D+00  0.8137573261D+00
 S   1 1.00       0.000000000000
      0.1612777588D+00  0.1000000000D+01
 ****
     73 0
 S   6 1.00       0.000000000000
      0.3047524880D+04  0.1834737132D-02
      0.4573695180D+03  0.1403732281D-01
      0.1039486850D+03  0.6884262226D-01
      0.2921015530D+02  0.2321844432D+00
      0.9286662960D+01  0.4679413484D+00
      0.3163926960D+01  0.3623119853D+00
 SP   3 1.00       0.000000000000
      0.7868272350D+01 -0.1193324198D+00  0.6899906659D-01
      0.1881288540D+01 -0.1608541517D+00  0.3164239610D+00
      0.5442492580D+00  0.1143456438D+01  0.7443082909D+00
 SP   1 1.00       0.000000000000
      0.1687144782D+00  0.1000000000D+01  0.1000000000D+01
 D   1 1.00       0.000000000000
      0.8000000000D+00  0.1000000000D+01
 ****
     74 0
 S   3 1.00       0.000000000000
      0.1873113696D+02  0.3349460434D-01
      0.2825394365D+01  0.2347269535D+00
      0.6401216923D+00  0.8137573261D+00
 S   1 1.00       0.000000000000
      0.1612777588D+00  0.1000000000D+01
 ****
     75 0
 S   3 1.00       0.000000000000
      0.1873113696D+02  0.3349460434D-01
      0.2825394365D+01  0.2347269535D+00
      0.6401216923D+00  0.8137573261D+00
 S   1 1.00       0.000000000000
      0.1612777588D+00  0.1000000000D+01
 ****
     76 0
 S   3 1.00       0.000000000000
      0.1873113696D+02  0.3349460434D-01
      0.2825394365D+01  0.2347269535D+00
      0.6401216923D+00  0.8137573261D+00
 S   1 1.00       0.000000000000
      0.1612777588D+00  0.1000000000D+01
 ****

 AO basis set (Overlap normalization):
 Atom C1       Shell     1 S   6     bf    1 -     1          3.325264432096         -2.356947048652         -0.141207838862
      0.3047524880D+04  0.1834737132D-02
      0.4573695180D+03  0.1403732281D-01
      0.1039486850D+03  0.6884262226D-01
      0.2921015530D+02  0.2321844432D+00
      0.9286662960D+01  0.4679413484D+00
      0.3163926960D+01  0.3623119853D+00
 Atom C1       Shell     2 SP   3    bf    2 -     5          3.325264432096         -2.356947048652         -0.141207838862
      0.7868272350D+01 -0.1193324198D+00  0.6899906659D-01
      0.1881288540D+01 -0.1608541517D+00  0.3164239610D+00
      0.5442492580D+00  0.1143456438D+01  0.7443082909D+00
 Atom C1       Shell     3 SP   1    bf    6 -     9          3.325264432096         -2.356947048652         -0.141207838862
      0.1687144782D+00  0.1000000000D+01  0.1000000000D+01
 Atom C1       Shell     4 D   1     bf   10 -    15          3.325264432096         -2.356947048652         -0.141207838862
      0.8000000000D+00  0.1000000000D+01
 Atom H2       Shell     5 S   3     bf   16 -    16          3.540371995597         -2.113452586101         -2.188461447699
      0.1873113696D+02  0.3349460434D-01
      0.2825394365D+01  0.2347269535D+00
      0.6401216923D+00  0.8137573261D+00
 Atom H2       Shell     6 S   1     bf   17 -    17          3.540371995597         -2.113452586101         -2.188461447699
      0.1612777588D+00  0.1000000000D+01
 Atom C3       Shell     7 S   6     bf   18 -    18          5.954673026066         -2.480117735034          1.077053132199
      0.3047524880D+04  0.1834737132D-02
      0.4573695180D+03  0.1403732281D-01
      0.1039486850D+03  0.6884262226D-01
      0.2921015530D+02  0.2321844432D+00
      0.9286662960D+01  0.4679413484D+00
      0.3163926960D+01  0.3623119853D+00
 Atom C3       Shell     8 SP   3    bf   19 -    22          5.954673026066         -2.480117735034          1.077053132199
      0.7868272350D+01 -0.1193324198D+00  0.6899906659D-01
      0.1881288540D+01 -0.1608541517D+00  0.3164239610D+00
      0.5442492580D+00  0.1143456438D+01  0.7443082909D+00
 Atom C3       Shell     9 SP   1    bf   23 -    26          5.954673026066         -2.480117735034          1.077053132199
      0.1687144782D+00  0.1000000000D+01  0.1000000000D+01
 Atom C3       Shell    10 D   1     bf   27 -    32          5.954673026066         -2.480117735034          1.077053132199
      0.8000000000D+00  0.1000000000D+01
 Atom H4       Shell    11 S   3     bf   33 -    33          7.048045984327         -4.019759251665          0.234449156135
      0.1873113696D+02  0.3349460434D-01
      0.2825394365D+01  0.2347269535D+00
      0.6401216923D+00  0.8137573261D+00
 Atom H4       Shell    12 S   1     bf   34 -    34          7.048045984327         -4.019759251665          0.234449156135
      0.1612777588D+00  0.1000000000D+01
 Atom H5       Shell    13 S   3     bf   35 -    35          5.695726480796         -2.962974036954          3.086767558173
      0.1873113696D+02  0.3349460434D-01
      0.2825394365D+01  0.2347269535D+00
      0.6401216923D+00  0.8137573261D+00
 Atom H5       Shell    14 S   1     bf   36 -    36          5.695726480796         -2.962974036954          3.086767558173
      0.1612777588D+00  0.1000000000D+01
 Atom C6       Shell    15 S   6     bf   37 -    37          7.394480707939         -0.010132087915          0.861240663056
      0.3047524880D+04  0.1834737132D-02
      0.4573695180D+03  0.1403732281D-01
      0.1039486850D+03  0.6884262226D-01
      0.2921015530D+02  0.2321844432D+00
      0.9286662960D+01  0.4679413484D+00
      0.3163926960D+01  0.3623119853D+00
 Atom C6       Shell    16 SP   3    bf   38 -    41          7.394480707939         -0.010132087915          0.861240663056
      0.7868272350D+01 -0.1193324198D+00  0.6899906659D-01
      0.1881288540D+01 -0.1608541517D+00  0.3164239610D+00
      0.5442492580D+00  0.1143456438D+01  0.7443082909D+00
 Atom C6       Shell    17 SP   1    bf   42 -    45          7.394480707939         -0.010132087915          0.861240663056
      0.1687144782D+00  0.1000000000D+01  0.1000000000D+01
 Atom C6       Shell    18 D   1     bf   46 -    51          7.394480707939         -0.010132087915          0.861240663056
      0.8000000000D+00  0.1000000000D+01
 Atom C7       Shell    19 S   6     bf   52 -    52          6.023079638091          2.398970872881          1.695725638659
      0.3047524880D+04  0.1834737132D-02
      0.4573695180D+03  0.1403732281D-01
      0.1039486850D+03  0.6884262226D-01
      0.2921015530D+02  0.2321844432D+00
      0.9286662960D+01  0.4679413484D+00
      0.3163926960D+01  0.3623119853D+00
 Atom C7       Shell    20 SP   3    bf   53 -    56          6.023079638091          2.398970872881          1.695725638659
      0.7868272350D+01 -0.1193324198D+00  0.6899906659D-01
      0.1881288540D+01 -0.1608541517D+00  0.3164239610D+00
      0.5442492580D+00  0.1143456438D+01  0.7443082909D+00
 Atom C7       Shell    21 SP   1    bf   57 -    60          6.023079638091          2.398970872881          1.695725638659
      0.1687144782D+00  0.1000000000D+01  0.1000000000D+01
 Atom C7       Shell    22 D   1     bf   61 -    66          6.023079638091          2.398970872881          1.695725638659
      0.8000000000D+00  0.1000000000D+01
 Atom C8       Shell    23 S   6     bf   67 -    67          3.300469241020          2.368754870112          0.562894272778
      0.3047524880D+04  0.1834737132D-02
      0.4573695180D+03  0.1403732281D-01
      0.1039486850D+03  0.6884262226D-01
      0.2921015530D+02  0.2321844432D+00
      0.9286662960D+01  0.4679413484D+00
      0.3163926960D+01  0.3623119853D+00
 Atom C8       Shell    24 SP   3    bf   68 -    71          3.300469241020          2.368754870112          0.562894272778
      0.7868272350D+01 -0.1193324198D+00  0.6899906659D-01
      0.1881288540D+01 -0.1608541517D+00  0.3164239610D+00
      0.5442492580D+00  0.1143456438D+01  0.7443082909D+00
 Atom C8       Shell    25 SP   1    bf   72 -    75          3.300469241020          2.368754870112          0.562894272778
      0.1687144782D+00  0.1000000000D+01  0.1000000000D+01
 Atom C8       Shell    26 D   1     bf   76 -    81          3.300469241020          2.368754870112          0.562894272778
      0.8000000000D+00  0.1000000000D+01
 Atom H9       Shell    27 S   3     bf   82 -    82          3.439832102464          2.746012784398         -1.474517075441
      0.1873113696D+02  0.3349460434D-01
      0.2825394365D+01  0.2347269535D+00
      0.6401216923D+00  0.8137573261D+00
 Atom H9       Shell    28 S   1     bf   83 -    83          3.439832102464          2.746012784398         -1.474517075441
      0.1612777588D+00  0.1000000000D+01
 Atom H10      Shell    29 S   3     bf   84 -    84          2.197295010301          3.921175735306          1.372820518736
      0.1873113696D+02  0.3349460434D-01
      0.2825394365D+01  0.2347269535D+00
      0.6401216923D+00  0.8137573261D+00
 Atom H10      Shell    30 S   1     bf   85 -    85          2.197295010301          3.921175735306          1.372820518736
      0.1612777588D+00  0.1000000000D+01
 Atom C11      Shell    31 S   6     bf   86 -    86          1.847297378140         -0.118165255391          0.928846012302
      0.3047524880D+04  0.1834737132D-02
      0.4573695180D+03  0.1403732281D-01
      0.1039486850D+03  0.6884262226D-01
      0.2921015530D+02  0.2321844432D+00
      0.9286662960D+01  0.4679413484D+00
      0.3163926960D+01  0.3623119853D+00
 Atom C11      Shell    32 SP   3    bf   87 -    90          1.847297378140         -0.118165255391          0.928846012302
      0.7868272350D+01 -0.1193324198D+00  0.6899906659D-01
      0.1881288540D+01 -0.1608541517D+00  0.3164239610D+00
      0.5442492580D+00  0.1143456438D+01  0.7443082909D+00
 Atom C11      Shell    33 SP   1    bf   91 -    94          1.847297378140         -0.118165255391          0.928846012302
      0.1687144782D+00  0.1000000000D+01  0.1000000000D+01
 Atom C11      Shell    34 D   1     bf   95 -   100          1.847297378140         -0.118165255391          0.928846012302
      0.8000000000D+00  0.1000000000D+01
 Atom H12      Shell    35 S   3     bf  101 -   101          1.477171403664         -0.454273400475          2.946725472465
      0.1873113696D+02  0.3349460434D-01
      0.2825394365D+01  0.2347269535D+00
      0.6401216923D+00  0.8137573261D+00
 Atom H12      Shell    36 S   1     bf  102 -   102          1.477171403664         -0.454273400475          2.946725472465
      0.1612777588D+00  0.1000000000D+01
 Atom H13      Shell    37 S   3     bf  103 -   103          0.000000000000          0.000000000000          0.000000000000
      0.1873113696D+02  0.3349460434D-01
      0.2825394365D+01  0.2347269535D+00
      0.6401216923D+00  0.8137573261D+00
 Atom H13      Shell    38 S   1     bf  104 -   104          0.000000000000          0.000000000000          0.000000000000
      0.1612777588D+00  0.1000000000D+01
 Atom C14      Shell    39 S   6     bf  105 -   105          9.774736923728          0.000000000000          0.000000000000
      0.3047524880D+04  0.1834737132D-02
      0.4573695180D+03  0.1403732281D-01
      0.1039486850D+03  0.6884262226D-01
      0.2921015530D+02  0.2321844432D+00
      0.9286662960D+01  0.4679413484D+00
      0.3163926960D+01  0.3623119853D+00
 Atom C14      Shell    40 SP   3    bf  106 -   109          9.774736923728          0.000000000000          0.000000000000
      0.7868272350D+01 -0.1193324198D+00  0.6899906659D-01
      0.1881288540D+01 -0.1608541517D+00  0.3164239610D+00
      0.5442492580D+00  0.1143456438D+01  0.7443082909D+00
 Atom C14      Shell    41 SP   1    bf  110 -   113          9.774736923728          0.000000000000          0.000000000000
      0.1687144782D+00  0.1000000000D+01  0.1000000000D+01
 Atom C14      Shell    42 D   1     bf  114 -   119          9.774736923728          0.000000000000          0.000000000000
      0.8000000000D+00  0.1000000000D+01
 Atom H15      Shell    43 S   3     bf  120 -   120         10.655389004799         -1.763134172929         -0.583834857180
      0.1873113696D+02  0.3349460434D-01
      0.2825394365D+01  0.2347269535D+00
      0.6401216923D+00  0.8137573261D+00
 Atom H15      Shell    44 S   1     bf  121 -   121         10.655389004799         -1.763134172929         -0.583834857180
      0.1612777588D+00  0.1000000000D+01
 Atom C16      Shell    45 S   6     bf  122 -   122         11.448234299701          2.281557766286         -0.177322716241
      0.3047524880D+04  0.1834737132D-02
      0.4573695180D+03  0.1403732281D-01
      0.1039486850D+03  0.6884262226D-01
      0.2921015530D+02  0.2321844432D+00
      0.9286662960D+01  0.4679413484D+00
      0.3163926960D+01  0.3623119853D+00
 Atom C16      Shell    46 SP   3    bf  123 -   126         11.448234299701          2.281557766286         -0.177322716241
      0.7868272350D+01 -0.1193324198D+00  0.6899906659D-01
      0.1881288540D+01 -0.1608541517D+00  0.3164239610D+00
      0.5442492580D+00  0.1143456438D+01  0.7443082909D+00
 Atom C16      Shell    47 SP   1    bf  127 -   130         11.448234299701          2.281557766286         -0.177322716241
      0.1687144782D+00  0.1000000000D+01  0.1000000000D+01
 Atom C16      Shell    48 D   1     bf  131 -   136         11.448234299701          2.281557766286         -0.177322716241
      0.8000000000D+00  0.1000000000D+01
 Atom H17      Shell    49 S   3     bf  137 -   137         11.929421860062          2.662227656693         -2.165632422178
      0.1873113696D+02  0.3349460434D-01
      0.2825394365D+01  0.2347269535D+00
      0.6401216923D+00  0.8137573261D+00
 Atom H17      Shell    50 S   1     bf  138 -   138         11.929421860062          2.662227656693         -2.165632422178
      0.1612777588D+00  0.1000000000D+01
 Atom C18      Shell    51 S   6     bf  139 -   139         10.358148312179          4.673388025515          1.060815320251
      0.3047524880D+04  0.1834737132D-02
      0.4573695180D+03  0.1403732281D-01
      0.1039486850D+03  0.6884262226D-01
      0.2921015530D+02  0.2321844432D+00
      0.9286662960D+01  0.4679413484D+00
      0.3163926960D+01  0.3623119853D+00
 Atom C18      Shell    52 SP   3    bf  140 -   143         10.358148312179          4.673388025515          1.060815320251
      0.7868272350D+01 -0.1193324198D+00  0.6899906659D-01
      0.1881288540D+01 -0.1608541517D+00  0.3164239610D+00
      0.5442492580D+00  0.1143456438D+01  0.7443082909D+00
 Atom C18      Shell    53 SP   1    bf  144 -   147         10.358148312179          4.673388025515          1.060815320251
      0.1687144782D+00  0.1000000000D+01  0.1000000000D+01
 Atom C18      Shell    54 D   1     bf  148 -   153         10.358148312179          4.673388025515          1.060815320251
      0.8000000000D+00  0.1000000000D+01
 Atom H19      Shell    55 S   3     bf  154 -   154         10.768274932292          4.538241936759          3.090281409430
      0.1873113696D+02  0.3349460434D-01
      0.2825394365D+01  0.2347269535D+00
      0.6401216923D+00  0.8137573261D+00
 Atom H19      Shell    56 S   1     bf  155 -   155         10.768274932292          4.538241936759          3.090281409430
      0.1612777588D+00  0.1000000000D+01
 Atom C20      Shell    57 S   6     bf  156 -   156          7.450280295527          4.775212932418          0.652833104662
      0.3047524880D+04  0.1834737132D-02
      0.4573695180D+03  0.1403732281D-01
      0.1039486850D+03  0.6884262226D-01
      0.2921015530D+02  0.2321844432D+00
      0.9286662960D+01  0.4679413484D+00
      0.3163926960D+01  0.3623119853D+00
 Atom C20      Shell    58 SP   3    bf  157 -   160          7.450280295527          4.775212932418          0.652833104662
      0.7868272350D+01 -0.1193324198D+00  0.6899906659D-01
      0.1881288540D+01 -0.1608541517D+00  0.3164239610D+00
      0.5442492580D+00  0.1143456438D+01  0.7443082909D+00
 Atom C20      Shell    59 SP   1    bf  161 -   164          7.450280295527          4.775212932418          0.652833104662
      0.1687144782D+00  0.1000000000D+01  0.1000000000D+01
 Atom C20      Shell    60 D   1     bf  165 -   170          7.450280295527          4.775212932418          0.652833104662
      0.8000000000D+00  0.1000000000D+01
 Atom H21      Shell    61 S   3     bf  171 -   171          7.168165575587          4.733261484700         -1.410480549585
      0.1873113696D+02  0.3349460434D-01
      0.2825394365D+01  0.2347269535D+00
      0.6401216923D+00  0.8137573261D+00
 Atom H21      Shell    62 S   1     bf  172 -   172          7.168165575587          4.733261484700         -1.410480549585
      0.1612777588D+00  0.1000000000D+01
 Atom C22      Shell    63 S   6     bf  173 -   173          6.339558404147          7.303875161779          1.604983200737
      0.3047524880D+04  0.1834737132D-02
      0.4573695180D+03  0.1403732281D-01
      0.1039486850D+03  0.6884262226D-01
      0.2921015530D+02  0.2321844432D+00
      0.9286662960D+01  0.4679413484D+00
      0.3163926960D+01  0.3623119853D+00
 Atom C22      Shell    64 SP   3    bf  174 -   177          6.339558404147          7.303875161779          1.604983200737
      0.7868272350D+01 -0.1193324198D+00  0.6899906659D-01
      0.1881288540D+01 -0.1608541517D+00  0.3164239610D+00
      0.5442492580D+00  0.1143456438D+01  0.7443082909D+00
 Atom C22      Shell    65 SP   1    bf  178 -   181          6.339558404147          7.303875161779          1.604983200737
      0.1687144782D+00  0.1000000000D+01  0.1000000000D+01
 Atom C22      Shell    66 D   1     bf  182 -   187          6.339558404147          7.303875161779          1.604983200737
      0.8000000000D+00  0.1000000000D+01
 Atom H23      Shell    67 S   3     bf  188 -   188          6.396408773951          7.356060137911          3.673508587378
      0.1873113696D+02  0.3349460434D-01
      0.2825394365D+01  0.2347269535D+00
      0.6401216923D+00  0.8137573261D+00
 Atom H23      Shell    68 S   1     bf  189 -   189          6.396408773951          7.356060137911          3.673508587378
      0.1612777588D+00  0.1000000000D+01
 Atom H24      Shell    69 S   3     bf  190 -   190          4.338853549868          7.417906679048          1.086754532631
      0.1873113696D+02  0.3349460434D-01
      0.2825394365D+01  0.2347269535D+00
      0.6401216923D+00  0.8137573261D+00
 Atom H24      Shell    70 S   1     bf  191 -   191          4.338853549868          7.417906679048          1.086754532631
      0.1612777588D+00  0.1000000000D+01
 Atom C25      Shell    71 S   6     bf  192 -   192          7.690470685318          9.667322565972          0.571182214754
      0.3047524880D+04  0.1834737132D-02
      0.4573695180D+03  0.1403732281D-01
      0.1039486850D+03  0.6884262226D-01
      0.2921015530D+02  0.2321844432D+00
      0.9286662960D+01  0.4679413484D+00
      0.3163926960D+01  0.3623119853D+00
 Atom C25      Shell    72 SP   3    bf  193 -   196          7.690470685318          9.667322565972          0.571182214754
      0.7868272350D+01 -0.1193324198D+00  0.6899906659D-01
      0.1881288540D+01 -0.1608541517D+00  0.3164239610D+00
      0.5442492580D+00  0.1143456438D+01  0.7443082909D+00
 Atom C25      Shell    73 SP   1    bf  197 -   200          7.690470685318          9.667322565972          0.571182214754
      0.1687144782D+00  0.1000000000D+01  0.1000000000D+01
 Atom C25      Shell    74 D   1     bf  201 -   206          7.690470685318          9.667322565972          0.571182214754
      0.8000000000D+00  0.1000000000D+01
 Atom H26      Shell    75 S   3     bf  207 -   207          7.395455466473          9.787124910009         -1.482277727134
      0.1873113696D+02  0.3349460434D-01
      0.2825394365D+01  0.2347269535D+00
      0.6401216923D+00  0.8137573261D+00
 Atom H26      Shell    76 S   1     bf  208 -   208          7.395455466473          9.787124910009         -1.482277727134
      0.1612777588D+00  0.1000000000D+01
 Atom H27      Shell    77 S   3     bf  209 -   209          6.799100871307         11.344242821786          1.391125615484
      0.1873113696D+02  0.3349460434D-01
      0.2825394365D+01  0.2347269535D+00
      0.6401216923D+00  0.8137573261D+00
 Atom H27      Shell    78 S   1     bf  210 -   210          6.799100871307         11.344242821786          1.391125615484
      0.1612777588D+00  0.1000000000D+01
 Atom C28      Shell    79 S   6     bf  211 -   211         10.554059829752          9.602879673409          1.100662161078
      0.3047524880D+04  0.1834737132D-02
      0.4573695180D+03  0.1403732281D-01
      0.1039486850D+03  0.6884262226D-01
      0.2921015530D+02  0.2321844432D+00
      0.9286662960D+01  0.4679413484D+00
      0.3163926960D+01  0.3623119853D+00
 Atom C28      Shell    80 SP   3    bf  212 -   215         10.554059829752          9.602879673409          1.100662161078
      0.7868272350D+01 -0.1193324198D+00  0.6899906659D-01
      0.1881288540D+01 -0.1608541517D+00  0.3164239610D+00
      0.5442492580D+00  0.1143456438D+01  0.7443082909D+00
 Atom C28      Shell    81 SP   1    bf  216 -   219         10.554059829752          9.602879673409          1.100662161078
      0.1687144782D+00  0.1000000000D+01  0.1000000000D+01
 Atom C28      Shell    82 D   1     bf  220 -   225         10.554059829752          9.602879673409          1.100662161078
      0.8000000000D+00  0.1000000000D+01
 Atom C29      Shell    83 S   6     bf  226 -   226         11.565403026913          7.084702041476         -0.033173386372
      0.3047524880D+04  0.1834737132D-02
      0.4573695180D+03  0.1403732281D-01
      0.1039486850D+03  0.6884262226D-01
      0.2921015530D+02  0.2321844432D+00
      0.9286662960D+01  0.4679413484D+00
      0.3163926960D+01  0.3623119853D+00
 Atom C29      Shell    84 SP   3    bf  227 -   230         11.565403026913          7.084702041476         -0.033173386372
      0.7868272350D+01 -0.1193324198D+00  0.6899906659D-01
      0.1881288540D+01 -0.1608541517D+00  0.3164239610D+00
      0.5442492580D+00  0.1143456438D+01  0.7443082909D+00
 Atom C29      Shell    85 SP   1    bf  231 -   234         11.565403026913          7.084702041476         -0.033173386372
      0.1687144782D+00  0.1000000000D+01  0.1000000000D+01
 Atom C29      Shell    86 D   1     bf  235 -   240         11.565403026913          7.084702041476         -0.033173386372
      0.8000000000D+00  0.1000000000D+01
 Atom H30      Shell    87 S   3     bf  241 -   241         10.993652136873          7.130316496536         -2.038154634199
      0.1873113696D+02  0.3349460434D-01
      0.2825394365D+01  0.2347269535D+00
      0.6401216923D+00  0.8137573261D+00
 Atom H30      Shell    88 S   1     bf  242 -   242         10.993652136873          7.130316496536         -2.038154634199
      0.1612777588D+00  0.1000000000D+01
 Atom C31      Shell    89 S   6     bf  243 -   243         14.454646545306          7.394368288132          0.000000000000
      0.3047524880D+04  0.1834737132D-02
      0.4573695180D+03  0.1403732281D-01
      0.1039486850D+03  0.6884262226D-01
      0.2921015530D+02  0.2321844432D+00
      0.9286662960D+01  0.4679413484D+00
      0.3163926960D+01  0.3623119853D+00
 Atom C31      Shell    90 SP   3    bf  244 -   247         14.454646545306          7.394368288132          0.000000000000
      0.7868272350D+01 -0.1193324198D+00  0.6899906659D-01
      0.1881288540D+01 -0.1608541517D+00  0.3164239610D+00
      0.5442492580D+00  0.1143456438D+01  0.7443082909D+00
 Atom C31      Shell    91 SP   1    bf  248 -   251         14.454646545306          7.394368288132          0.000000000000
      0.1687144782D+00  0.1000000000D+01  0.1000000000D+01
 Atom C31      Shell    92 D   1     bf  252 -   257         14.454646545306          7.394368288132          0.000000000000
      0.8000000000D+00  0.1000000000D+01
 Atom H32      Shell    93 S   3     bf  258 -   258         15.382966703517          6.207984162344         -1.417283752636
      0.1873113696D+02  0.3349460434D-01
      0.2825394365D+01  0.2347269535D+00
      0.6401216923D+00  0.8137573261D+00
 Atom H32      Shell    94 S   1     bf  259 -   259         15.382966703517          6.207984162344         -1.417283752636
      0.1612777588D+00  0.1000000000D+01
 Atom H33      Shell    95 S   3     bf  260 -   260         15.232397879489          6.836246896648          1.833604857219
      0.1873113696D+02  0.3349460434D-01
      0.2825394365D+01  0.2347269535D+00
      0.6401216923D+00  0.8137573261D+00
 Atom H33      Shell    96 S   1     bf  261 -   261         15.232397879489          6.836246896648          1.833604857219
      0.1612777588D+00  0.1000000000D+01
 Atom C34      Shell    97 S   6     bf  262 -   262         14.859996070036         10.256689860967         -0.509214655556
      0.3047524880D+04  0.1834737132D-02
      0.4573695180D+03  0.1403732281D-01
      0.1039486850D+03  0.6884262226D-01
      0.2921015530D+02  0.2321844432D+00
      0.9286662960D+01  0.4679413484D+00
      0.3163926960D+01  0.3623119853D+00
 Atom C34      Shell    98 SP   3    bf  263 -   266         14.859996070036         10.256689860967         -0.509214655556
      0.7868272350D+01 -0.1193324198D+00  0.6899906659D-01
      0.1881288540D+01 -0.1608541517D+00  0.3164239610D+00
      0.5442492580D+00  0.1143456438D+01  0.7443082909D+00
 Atom C34      Shell    99 SP   1    bf  267 -   270         14.859996070036         10.256689860967         -0.509214655556
      0.1687144782D+00  0.1000000000D+01  0.1000000000D+01
 Atom C34      Shell   100 D   1     bf  271 -   276         14.859996070036         10.256689860967         -0.509214655556
      0.8000000000D+00  0.1000000000D+01
 Atom H35      Shell   101 S   3     bf  277 -   277         16.110395348877         11.080276578092          0.922786170820
      0.1873113696D+02  0.3349460434D-01
      0.2825394365D+01  0.2347269535D+00
      0.6401216923D+00  0.8137573261D+00
 Atom H35      Shell   102 S   1     bf  278 -   278         16.110395348877         11.080276578092          0.922786170820
      0.1612777588D+00  0.1000000000D+01
 Atom H36      Shell   103 S   3     bf  279 -   279         15.775663907075         10.585302275064         -2.335021198839
      0.1873113696D+02  0.3349460434D-01
      0.2825394365D+01  0.2347269535D+00
      0.6401216923D+00  0.8137573261D+00
 Atom H36      Shell   104 S   1     bf  280 -   280         15.775663907075         10.585302275064         -2.335021198839
      0.1612777588D+00  0.1000000000D+01
 Atom C37      Shell   105 S   6     bf  281 -   281         12.202942086652         11.544247580650         -0.414734660597
      0.3047524880D+04  0.1834737132D-02
      0.4573695180D+03  0.1403732281D-01
      0.1039486850D+03  0.6884262226D-01
      0.2921015530D+02  0.2321844432D+00
      0.9286662960D+01  0.4679413484D+00
      0.3163926960D+01  0.3623119853D+00
 Atom C37      Shell   106 SP   3    bf  282 -   285         12.202942086652         11.544247580650         -0.414734660597
      0.7868272350D+01 -0.1193324198D+00  0.6899906659D-01
      0.1881288540D+01 -0.1608541517D+00  0.3164239610D+00
      0.5442492580D+00  0.1143456438D+01  0.7443082909D+00
 Atom C37      Shell   107 SP   1    bf  286 -   289         12.202942086652         11.544247580650         -0.414734660597
      0.1687144782D+00  0.1000000000D+01  0.1000000000D+01
 Atom C37      Shell   108 D   1     bf  290 -   295         12.202942086652         11.544247580650         -0.414734660597
      0.8000000000D+00  0.1000000000D+01
 Atom H38      Shell   109 S   3     bf  296 -   296         11.423728954819         11.551280990138         -2.341841768473
      0.1873113696D+02  0.3349460434D-01
      0.2825394365D+01  0.2347269535D+00
      0.6401216923D+00  0.8137573261D+00
 Atom H38      Shell   110 S   1     bf  297 -   297         11.423728954819         11.551280990138         -2.341841768473
      0.1612777588D+00  0.1000000000D+01
 Atom C39      Shell   111 S   6     bf  298 -   298         11.079749892522          9.830141199506          3.964617175388
      0.3047524880D+04  0.1834737132D-02
      0.4573695180D+03  0.1403732281D-01
      0.1039486850D+03  0.6884262226D-01
[...]
 **** Fit       0.001124
 **** Fit       0.002736
 **** Fit       0.001527
 **** Fit       0.000946
 **** Fit       0.000796
 **** Fit       0.000852
 **** Fit       0.000977
 **** Fit      -0.001186
 **** Fit      -0.001575
 **** Fit      -0.001883
 **** Fit      -0.001965
 **** Fit      -0.001635
 **** Fit      -0.000771
 **** Fit       0.000470
 **** Fit       0.001522
 **** Fit       0.001783
 **** Fit       0.001266
 **** Fit       0.000556
 **** Fit       0.000132
 **** Fit       0.000073
 **** Fit       0.000241
 **** Fit       0.000487
 **** Fit       0.000730
 **** Fit      -0.001262
 **** Fit      -0.001685
 **** Fit      -0.002073
 **** Fit      -0.002334
 **** Fit      -0.002370
 **** Fit      -0.002122
 **** Fit      -0.001666
 **** Fit      -0.001227
 **** Fit      -0.001021
 **** Fit      -0.001027
 **** Fit      -0.001026
 **** Fit      -0.000856
 **** Fit      -0.000527
 **** Fit      -0.000133
 **** Fit       0.000242
 **** Fit       0.000560
 **** Fit      -0.001259
 **** Fit      -0.001677
 **** Fit      -0.002084
 **** Fit      -0.002424
 **** Fit      -0.002642
 **** Fit      -0.002708
 **** Fit      -0.002636
 **** Fit      -0.002482
 **** Fit      -0.002289
 **** Fit      -0.002043
 **** Fit      -0.001700
 **** Fit      -0.001252
 **** Fit      -0.000752
 **** Fit      -0.000270
 **** Fit       0.000149
 **** Fit      -0.001565
 **** Fit      -0.001942
 **** Fit      -0.002275
 **** Fit      -0.002525
 **** Fit      -0.002665
 **** Fit      -0.002685
 **** Fit      -0.002583
 **** Fit      -0.002365
 **** Fit      -0.002037
 **** Fit      -0.001614
 **** Fit      -0.001131
 **** Fit      -0.000640
 **** Fit      -0.000188
 **** Fit       0.000197
 **** Fit      -0.001687
 **** Fit      -0.001957
 **** Fit      -0.002151
 **** Fit      -0.002240
 **** Fit      -0.002210
 **** Fit      -0.002060
 **** Fit      -0.001806
 **** Fit      -0.001477
 **** Fit      -0.001099
 **** Fit      -0.000702
 **** Fit      -0.000313
 **** Fit       0.000041
 **** Fit       0.000346
 **** Fit      -0.001366
 **** Fit      -0.001550
 **** Fit      -0.001654
 **** Fit      -0.001654
 **** Fit      -0.001542
 **** Fit      -0.001332
 **** Fit      -0.001058
 **** Fit      -0.000759
 **** Fit      -0.000462
 **** Fit      -0.000177
 **** Fit       0.000089
 **** Fit       0.000331
 **** Fit       0.000543
 **** Fit      -0.001122
 **** Fit      -0.001142
 **** Fit      -0.001064
 **** Fit      -0.000892
 **** Fit      -0.000650
 **** Fit      -0.000379
 **** Fit      -0.000121
 **** Fit       0.000104
 **** Fit       0.000295
 **** Fit       0.000461
 **** Fit       0.000608
 **** Fit      -0.000727
 **** Fit      -0.000684
 **** Fit      -0.000560
 **** Fit      -0.000361
 **** Fit      -0.000118
 **** Fit       0.000130
 **** Fit       0.000348
 **** Fit       0.000520
 **** Fit       0.000649
 **** Fit       0.000748
 **** Fit       0.000830
 **** Fit      -0.000313
 **** Fit      -0.000169
 **** Fit       0.000027
 **** Fit       0.000251
 **** Fit       0.000468
 **** Fit       0.000650
 **** Fit       0.000786
 **** Fit       0.000878
 **** Fit       0.000939
 **** Fit       0.000292
 **** Fit       0.000486
 **** Fit       0.000670
 **** Fit       0.000822
 **** Fit       0.000933
 **** Fit       0.002215
 **** Fit       0.002548
 **** Fit       0.002834
 **** Fit       0.003035
 **** Fit       0.003129
 **** Fit       0.003120
 **** Fit       0.001482
 **** Fit       0.001841
 **** Fit       0.002255
 **** Fit       0.002669
 **** Fit       0.003016
 **** Fit       0.003239
 **** Fit       0.003313
 **** Fit       0.003254
 **** Fit       0.003102
 **** Fit       0.002904
 **** Fit       0.001040
 **** Fit       0.001367
 **** Fit       0.001812
 **** Fit       0.002341
 **** Fit       0.002875
 **** Fit       0.003310
 **** Fit       0.003558
 **** Fit       0.003589
 **** Fit       0.003443
 **** Fit       0.003194
 **** Fit       0.002914
 **** Fit       0.002651
 **** Fit       0.000621
 **** Fit       0.000844
 **** Fit       0.001224
 **** Fit       0.001776
 **** Fit       0.002463
 **** Fit       0.003170
 **** Fit       0.003732
 **** Fit       0.004005
 **** Fit       0.003958
 **** Fit       0.003675
 **** Fit       0.003287
 **** Fit       0.002900
 **** Fit       0.002571
 **** Fit       0.000378
 **** Fit       0.000600
 **** Fit       0.001026
 **** Fit       0.001694
 **** Fit       0.002571
 **** Fit       0.003502
 **** Fit       0.004230
 **** Fit       0.004528
 **** Fit       0.004361
 **** Fit       0.003887
 **** Fit       0.003325
 **** Fit       0.002822
 **** Fit       0.002435
 **** Fit       0.002160
 **** Fit       0.000099
 **** Fit       0.000297
 **** Fit       0.000738
 **** Fit       0.001494
 **** Fit       0.002549
 **** Fit       0.003709
 **** Fit       0.004612
 **** Fit       0.004928
 **** Fit       0.004617
 **** Fit       0.003941
 **** Fit       0.003215
 **** Fit       0.002624
 **** Fit       0.002210
 **** Fit       0.001946
 **** Fit      -0.000183
 **** Fit      -0.000204
 **** Fit      -0.000065
 **** Fit       0.000336
 **** Fit       0.001098
 **** Fit       0.002229
 **** Fit       0.003521
 **** Fit       0.004533
 **** Fit       0.004852
 **** Fit       0.004441
 **** Fit       0.003644
 **** Fit       0.002849
 **** Fit       0.002254
 **** Fit       0.001879
 **** Fit       0.001669
 **** Fit      -0.000417
 **** Fit      -0.000510
 **** Fit      -0.000462
 **** Fit      -0.000168
 **** Fit       0.000480
 **** Fit       0.001506
 **** Fit       0.002721
 **** Fit       0.003690
 **** Fit       0.003994
 **** Fit       0.003604
 **** Fit       0.002873
 **** Fit       0.002184
 **** Fit       0.001712
 **** Fit       0.001454
 **** Fit       0.001344
 **** Fit       0.001316
 **** Fit      -0.000620
 **** Fit      -0.000785
 **** Fit      -0.000843
 **** Fit      -0.000703
 **** Fit      -0.000272
 **** Fit       0.000477
 **** Fit       0.001401
 **** Fit       0.002163
 **** Fit       0.002438
 **** Fit       0.002203
 **** Fit       0.001730
 **** Fit       0.001312
 **** Fit       0.001070
 **** Fit       0.000989
 **** Fit       0.001007
 **** Fit      -0.000997
 **** Fit      -0.001151
 **** Fit      -0.001168
 **** Fit      -0.000982
 **** Fit      -0.000570
 **** Fit      -0.000019
 **** Fit       0.000470
 **** Fit       0.000707
 **** Fit       0.000677
 **** Fit       0.000535
 **** Fit       0.000443
 **** Fit       0.000460
 **** Fit       0.000563
 **** Fit       0.000707
 **** Fit      -0.001124
 **** Fit      -0.001344
 **** Fit      -0.001479
 **** Fit      -0.001485
 **** Fit      -0.001347
 **** Fit      -0.001101
 **** Fit      -0.000836
 **** Fit      -0.000632
 **** Fit      -0.000498
 **** Fit      -0.000375
 **** Fit      -0.000208
 **** Fit       0.000011
 **** Fit       0.000253
 **** Fit       0.000488
 **** Fit      -0.001406
 **** Fit      -0.001600
 **** Fit      -0.001712
 **** Fit      -0.001728
 **** Fit      -0.001653
 **** Fit      -0.001511
 **** Fit      -0.001325
 **** Fit      -0.001102
 **** Fit      -0.000836
 **** Fit      -0.000532
 **** Fit      -0.000211
 **** Fit       0.000099
 **** Fit      -0.001348
 **** Fit      -0.001548
 **** Fit      -0.001687
 **** Fit      -0.001750
 **** Fit      -0.001729
 **** Fit      -0.001623
 **** Fit      -0.001439
 **** Fit      -0.001187
 **** Fit      -0.000882
 **** Fit      -0.000548
 **** Fit      -0.000214
 **** Fit       0.000097
 **** Fit      -0.001365
 **** Fit      -0.001480
 **** Fit      -0.001524
 **** Fit      -0.001488
 **** Fit      -0.001371
 **** Fit      -0.001181
 **** Fit      -0.000934
 **** Fit      -0.000649
 **** Fit      -0.000350
 **** Fit      -0.000059
 **** Fit      -0.001170
 **** Fit      -0.001168
 **** Fit      -0.001095
 **** Fit      -0.000955
 **** Fit      -0.000761
 **** Fit      -0.000534
 **** Fit      -0.000293
 **** Fit      -0.000053
 **** Fit       0.000173
 **** Fit      -0.000827
 **** Fit      -0.000781
 **** Fit      -0.000674
 **** Fit      -0.000517
 **** Fit      -0.000327
 **** Fit      -0.000127
 **** Fit       0.000069
 **** Fit       0.000250
 **** Fit       0.000415
 **** Fit      -0.000425
 **** Fit      -0.000298
 **** Fit      -0.000136
 **** Fit       0.000041
 **** Fit       0.000214
 **** Fit       0.000370
 **** Fit       0.000506
 **** Fit       0.000003
 **** Fit       0.000157
 **** Fit       0.000316
 **** Fit       0.000464
 **** Fit       0.002094
 **** Fit       0.002399
 **** Fit       0.002654
 **** Fit       0.002823
 **** Fit       0.002891
 **** Fit       0.002865
 **** Fit       0.001394
 **** Fit       0.001730
 **** Fit       0.002109
 **** Fit       0.002481
 **** Fit       0.002785
 **** Fit       0.002971
 **** Fit       0.003019
 **** Fit       0.002949
 **** Fit       0.002801
 **** Fit       0.002618
 **** Fit       0.000967
 **** Fit       0.001263
 **** Fit       0.001657
 **** Fit       0.002116
 **** Fit       0.002572
 **** Fit       0.002936
 **** Fit       0.003138
 **** Fit       0.003156
 **** Fit       0.003026
 **** Fit       0.002811
 **** Fit       0.002572
 **** Fit       0.000768
 **** Fit       0.001086
 **** Fit       0.001534
 **** Fit       0.002074
 **** Fit       0.002619
 **** Fit       0.003050
 **** Fit       0.003267
 **** Fit       0.003246
 **** Fit       0.003046
 **** Fit       0.002761
 **** Fit       0.002471
 **** Fit       0.002222
 **** Fit       0.000350
 **** Fit       0.000526
 **** Fit       0.000844
 **** Fit       0.001320
 **** Fit       0.001919
 **** Fit       0.002539
 **** Fit       0.003026
 **** Fit       0.003253
 **** Fit       0.003195
 **** Fit       0.002935
 **** Fit       0.002599
 **** Fit       0.002282
 **** Fit       0.002029
 **** Fit       0.000107
 **** Fit       0.000242
 **** Fit       0.000527
 **** Fit       0.000985
 **** Fit       0.001589
 **** Fit       0.002231
 **** Fit       0.002740
 **** Fit       0.002970
 **** Fit       0.002896
 **** Fit       0.002619
 **** Fit       0.002282
 **** Fit       0.001984
 **** Fit       0.001764
 **** Fit       0.001620
 **** Fit      -0.000141
 **** Fit      -0.000067
 **** Fit       0.000149
 **** Fit       0.000533
 **** Fit       0.001067
 **** Fit       0.001652
 **** Fit       0.002128
 **** Fit       0.002351
 **** Fit       0.002300
 **** Fit       0.002073
 **** Fit       0.001805
 **** Fit       0.001584
 **** Fit       0.001438
 **** Fit       0.001360
 **** Fit      -0.000370
 **** Fit      -0.000367
 **** Fit      -0.000246
 **** Fit       0.000019
 **** Fit       0.000419
 **** Fit       0.000877
 **** Fit       0.001267
 **** Fit       0.001475
 **** Fit       0.001484
 **** Fit       0.001367
 **** Fit       0.001228
 **** Fit       0.001129
 **** Fit       0.001088
 **** Fit       0.001093
 **** Fit      -0.000557
 **** Fit      -0.000621
 **** Fit      -0.000597
 **** Fit      -0.000461
 **** Fit      -0.000219
 **** Fit       0.000084
 **** Fit       0.000366
 **** Fit       0.000555
 **** Fit       0.000636
 **** Fit       0.000652
 **** Fit       0.000661
 **** Fit       0.000696
 **** Fit       0.000763
 **** Fit      -0.000798
 **** Fit      -0.000850
 **** Fit      -0.000822
 **** Fit      -0.000712
 **** Fit      -0.000543
 **** Fit      -0.000355
 **** Fit      -0.000185
 **** Fit      -0.000044
 **** Fit       0.000083
 **** Fit       0.000214
 **** Fit       0.000359
 **** Fit       0.000512
 **** Fit      -0.000979
 **** Fit      -0.001017
 **** Fit      -0.000991
 **** Fit      -0.000906
 **** Fit      -0.000777
 **** Fit      -0.000620
 **** Fit      -0.000444
 **** Fit      -0.000252
 **** Fit      -0.000048
 **** Fit       0.000160
 **** Fit      -0.000986
 **** Fit      -0.001049
 **** Fit      -0.001057
 **** Fit      -0.001006
 **** Fit      -0.000902
 **** Fit      -0.000752
 **** Fit      -0.000564
 **** Fit      -0.000350
 **** Fit      -0.000123
 **** Fit      -0.000957
 **** Fit      -0.000909
 **** Fit      -0.000807
 **** Fit      -0.000659
 **** Fit      -0.000475
 **** Fit      -0.000268
 **** Fit      -0.000694
 **** Fit      -0.000586
 **** Fit      -0.000440
 **** Fit      -0.000269
 **** Fit      -0.000084
 **** Fit      -0.000320
 **** Fit      -0.000180
 **** Fit      -0.000025
 **** Fit       0.001900
 **** Fit       0.002164
 **** Fit       0.002381
 **** Fit       0.002522
 **** Fit       0.002576
 **** Fit       0.002550
 **** Fit       0.001535
 **** Fit       0.001850
 **** Fit       0.002155
 **** Fit       0.002402
 **** Fit       0.002553
 **** Fit       0.002596
 **** Fit       0.002544
 **** Fit       0.002429
 **** Fit       0.001095
 **** Fit       0.001402
 **** Fit       0.001752
 **** Fit       0.002095
 **** Fit       0.002371
 **** Fit       0.002532
 **** Fit       0.002562
 **** Fit       0.002484
 **** Fit       0.002342
 **** Fit       0.002178
 **** Fit       0.000893
 **** Fit       0.001207
 **** Fit       0.001576
 **** Fit       0.001943
 **** Fit       0.002239
 **** Fit       0.002405
 **** Fit       0.002427
 **** Fit       0.002334
 **** Fit       0.002178
 **** Fit       0.002008
 **** Fit       0.000436
 **** Fit       0.000642
 **** Fit       0.000938
 **** Fit       0.001297
 **** Fit       0.001663
 **** Fit       0.001961
 **** Fit       0.002129
 **** Fit       0.002152
 **** Fit       0.002064
 **** Fit       0.001919
 **** Fit       0.001769
 **** Fit       0.000195
 **** Fit       0.000356
 **** Fit       0.000604
 **** Fit       0.000920
 **** Fit       0.001252
 **** Fit       0.001529
 **** Fit       0.001694
 **** Fit       0.001733
 **** Fit       0.001675
 **** Fit       0.001573
 **** Fit       0.001470
 **** Fit       0.001392
 **** Fit      -0.000042
 **** Fit       0.000061
 **** Fit       0.000242
 **** Fit       0.000488
 **** Fit       0.000757
 **** Fit       0.000994
 **** Fit       0.001152
 **** Fit       0.001216
 **** Fit       0.001212
 **** Fit       0.001176
 **** Fit       0.001142
 **** Fit      -0.000205
 **** Fit      -0.000097
 **** Fit       0.000069
 **** Fit       0.000265
 **** Fit       0.000453
 **** Fit       0.000600
 **** Fit       0.000695
 **** Fit       0.000750
 **** Fit       0.000788
 **** Fit       0.000828
 **** Fit      -0.000408
 **** Fit      -0.000363
 **** Fit      -0.000268
 **** Fit      -0.000138
 **** Fit       0.000005
 **** Fit       0.000142
 **** Fit       0.000262
 **** Fit       0.000369
 **** Fit       0.000471
 **** Fit       0.000572
 **** Fit      -0.000528
 **** Fit      -0.000481
 **** Fit      -0.000397
 **** Fit      -0.000285
 **** Fit      -0.000157
 **** Fit      -0.000021
 **** Fit       0.000119
 **** Fit       0.000261
 **** Fit      -0.000563
 **** Fit      -0.000503
 **** Fit      -0.000409
 **** Fit      -0.000287
 **** Fit      -0.000145
 **** Fit       0.002032
 **** Fit       0.002149
 **** Fit       0.001533
 **** Fit       0.001762
 **** Fit       0.001949
 **** Fit       0.002071
 **** Fit       0.002117
 **** Fit       0.002096
 **** Fit       0.001126
 **** Fit       0.001368
 **** Fit       0.001604
 **** Fit       0.001799
 **** Fit       0.001925
 **** Fit       0.001970
 **** Fit       0.001947
 **** Fit       0.000911
 **** Fit       0.001143
 **** Fit       0.001374
 **** Fit       0.001567
 **** Fit       0.001693
 **** Fit       0.001743
 **** Fit       0.001728
 **** Fit       0.001671
 **** Fit       0.000661
 **** Fit       0.000866
 **** Fit       0.001076
 **** Fit       0.001257
 **** Fit       0.001382
 **** Fit       0.001441
 **** Fit       0.001444
 **** Fit       0.001414
 **** Fit       0.000397
 **** Fit       0.000563
 **** Fit       0.000740
 **** Fit       0.000900
 **** Fit       0.001021
 **** Fit       0.001093
 **** Fit       0.001124
 **** Fit       0.001130
 **** Fit       0.000272
 **** Fit       0.000410
 **** Fit       0.000546
 **** Fit       0.000661
 **** Fit       0.000748
 **** Fit       0.000809
 **** Fit       0.000030
 **** Fit       0.000134
 **** Fit       0.000246
 **** Fit       0.000355
 **** Fit       0.000453
 -----------------------------------------------------------------
 Leave Link  602 at Fri Apr 28 13:43:23 2017, MaxMem=   33554432 cpu:      95.8
 (Enter /scratch/michal/g09/l9999.exe)

 Test job not archived.
 1\1\GINC-RZEPICHA\SP\RHF\6-31G(d)\C27H46O3\MICHAL\28-Apr-2017\0\\#P HF
 /6-31G* SCF(Conver=6) NoSymm Test Pop=chelpg IOp(6/33=2) GFInput GFPri
 nt\\MEP - Input generated by R.E.D.-III.x MOLECULE\\0,1\C,0,1.75965415
 ,-1.24724266,-0.07472397\H,0,1.87348417,-1.11839094,-1.15808392\C,0,3.
 15107725,-1.31242178,0.56995197\H,0,3.7296653,-2.12716498,0.12406515\H
 ,0,3.01404864,-1.56793833,1.63344704\C,0,3.91299066,-0.00536167,0.4557
 4893\C,0,3.18727647,1.26948071,0.89733936\C,0,1.7465331,1.25349109,0.2
 9787082\H,0,1.82028075,1.45312738,-0.78028083\H,0,1.16275844,2.0749968
 3,0.72646533\C,0,0.97754767,-0.06253036,0.49152414\H,0,0.78168544,-0.2
 4039113,1.55933996\H,0,0.,0.,0.\C,0,5.172568,0.,0.\H,0,5.63858901,-0.9
 3301042,-0.3089521\C,0,6.05814467,1.20734837,-0.09383514\H,0,6.3127781
 6,1.4087902,-1.14600332\C,0,5.48129601,2.47305043,0.56135929\H,0,5.698
 32567,2.4015342,1.63530649\C,0,3.94251853,2.52693385,0.3454644\H,0,3.7
 9322985,2.5047341,-0.74639416\C,0,3.35474982,3.86504427,0.84932053\H,0
 ,3.38483374,3.89265937,1.94393702\H,0,2.29602241,3.92538715,0.57508573
 \C,0,4.06962181,5.11572677,0.30225661\H,0,3.91350648,5.17912344,-0.784
 38759\H,0,3.59792922,6.00311475,0.73615197\C,0,5.58496792,5.08162506,0
 .58244533\C,0,6.12014769,3.74906285,-0.0175546\H,0,5.81759015,3.773200
 98,-1.07854498\C,0,7.64906951,3.91293117,0.\H,0,8.14031538,3.28512373,
 -0.74999426\H,0,8.06063779,3.61758605,0.9703019\C,0,7.86357124,5.42760
 651,-0.26946479\H,0,8.52525404,5.86342983,0.48831741\H,0,8.34812179,5.
 60150071,-1.23564\C,0,6.45751883,6.10895271,-0.21946813\H,0,6.045177,6
 .11267463,-1.23924929\C,0,5.86315112,5.20188668,2.09798505\H,0,5.42633
 845,4.37830665,2.66834529\H,0,6.934622,5.21318401,2.31883814\H,0,5.437
 90035,6.12968459,2.49500019\C,0,6.52960881,7.58171725,0.25535362\H,0,6
 .94590572,7.57576033,1.27327345\C,0,5.15887073,8.28077701,0.32687429\H
 ,0,4.6006062,8.18382562,-0.61099209\H,0,5.28566276,9.35107729,0.528331
 7\H,0,4.5327611,7.87419533,1.12502657\C,0,3.10686626,1.28061696,2.4473
 7432\H,0,2.46709866,2.0920717,2.80816432\H,0,2.69008116,0.3464313,2.83
 272967\H,0,4.09847428,1.39744837,2.89457893\O,0,7.30352915,0.95873774,
 0.60625037\O,0,8.03647313,-0.06180953,-0.13637065\H,0,8.80057674,0.458
 01389,-0.43548727\O,0,1.05265878,-2.48360735,0.05769189\H,0,0.92144826
 ,-2.66579706,0.99884919\C,0,7.52118206,8.42679963,-0.59073087\H,0,7.59
 086581,9.4141487,-0.11575142\H,0,8.5257187,7.99071803,-0.51815975\C,0,
 7.17109815,8.60465527,-2.07772713\H,0,7.06340594,7.61894098,-2.5479553
 2\H,0,6.19352979,9.09153442,-2.17879944\C,0,8.22708565,9.38845498,-2.8
 8062818\H,0,7.94925972,9.36144866,-3.94484149\H,0,9.18689085,8.8569124
 9,-2.80539983\C,0,8.45516106,10.86270657,-2.48346705\H,0,8.7469405,10.
 89450498,-1.42405599\C,0,9.61630864,11.45634367,-3.2973359\H,0,9.38256
 266,11.45599414,-4.36983804\H,0,9.82052778,12.49203474,-3.00265459\H,0
 ,10.53803217,10.87983482,-3.15777957\C,0,7.18881514,11.71761608,-2.649
 98165\H,0,6.84249569,11.70121858,-3.69168524\H,0,7.38401806,12.7622173
 4,-2.38200066\H,0,6.36568378,11.36496527,-2.02019233\\Version=EM64L-G0
 9RevC.01\HF=-1273.6826864\RMSD=5.510e-07\Dipole=0.0111165,1.0460732,0.
 1345537\Quadrupole=0.495497,-1.7176685,1.2221715,7.7552254,-6.478603,-
 1.9740967\PG=C01 [X(C27H46O3)]\\@


 ON INDUCTION, OR "WHY DO YOU BELIEVE THE SUN WILL RISE TOMORROW?":

 ... THE FARMER WHO HAS FED THE CHICKEN EVERY DAY THROUGHOUT ITS
 LIFE AT LAST WRINGS ITS NECK INSTEAD, SHOWING THAT MORE REFINED VIEWS
 AS TO THE UNIFORMITY OF NATURE WOULD HAVE BEEN USEFUL TO THE CHICKEN.

                               -- BERTRAND RUSSELL
 Job cpu time:  0 days  0 hours 39 minutes  9.1 seconds.
 File lengths (MBytes):  RWF=    159 Int=      0 D2E=      0 Chk=     11 Scr=      1
 Normal termination of Gaussian 09 at Fri Apr 28 13:43:23 2017.
