 Entering Gaussian System, Link 0=/scratch/michal/g09//g09
 Input=JOB2-gau_m1-12-2.com
 Output=JOB2-gau_m1-12-2.log
 Initial command:
 /scratch/michal/g09/l1.exe /scratch/michal/gauss_scratch/Gau-3648.inp -scrdir=/scratch/michal/gauss_scratch/
 Entering Link 1 = /scratch/michal/g09/l1.exe PID=      3650.
  
 Copyright (c) 1988,1990,1992,1993,1995,1998,2003,2009,2011,
            Gaussian, Inc.  All Rights Reserved.
  
 This is part of the Gaussian(R) 09 program.  It is based on
 the Gaussian(R) 03 system (copyright 2003, Gaussian, Inc.),
 the Gaussian(R) 98 system (copyright 1998, Gaussian, Inc.),
 the Gaussian(R) 94 system (copyright 1995, Gaussian, Inc.),
 the Gaussian 92(TM) system (copyright 1992, Gaussian, Inc.),
 the Gaussian 90(TM) system (copyright 1990, Gaussian, Inc.),
 the Gaussian 88(TM) system (copyright 1988, Gaussian, Inc.),
 the Gaussian 86(TM) system (copyright 1986, Carnegie Mellon
 University), and the Gaussian 82(TM) system (copyright 1983,
 Carnegie Mellon University). Gaussian is a federally registered
 trademark of Gaussian, Inc.
  
 This software contains proprietary and confidential information,
 including trade secrets, belonging to Gaussian, Inc.
  
 This software is provided under written license and may be
 used, copied, transmitted, or stored only in accord with that
 written license.
  
 The following legend is applicable only to US Government
 contracts under FAR:
  
                    RESTRICTED RIGHTS LEGEND
  
 Use, reproduction and disclosure by the US Government is
 subject to restrictions as set forth in subparagraphs (a)
 and (c) of the Commercial Computer Software - Restricted
 Rights clause in FAR 52.227-19.
  
 Gaussian, Inc.
 340 Quinnipiac St., Bldg. 40, Wallingford CT 06492
  
  
 ---------------------------------------------------------------
 Warning -- This program may not be used in any manner that
 competes with the business of Gaussian, Inc. or will provide
 assistance to any competitor of Gaussian, Inc.  The licensee
 of this program is prohibited from giving any competitor of
 Gaussian, Inc. access to this program.  By using this program,
 the user acknowledges that Gaussian, Inc. is engaged in the
 business of creating and licensing software in the field of
 computational chemistry and represents and warrants to the
 licensee that it is not a competitor of Gaussian, Inc. and that
 it will not use this program in any manner prohibited above.
 ---------------------------------------------------------------
  

 Cite this work as:
 Gaussian 09, Revision C.01,
 M. J. Frisch, G. W. Trucks, H. B. Schlegel, G. E. Scuseria, 
 M. A. Robb, J. R. Cheeseman, G. Scalmani, V. Barone, B. Mennucci, 
 G. A. Petersson, H. Nakatsuji, M. Caricato, X. Li, H. P. Hratchian, 
 A. F. Izmaylov, J. Bloino, G. Zheng, J. L. Sonnenberg, M. Hada, 
 M. Ehara, K. Toyota, R. Fukuda, J. Hasegawa, M. Ishida, T. Nakajima, 
 Y. Honda, O. Kitao, H. Nakai, T. Vreven, J. A. Montgomery, Jr., 
 J. E. Peralta, F. Ogliaro, M. Bearpark, J. J. Heyd, E. Brothers, 
 K. N. Kudin, V. N. Staroverov, T. Keith, R. Kobayashi, J. Normand, 
 K. Raghavachari, A. Rendell, J. C. Burant, S. S. Iyengar, J. Tomasi, 
 M. Cossi, N. Rega, J. M. Millam, M. Klene, J. E. Knox, J. B. Cross, 
 V. Bakken, C. Adamo, J. Jaramillo, R. Gomperts, R. E. Stratmann, 
 O. Yazyev, A. J. Austin, R. Cammi, C. Pomelli, J. W. Ochterski, 
 R. L. Martin, K. Morokuma, V. G. Zakrzewski, G. A. Voth, 
 P. Salvador, J. J. Dannenberg, S. Dapprich, A. D. Daniels, 
 O. Farkas, J. B. Foresman, J. V. Ortiz, J. Cioslowski, 
 and D. J. Fox, Gaussian, Inc., Wallingford CT, 2010.
 
 ******************************************
 Gaussian 09:  EM64L-G09RevC.01 23-Sep-2011
                28-Apr-2017 
 ******************************************
 %Mem=256MB
 %NProc=48
 Will use up to   48 processors via shared memory.
 ----------------------------------------------------------------------
 #P HF/6-31G* SCF(Conver=6) NoSymm Test Pop=chelpg IOp(6/33=2) GFInput 
 GFPrint
 ----------------------------------------------------------------------
 1/38=1/1;
 2/12=2,15=1,17=6,18=5,40=1/2;
 3/5=1,6=6,7=1,11=9,16=1,24=110,25=1,30=1/1,2,3;
 4//1;
 5/5=2,6=6,38=5/2;
 6/7=2,8=2,9=2,10=2,15=8,20=3,28=1,33=2/1,2;
 99/5=1,9=1/99;
 Leave Link    1 at Fri Apr 28 12:59:16 2017, MaxMem=   33554432 cpu:       5.0
 (Enter /scratch/michal/g09/l101.exe)
 ----------------------------------------------
 MEP - Input generated by R.E.D.-III.x MOLECULE
 ----------------------------------------------
 Charge =  0 Multiplicity = 1
 Symbolic Z-Matrix:
 C                     7.52149   2.21448   0.06269 
 H                     7.35991   2.18192   1.14717 
 C                     6.82723   1.00733  -0.58286 
 H                     7.20906   0.08042  -0.14419 
 H                     7.10855   0.99147  -1.64855 
 C                     5.31619   1.06259  -0.45751 
 C                     4.62471   2.35958  -0.88945 
 C                     5.41298   3.56507  -0.28843 
 H                     5.21193   3.60341   0.79129 
 H                     5.02858   4.50021  -0.70925 
 C                     6.93489   3.51189  -0.49274 
 H                     7.18248   3.58785  -1.56187 
 H                     7.40829   4.36874   0. 
 C                     4.64107   0.        0. 
 H                     5.18213  -0.89376   0.30254 
 C                     3.14791  -0.10252   0.10371 
 H                     2.84788  -0.20953   1.15776 
 C                     2.38367   1.0618   -0.54777 
 H                     2.32878   0.84163  -1.62176 
 C                     3.16098   2.39179  -0.33017 
 H                     3.26475   2.50159   0.76171 
 C                     2.34417   3.60875  -0.82452 
 H                     2.29521   3.60225  -1.91864 
 H                     2.86466   4.53267  -0.55054 
 C                     0.91064   3.67251  -0.26337 
 H                     0.95358   3.83334   0.82312 
 H                     0.40436   4.54602  -0.69052 
 C                     0.12661   2.37781  -0.54782 
 C                     0.96499   1.20048   0.03496 
 H                     1.11198   1.45163   1.09901 
 C                     0.        0.        0. 
 H                     0.26405  -0.76229   0.73956 
 H                     0.02878  -0.49166  -0.97755 
 C                    -1.39357   0.63184   0.27673 
 H                    -2.11338   0.328    -0.48994 
 H                    -1.81033   0.3022    1.23493 
 C                    -1.18881   2.17936   0.2824 
 H                    -0.90003   2.43938   1.30983 
 C                    -0.10519   2.21917  -2.06844 
 H                     0.82909   2.05337  -2.61074 
 H                    -0.7645    1.37939  -2.30179 
 H                    -0.56069   3.12183  -2.4854 
 C                    -2.50765   2.96673   0.03086 
 H                    -3.20808   2.5325    0.76336 
 C                    -3.17348   2.78226  -1.34804 
 H                    -2.67863   3.37163  -2.12543 
 H                    -4.21479   3.12057  -1.30073 
 H                    -3.1862    1.73931  -1.6773 
 C                     4.64968   2.44115  -2.43931 
 H                     4.30511   3.41784  -2.79327 
 H                     5.65955   2.29454  -2.83112 
 H                     4.01713   1.66877  -2.88683 
 O                     2.68763  -1.28792  -0.59316 
 O                     3.16383  -2.4527    0.1463 
 H                     2.31813  -2.82169   0.44991 
 O                     8.94324   2.15099  -0.08072 
 H                     9.1602    2.1685   -1.02349 
 C                    -2.43683   4.47866   0.35823 
 H                    -1.70455   4.96751  -0.2983 
 H                    -3.40899   4.9112    0.08817 
 C                    -2.13089   4.83581   1.82099 
 H                    -2.8657    4.34427   2.47331 
 H                    -1.15608   4.42468   2.10811 
 C                    -2.09776   6.34838   2.11228 
 H                    -1.32299   6.80755   1.48122 
 H                    -1.76728   6.49622   3.15115 
 C                    -3.41352   7.13114   1.91378 
 H                    -3.73581   7.00886   0.86991 
 C                    -4.54423   6.61809   2.81951 
 H                    -4.26134   6.69582   3.87746 
 H                    -5.45746   7.2068    2.67639 
 H                    -4.79315   5.5712    2.61772 
 C                    -3.17551   8.63189   2.1468 
 H                    -2.85632   8.82171   3.17974 
 H                    -4.08837   9.21195   1.96973 
 H                    -2.39638   9.02109   1.48127 
 
 NAtoms=     76 NQM=        0 NQMF=       0 NMMI=     76 NMMIF=      0
                NMic=       0 NMicF=      0.
                    Isotopes and Nuclear Properties:
 (Nuclear quadrupole moments (NQMom) in fm**2, nuclear magnetic moments (NMagM)
  in nuclear magnetons)

  Atom         1           2           3           4           5           6           7           8           9          10
 IAtWgt=          12           1          12           1           1          12          12          12           1           1
 AtmWgt=  12.0000000   1.0078250  12.0000000   1.0078250   1.0078250  12.0000000  12.0000000  12.0000000   1.0078250   1.0078250
 NucSpn=           0           1           0           1           1           0           0           0           1           1
 AtZEff=   0.0000000   0.0000000   0.0000000   0.0000000   0.0000000   0.0000000   0.0000000   0.0000000   0.0000000   0.0000000
 NQMom=    0.0000000   0.0000000   0.0000000   0.0000000   0.0000000   0.0000000   0.0000000   0.0000000   0.0000000   0.0000000
 NMagM=    0.0000000   2.7928460   0.0000000   2.7928460   2.7928460   0.0000000   0.0000000   0.0000000   2.7928460   2.7928460

  Atom        11          12          13          14          15          16          17          18          19          20
 IAtWgt=          12           1           1          12           1          12           1          12           1          12
 AtmWgt=  12.0000000   1.0078250   1.0078250  12.0000000   1.0078250  12.0000000   1.0078250  12.0000000   1.0078250  12.0000000
 NucSpn=           0           1           1           0           1           0           1           0           1           0
 AtZEff=   0.0000000   0.0000000   0.0000000   0.0000000   0.0000000   0.0000000   0.0000000   0.0000000   0.0000000   0.0000000
 NQMom=    0.0000000   0.0000000   0.0000000   0.0000000   0.0000000   0.0000000   0.0000000   0.0000000   0.0000000   0.0000000
 NMagM=    0.0000000   2.7928460   2.7928460   0.0000000   2.7928460   0.0000000   2.7928460   0.0000000   2.7928460   0.0000000

  Atom        21          22          23          24          25          26          27          28          29          30
 IAtWgt=           1          12           1           1          12           1           1          12          12           1
 AtmWgt=   1.0078250  12.0000000   1.0078250   1.0078250  12.0000000   1.0078250   1.0078250  12.0000000  12.0000000   1.0078250
 NucSpn=           1           0           1           1           0           1           1           0           0           1
 AtZEff=   0.0000000   0.0000000   0.0000000   0.0000000   0.0000000   0.0000000   0.0000000   0.0000000   0.0000000   0.0000000
 NQMom=    0.0000000   0.0000000   0.0000000   0.0000000   0.0000000   0.0000000   0.0000000   0.0000000   0.0000000   0.0000000
 NMagM=    2.7928460   0.0000000   2.7928460   2.7928460   0.0000000   2.7928460   2.7928460   0.0000000   0.0000000   2.7928460

  Atom        31          32          33          34          35          36          37          38          39          40
 IAtWgt=          12           1           1          12           1           1          12           1          12           1
 AtmWgt=  12.0000000   1.0078250   1.0078250  12.0000000   1.0078250   1.0078250  12.0000000   1.0078250  12.0000000   1.0078250
 NucSpn=           0           1           1           0           1           1           0           1           0           1
 AtZEff=   0.0000000   0.0000000   0.0000000   0.0000000   0.0000000   0.0000000   0.0000000   0.0000000   0.0000000   0.0000000
 NQMom=    0.0000000   0.0000000   0.0000000   0.0000000   0.0000000   0.0000000   0.0000000   0.0000000   0.0000000   0.0000000
 NMagM=    0.0000000   2.7928460   2.7928460   0.0000000   2.7928460   2.7928460   0.0000000   2.7928460   0.0000000   2.7928460

  Atom        41          42          43          44          45          46          47          48          49          50
 IAtWgt=           1           1          12           1          12           1           1           1          12           1
 AtmWgt=   1.0078250   1.0078250  12.0000000   1.0078250  12.0000000   1.0078250   1.0078250   1.0078250  12.0000000   1.0078250
 NucSpn=           1           1           0           1           0           1           1           1           0           1
 AtZEff=   0.0000000   0.0000000   0.0000000   0.0000000   0.0000000   0.0000000   0.0000000   0.0000000   0.0000000   0.0000000
 NQMom=    0.0000000   0.0000000   0.0000000   0.0000000   0.0000000   0.0000000   0.0000000   0.0000000   0.0000000   0.0000000
 NMagM=    2.7928460   2.7928460   0.0000000   2.7928460   0.0000000   2.7928460   2.7928460   2.7928460   0.0000000   2.7928460

  Atom        51          52          53          54          55          56          57          58          59          60
 IAtWgt=           1           1          16          16           1          16           1          12           1           1
 AtmWgt=   1.0078250   1.0078250  15.9949146  15.9949146   1.0078250  15.9949146   1.0078250  12.0000000   1.0078250   1.0078250
 NucSpn=           1           1           0           0           1           0           1           0           1           1
 AtZEff=   0.0000000   0.0000000   0.0000000   0.0000000   0.0000000   0.0000000   0.0000000   0.0000000   0.0000000   0.0000000
 NQMom=    0.0000000   0.0000000   0.0000000   0.0000000   0.0000000   0.0000000   0.0000000   0.0000000   0.0000000   0.0000000
 NMagM=    2.7928460   2.7928460   0.0000000   0.0000000   2.7928460   0.0000000   2.7928460   0.0000000   2.7928460   2.7928460

  Atom        61          62          63          64          65          66          67          68          69          70
 IAtWgt=          12           1           1          12           1           1          12           1          12           1
 AtmWgt=  12.0000000   1.0078250   1.0078250  12.0000000   1.0078250   1.0078250  12.0000000   1.0078250  12.0000000   1.0078250
 NucSpn=           0           1           1           0           1           1           0           1           0           1
 AtZEff=   0.0000000   0.0000000   0.0000000   0.0000000   0.0000000   0.0000000   0.0000000   0.0000000   0.0000000   0.0000000
 NQMom=    0.0000000   0.0000000   0.0000000   0.0000000   0.0000000   0.0000000   0.0000000   0.0000000   0.0000000   0.0000000
 NMagM=    0.0000000   2.7928460   2.7928460   0.0000000   2.7928460   2.7928460   0.0000000   2.7928460   0.0000000   2.7928460

  Atom        71          72          73          74          75          76
 IAtWgt=           1           1          12           1           1           1
 AtmWgt=   1.0078250   1.0078250  12.0000000   1.0078250   1.0078250   1.0078250
 NucSpn=           1           1           0           1           1           1
 AtZEff=   0.0000000   0.0000000   0.0000000   0.0000000   0.0000000   0.0000000
 NQMom=    0.0000000   0.0000000   0.0000000   0.0000000   0.0000000   0.0000000
 NMagM=    2.7928460   2.7928460   0.0000000   2.7928460   2.7928460   2.7928460
 Leave Link  101 at Fri Apr 28 12:59:16 2017, MaxMem=   33554432 cpu:      12.7
 (Enter /scratch/michal/g09/l202.exe)
 Symmetry turned off by external request.
 Stoichiometry    C27H46O3
 Framework group  C1[X(C27H46O3)]
 Deg. of freedom   222
 Full point group                 C1      NOp   1
                          Input orientation:                          
 ---------------------------------------------------------------------
 Center     Atomic      Atomic             Coordinates (Angstroms)
 Number     Number       Type             X           Y           Z
 ---------------------------------------------------------------------
      1          6           0        7.521487    2.214480    0.062695
      2          1           0        7.359914    2.181919    1.147168
      3          6           0        6.827233    1.007326   -0.582855
      4          1           0        7.209060    0.080423   -0.144193
      5          1           0        7.108546    0.991469   -1.648546
      6          6           0        5.316192    1.062588   -0.457515
      7          6           0        4.624708    2.359576   -0.889455
      8          6           0        5.412978    3.565068   -0.288427
      9          1           0        5.211931    3.603409    0.791287
     10          1           0        5.028575    4.500210   -0.709245
     11          6           0        6.934889    3.511885   -0.492739
     12          1           0        7.182479    3.587854   -1.561867
     13          1           0        7.408288    4.368744    0.000000
     14          6           0        4.641071    0.000000    0.000000
     15          1           0        5.182134   -0.893765    0.302545
     16          6           0        3.147914   -0.102518    0.103715
     17          1           0        2.847876   -0.209529    1.157759
     18          6           0        2.383670    1.061802   -0.547767
     19          1           0        2.328780    0.841635   -1.621758
     20          6           0        3.160984    2.391788   -0.330166
     21          1           0        3.264747    2.501591    0.761707
     22          6           0        2.344172    3.608754   -0.824517
     23          1           0        2.295214    3.602249   -1.918636
     24          1           0        2.864663    4.532673   -0.550537
     25          6           0        0.910641    3.672511   -0.263366
     26          1           0        0.953582    3.833342    0.823120
     27          1           0        0.404357    4.546015   -0.690521
     28          6           0        0.126614    2.377813   -0.547817
     29          6           0        0.964993    1.200476    0.034963
     30          1           0        1.111980    1.451629    1.099007
     31          6           0        0.000000    0.000000    0.000000
     32          1           0        0.264054   -0.762288    0.739559
     33          1           0        0.028781   -0.491660   -0.977549
     34          6           0       -1.393573    0.631844    0.276726
     35          1           0       -2.113381    0.327998   -0.489940
     36          1           0       -1.810330    0.302199    1.234928
     37          6           0       -1.188808    2.179356    0.282401
     38          1           0       -0.900031    2.439382    1.309827
     39          6           0       -0.105192    2.219170   -2.068439
     40          1           0        0.829085    2.053373   -2.610739
     41          1           0       -0.764502    1.379393   -2.301785
     42          1           0       -0.560693    3.121832   -2.485404
     43          6           0       -2.507655    2.966728    0.030862
     44          1           0       -3.208082    2.532497    0.763362
     45          6           0       -3.173482    2.782255   -1.348039
     46          1           0       -2.678631    3.371630   -2.125435
     47          1           0       -4.214790    3.120571   -1.300732
     48          1           0       -3.186198    1.739310   -1.677304
     49          6           0        4.649679    2.441147   -2.439313
     50          1           0        4.305112    3.417842   -2.793270
     51          1           0        5.659545    2.294545   -2.831124
     52          1           0        4.017133    1.668765   -2.886828
     53          8           0        2.687634   -1.287921   -0.593161
     54          8           0        3.163827   -2.452704    0.146301
     55          1           0        2.318131   -2.821692    0.449912
     56          8           0        8.943240    2.150986   -0.080723
     57          1           0        9.160197    2.168496   -1.023489
     58          6           0       -2.436832    4.478655    0.358228
     59          1           0       -1.704546    4.967505   -0.298304
     60          1           0       -3.408988    4.911200    0.088165
     61          6           0       -2.130892    4.835813    1.820989
     62          1           0       -2.865696    4.344274    2.473311
     63          1           0       -1.156078    4.424675    2.108113
     64          6           0       -2.097756    6.348378    2.112278
     65          1           0       -1.322994    6.807546    1.481215
     66          1           0       -1.767283    6.496215    3.151148
     67          6           0       -3.413517    7.131137    1.913782
     68          1           0       -3.735809    7.008861    0.869910
     69          6           0       -4.544232    6.618094    2.819510
     70          1           0       -4.261345    6.695823    3.877457
     71          1           0       -5.457464    7.206798    2.676393
     72          1           0       -4.793154    5.571202    2.617718
     73          6           0       -3.175515    8.631886    2.146804
     74          1           0       -2.856324    8.821707    3.179739
     75          1           0       -4.088375    9.211949    1.969728
     76          1           0       -2.396375    9.021088    1.481273
 ---------------------------------------------------------------------
 Rotational constants (GHZ):      0.2337581      0.0690852      0.0580492
 Leave Link  202 at Fri Apr 28 12:59:16 2017, MaxMem=   33554432 cpu:       0.1
 (Enter /scratch/michal/g09/l301.exe)
 Standard basis: 6-31G(d) (6D, 7F)
 Ernie: Thresh=  0.10000D-02 Tol=  0.10000D-05 Strict=F.
 AO basis set in the form of general basis input (Overlap normalization):
      1 0
 S   6 1.00       0.000000000000
      0.3047524880D+04  0.1834737132D-02
      0.4573695180D+03  0.1403732281D-01
      0.1039486850D+03  0.6884262226D-01
      0.2921015530D+02  0.2321844432D+00
      0.9286662960D+01  0.4679413484D+00
      0.3163926960D+01  0.3623119853D+00
 SP   3 1.00       0.000000000000
      0.7868272350D+01 -0.1193324198D+00  0.6899906659D-01
      0.1881288540D+01 -0.1608541517D+00  0.3164239610D+00
      0.5442492580D+00  0.1143456438D+01  0.7443082909D+00
 SP   1 1.00       0.000000000000
      0.1687144782D+00  0.1000000000D+01  0.1000000000D+01
 D   1 1.00       0.000000000000
      0.8000000000D+00  0.1000000000D+01
 ****
      2 0
 S   3 1.00       0.000000000000
      0.1873113696D+02  0.3349460434D-01
      0.2825394365D+01  0.2347269535D+00
      0.6401216923D+00  0.8137573261D+00
 S   1 1.00       0.000000000000
      0.1612777588D+00  0.1000000000D+01
 ****
      3 0
 S   6 1.00       0.000000000000
      0.3047524880D+04  0.1834737132D-02
      0.4573695180D+03  0.1403732281D-01
      0.1039486850D+03  0.6884262226D-01
      0.2921015530D+02  0.2321844432D+00
      0.9286662960D+01  0.4679413484D+00
      0.3163926960D+01  0.3623119853D+00
 SP   3 1.00       0.000000000000
      0.7868272350D+01 -0.1193324198D+00  0.6899906659D-01
      0.1881288540D+01 -0.1608541517D+00  0.3164239610D+00
      0.5442492580D+00  0.1143456438D+01  0.7443082909D+00
 SP   1 1.00       0.000000000000
      0.1687144782D+00  0.1000000000D+01  0.1000000000D+01
 D   1 1.00       0.000000000000
      0.8000000000D+00  0.1000000000D+01
 ****
      4 0
 S   3 1.00       0.000000000000
      0.1873113696D+02  0.3349460434D-01
      0.2825394365D+01  0.2347269535D+00
      0.6401216923D+00  0.8137573261D+00
 S   1 1.00       0.000000000000
      0.1612777588D+00  0.1000000000D+01
 ****
      5 0
 S   3 1.00       0.000000000000
      0.1873113696D+02  0.3349460434D-01
      0.2825394365D+01  0.2347269535D+00
      0.6401216923D+00  0.8137573261D+00
 S   1 1.00       0.000000000000
      0.1612777588D+00  0.1000000000D+01
 ****
      6 0
 S   6 1.00       0.000000000000
      0.3047524880D+04  0.1834737132D-02
      0.4573695180D+03  0.1403732281D-01
      0.1039486850D+03  0.6884262226D-01
      0.2921015530D+02  0.2321844432D+00
      0.9286662960D+01  0.4679413484D+00
      0.3163926960D+01  0.3623119853D+00
 SP   3 1.00       0.000000000000
      0.7868272350D+01 -0.1193324198D+00  0.6899906659D-01
      0.1881288540D+01 -0.1608541517D+00  0.3164239610D+00
      0.5442492580D+00  0.1143456438D+01  0.7443082909D+00
 SP   1 1.00       0.000000000000
      0.1687144782D+00  0.1000000000D+01  0.1000000000D+01
 D   1 1.00       0.000000000000
      0.8000000000D+00  0.1000000000D+01
 ****
      7 0
 S   6 1.00       0.000000000000
      0.3047524880D+04  0.1834737132D-02
      0.4573695180D+03  0.1403732281D-01
      0.1039486850D+03  0.6884262226D-01
      0.2921015530D+02  0.2321844432D+00
      0.9286662960D+01  0.4679413484D+00
      0.3163926960D+01  0.3623119853D+00
 SP   3 1.00       0.000000000000
      0.7868272350D+01 -0.1193324198D+00  0.6899906659D-01
      0.1881288540D+01 -0.1608541517D+00  0.3164239610D+00
      0.5442492580D+00  0.1143456438D+01  0.7443082909D+00
 SP   1 1.00       0.000000000000
      0.1687144782D+00  0.1000000000D+01  0.1000000000D+01
 D   1 1.00       0.000000000000
      0.8000000000D+00  0.1000000000D+01
 ****
      8 0
 S   6 1.00       0.000000000000
      0.3047524880D+04  0.1834737132D-02
      0.4573695180D+03  0.1403732281D-01
      0.1039486850D+03  0.6884262226D-01
      0.2921015530D+02  0.2321844432D+00
      0.9286662960D+01  0.4679413484D+00
      0.3163926960D+01  0.3623119853D+00
 SP   3 1.00       0.000000000000
      0.7868272350D+01 -0.1193324198D+00  0.6899906659D-01
      0.1881288540D+01 -0.1608541517D+00  0.3164239610D+00
      0.5442492580D+00  0.1143456438D+01  0.7443082909D+00
 SP   1 1.00       0.000000000000
      0.1687144782D+00  0.1000000000D+01  0.1000000000D+01
 D   1 1.00       0.000000000000
      0.8000000000D+00  0.1000000000D+01
 ****
      9 0
 S   3 1.00       0.000000000000
      0.1873113696D+02  0.3349460434D-01
      0.2825394365D+01  0.2347269535D+00
      0.6401216923D+00  0.8137573261D+00
 S   1 1.00       0.000000000000
      0.1612777588D+00  0.1000000000D+01
 ****
     10 0
 S   3 1.00       0.000000000000
      0.1873113696D+02  0.3349460434D-01
      0.2825394365D+01  0.2347269535D+00
      0.6401216923D+00  0.8137573261D+00
 S   1 1.00       0.000000000000
      0.1612777588D+00  0.1000000000D+01
 ****
     11 0
 S   6 1.00       0.000000000000
      0.3047524880D+04  0.1834737132D-02
      0.4573695180D+03  0.1403732281D-01
      0.1039486850D+03  0.6884262226D-01
      0.2921015530D+02  0.2321844432D+00
      0.9286662960D+01  0.4679413484D+00
      0.3163926960D+01  0.3623119853D+00
 SP   3 1.00       0.000000000000
      0.7868272350D+01 -0.1193324198D+00  0.6899906659D-01
      0.1881288540D+01 -0.1608541517D+00  0.3164239610D+00
      0.5442492580D+00  0.1143456438D+01  0.7443082909D+00
 SP   1 1.00       0.000000000000
      0.1687144782D+00  0.1000000000D+01  0.1000000000D+01
 D   1 1.00       0.000000000000
      0.8000000000D+00  0.1000000000D+01
 ****
     12 0
 S   3 1.00       0.000000000000
      0.1873113696D+02  0.3349460434D-01
      0.2825394365D+01  0.2347269535D+00
      0.6401216923D+00  0.8137573261D+00
 S   1 1.00       0.000000000000
      0.1612777588D+00  0.1000000000D+01
 ****
     13 0
 S   3 1.00       0.000000000000
      0.1873113696D+02  0.3349460434D-01
      0.2825394365D+01  0.2347269535D+00
      0.6401216923D+00  0.8137573261D+00
 S   1 1.00       0.000000000000
      0.1612777588D+00  0.1000000000D+01
 ****
     14 0
 S   6 1.00       0.000000000000
      0.3047524880D+04  0.1834737132D-02
      0.4573695180D+03  0.1403732281D-01
      0.1039486850D+03  0.6884262226D-01
      0.2921015530D+02  0.2321844432D+00
      0.9286662960D+01  0.4679413484D+00
      0.3163926960D+01  0.3623119853D+00
 SP   3 1.00       0.000000000000
      0.7868272350D+01 -0.1193324198D+00  0.6899906659D-01
      0.1881288540D+01 -0.1608541517D+00  0.3164239610D+00
      0.5442492580D+00  0.1143456438D+01  0.7443082909D+00
 SP   1 1.00       0.000000000000
      0.1687144782D+00  0.1000000000D+01  0.1000000000D+01
 D   1 1.00       0.000000000000
      0.8000000000D+00  0.1000000000D+01
 ****
     15 0
 S   3 1.00       0.000000000000
      0.1873113696D+02  0.3349460434D-01
      0.2825394365D+01  0.2347269535D+00
      0.6401216923D+00  0.8137573261D+00
 S   1 1.00       0.000000000000
      0.1612777588D+00  0.1000000000D+01
 ****
     16 0
 S   6 1.00       0.000000000000
      0.3047524880D+04  0.1834737132D-02
      0.4573695180D+03  0.1403732281D-01
      0.1039486850D+03  0.6884262226D-01
      0.2921015530D+02  0.2321844432D+00
      0.9286662960D+01  0.4679413484D+00
      0.3163926960D+01  0.3623119853D+00
 SP   3 1.00       0.000000000000
      0.7868272350D+01 -0.1193324198D+00  0.6899906659D-01
      0.1881288540D+01 -0.1608541517D+00  0.3164239610D+00
      0.5442492580D+00  0.1143456438D+01  0.7443082909D+00
 SP   1 1.00       0.000000000000
      0.1687144782D+00  0.1000000000D+01  0.1000000000D+01
 D   1 1.00       0.000000000000
      0.8000000000D+00  0.1000000000D+01
 ****
     17 0
 S   3 1.00       0.000000000000
      0.1873113696D+02  0.3349460434D-01
      0.2825394365D+01  0.2347269535D+00
      0.6401216923D+00  0.8137573261D+00
 S   1 1.00       0.000000000000
      0.1612777588D+00  0.1000000000D+01
 ****
     18 0
 S   6 1.00       0.000000000000
      0.3047524880D+04  0.1834737132D-02
      0.4573695180D+03  0.1403732281D-01
      0.1039486850D+03  0.6884262226D-01
      0.2921015530D+02  0.2321844432D+00
      0.9286662960D+01  0.4679413484D+00
      0.3163926960D+01  0.3623119853D+00
 SP   3 1.00       0.000000000000
      0.7868272350D+01 -0.1193324198D+00  0.6899906659D-01
      0.1881288540D+01 -0.1608541517D+00  0.3164239610D+00
      0.5442492580D+00  0.1143456438D+01  0.7443082909D+00
 SP   1 1.00       0.000000000000
      0.1687144782D+00  0.1000000000D+01  0.1000000000D+01
 D   1 1.00       0.000000000000
      0.8000000000D+00  0.1000000000D+01
 ****
     19 0
 S   3 1.00       0.000000000000
      0.1873113696D+02  0.3349460434D-01
      0.2825394365D+01  0.2347269535D+00
      0.6401216923D+00  0.8137573261D+00
 S   1 1.00       0.000000000000
      0.1612777588D+00  0.1000000000D+01
 ****
     20 0
 S   6 1.00       0.000000000000
      0.3047524880D+04  0.1834737132D-02
      0.4573695180D+03  0.1403732281D-01
      0.1039486850D+03  0.6884262226D-01
      0.2921015530D+02  0.2321844432D+00
      0.9286662960D+01  0.4679413484D+00
      0.3163926960D+01  0.3623119853D+00
 SP   3 1.00       0.000000000000
      0.7868272350D+01 -0.1193324198D+00  0.6899906659D-01
      0.1881288540D+01 -0.1608541517D+00  0.3164239610D+00
      0.5442492580D+00  0.1143456438D+01  0.7443082909D+00
 SP   1 1.00       0.000000000000
      0.1687144782D+00  0.1000000000D+01  0.1000000000D+01
 D   1 1.00       0.000000000000
      0.8000000000D+00  0.1000000000D+01
 ****
     21 0
 S   3 1.00       0.000000000000
      0.1873113696D+02  0.3349460434D-01
      0.2825394365D+01  0.2347269535D+00
      0.6401216923D+00  0.8137573261D+00
 S   1 1.00       0.000000000000
      0.1612777588D+00  0.1000000000D+01
 ****
     22 0
 S   6 1.00       0.000000000000
      0.3047524880D+04  0.1834737132D-02
      0.4573695180D+03  0.1403732281D-01
      0.1039486850D+03  0.6884262226D-01
      0.2921015530D+02  0.2321844432D+00
      0.9286662960D+01  0.4679413484D+00
      0.3163926960D+01  0.3623119853D+00
 SP   3 1.00       0.000000000000
      0.7868272350D+01 -0.1193324198D+00  0.6899906659D-01
      0.1881288540D+01 -0.1608541517D+00  0.3164239610D+00
      0.5442492580D+00  0.1143456438D+01  0.7443082909D+00
 SP   1 1.00       0.000000000000
      0.1687144782D+00  0.1000000000D+01  0.1000000000D+01
 D   1 1.00       0.000000000000
      0.8000000000D+00  0.1000000000D+01
 ****
     23 0
 S   3 1.00       0.000000000000
      0.1873113696D+02  0.3349460434D-01
      0.2825394365D+01  0.2347269535D+00
      0.6401216923D+00  0.8137573261D+00
 S   1 1.00       0.000000000000
      0.1612777588D+00  0.1000000000D+01
 ****
     24 0
 S   3 1.00       0.000000000000
      0.1873113696D+02  0.3349460434D-01
      0.2825394365D+01  0.2347269535D+00
      0.6401216923D+00  0.8137573261D+00
 S   1 1.00       0.000000000000
      0.1612777588D+00  0.1000000000D+01
 ****
     25 0
 S   6 1.00       0.000000000000
      0.3047524880D+04  0.1834737132D-02
      0.4573695180D+03  0.1403732281D-01
      0.1039486850D+03  0.6884262226D-01
      0.2921015530D+02  0.2321844432D+00
      0.9286662960D+01  0.4679413484D+00
      0.3163926960D+01  0.3623119853D+00
 SP   3 1.00       0.000000000000
      0.7868272350D+01 -0.1193324198D+00  0.6899906659D-01
      0.1881288540D+01 -0.1608541517D+00  0.3164239610D+00
      0.5442492580D+00  0.1143456438D+01  0.7443082909D+00
 SP   1 1.00       0.000000000000
      0.1687144782D+00  0.1000000000D+01  0.1000000000D+01
 D   1 1.00       0.000000000000
      0.8000000000D+00  0.1000000000D+01
 ****
     26 0
 S   3 1.00       0.000000000000
      0.1873113696D+02  0.3349460434D-01
      0.2825394365D+01  0.2347269535D+00
      0.6401216923D+00  0.8137573261D+00
 S   1 1.00       0.000000000000
      0.1612777588D+00  0.1000000000D+01
 ****
     27 0
 S   3 1.00       0.000000000000
      0.1873113696D+02  0.3349460434D-01
      0.2825394365D+01  0.2347269535D+00
      0.6401216923D+00  0.8137573261D+00
 S   1 1.00       0.000000000000
      0.1612777588D+00  0.1000000000D+01
 ****
     28 0
 S   6 1.00       0.000000000000
      0.3047524880D+04  0.1834737132D-02
      0.4573695180D+03  0.1403732281D-01
      0.1039486850D+03  0.6884262226D-01
      0.2921015530D+02  0.2321844432D+00
      0.9286662960D+01  0.4679413484D+00
      0.3163926960D+01  0.3623119853D+00
 SP   3 1.00       0.000000000000
      0.7868272350D+01 -0.1193324198D+00  0.6899906659D-01
      0.1881288540D+01 -0.1608541517D+00  0.3164239610D+00
      0.5442492580D+00  0.1143456438D+01  0.7443082909D+00
 SP   1 1.00       0.000000000000
      0.1687144782D+00  0.1000000000D+01  0.1000000000D+01
 D   1 1.00       0.000000000000
      0.8000000000D+00  0.1000000000D+01
 ****
     29 0
 S   6 1.00       0.000000000000
      0.3047524880D+04  0.1834737132D-02
      0.4573695180D+03  0.1403732281D-01
      0.1039486850D+03  0.6884262226D-01
      0.2921015530D+02  0.2321844432D+00
      0.9286662960D+01  0.4679413484D+00
      0.3163926960D+01  0.3623119853D+00
 SP   3 1.00       0.000000000000
      0.7868272350D+01 -0.1193324198D+00  0.6899906659D-01
      0.1881288540D+01 -0.1608541517D+00  0.3164239610D+00
      0.5442492580D+00  0.1143456438D+01  0.7443082909D+00
 SP   1 1.00       0.000000000000
      0.1687144782D+00  0.1000000000D+01  0.1000000000D+01
 D   1 1.00       0.000000000000
      0.8000000000D+00  0.1000000000D+01
 ****
     30 0
 S   3 1.00       0.000000000000
      0.1873113696D+02  0.3349460434D-01
      0.2825394365D+01  0.2347269535D+00
      0.6401216923D+00  0.8137573261D+00
 S   1 1.00       0.000000000000
      0.1612777588D+00  0.1000000000D+01
 ****
     31 0
 S   6 1.00       0.000000000000
      0.3047524880D+04  0.1834737132D-02
      0.4573695180D+03  0.1403732281D-01
      0.1039486850D+03  0.6884262226D-01
      0.2921015530D+02  0.2321844432D+00
      0.9286662960D+01  0.4679413484D+00
      0.3163926960D+01  0.3623119853D+00
 SP   3 1.00       0.000000000000
      0.7868272350D+01 -0.1193324198D+00  0.6899906659D-01
      0.1881288540D+01 -0.1608541517D+00  0.3164239610D+00
      0.5442492580D+00  0.1143456438D+01  0.7443082909D+00
 SP   1 1.00       0.000000000000
      0.1687144782D+00  0.1000000000D+01  0.1000000000D+01
 D   1 1.00       0.000000000000
      0.8000000000D+00  0.1000000000D+01
 ****
     32 0
 S   3 1.00       0.000000000000
      0.1873113696D+02  0.3349460434D-01
      0.2825394365D+01  0.2347269535D+00
      0.6401216923D+00  0.8137573261D+00
 S   1 1.00       0.000000000000
      0.1612777588D+00  0.1000000000D+01
 ****
     33 0
 S   3 1.00       0.000000000000
      0.1873113696D+02  0.3349460434D-01
      0.2825394365D+01  0.2347269535D+00
      0.6401216923D+00  0.8137573261D+00
 S   1 1.00       0.000000000000
      0.1612777588D+00  0.1000000000D+01
 ****
     34 0
 S   6 1.00       0.000000000000
      0.3047524880D+04  0.1834737132D-02
      0.4573695180D+03  0.1403732281D-01
      0.1039486850D+03  0.6884262226D-01
      0.2921015530D+02  0.2321844432D+00
      0.9286662960D+01  0.4679413484D+00
      0.3163926960D+01  0.3623119853D+00
 SP   3 1.00       0.000000000000
      0.7868272350D+01 -0.1193324198D+00  0.6899906659D-01
      0.1881288540D+01 -0.1608541517D+00  0.3164239610D+00
      0.5442492580D+00  0.1143456438D+01  0.7443082909D+00
 SP   1 1.00       0.000000000000
      0.1687144782D+00  0.1000000000D+01  0.1000000000D+01
 D   1 1.00       0.000000000000
      0.8000000000D+00  0.1000000000D+01
 ****
     35 0
 S   3 1.00       0.000000000000
      0.1873113696D+02  0.3349460434D-01
      0.2825394365D+01  0.2347269535D+00
      0.6401216923D+00  0.8137573261D+00
 S   1 1.00       0.000000000000
      0.1612777588D+00  0.1000000000D+01
 ****
     36 0
 S   3 1.00       0.000000000000
      0.1873113696D+02  0.3349460434D-01
      0.2825394365D+01  0.2347269535D+00
      0.6401216923D+00  0.8137573261D+00
 S   1 1.00       0.000000000000
      0.1612777588D+00  0.1000000000D+01
 ****
     37 0
 S   6 1.00       0.000000000000
      0.3047524880D+04  0.1834737132D-02
      0.4573695180D+03  0.1403732281D-01
      0.1039486850D+03  0.6884262226D-01
      0.2921015530D+02  0.2321844432D+00
      0.9286662960D+01  0.4679413484D+00
      0.3163926960D+01  0.3623119853D+00
 SP   3 1.00       0.000000000000
      0.7868272350D+01 -0.1193324198D+00  0.6899906659D-01
      0.1881288540D+01 -0.1608541517D+00  0.3164239610D+00
      0.5442492580D+00  0.1143456438D+01  0.7443082909D+00
 SP   1 1.00       0.000000000000
      0.1687144782D+00  0.1000000000D+01  0.1000000000D+01
 D   1 1.00       0.000000000000
      0.8000000000D+00  0.1000000000D+01
 ****
     38 0
 S   3 1.00       0.000000000000
      0.1873113696D+02  0.3349460434D-01
      0.2825394365D+01  0.2347269535D+00
      0.6401216923D+00  0.8137573261D+00
 S   1 1.00       0.000000000000
      0.1612777588D+00  0.1000000000D+01
 ****
     39 0
 S   6 1.00       0.000000000000
      0.3047524880D+04  0.1834737132D-02
      0.4573695180D+03  0.1403732281D-01
      0.1039486850D+03  0.6884262226D-01
      0.2921015530D+02  0.2321844432D+00
      0.9286662960D+01  0.4679413484D+00
      0.3163926960D+01  0.3623119853D+00
 SP   3 1.00       0.000000000000
      0.7868272350D+01 -0.1193324198D+00  0.6899906659D-01
      0.1881288540D+01 -0.1608541517D+00  0.3164239610D+00
      0.5442492580D+00  0.1143456438D+01  0.7443082909D+00
 SP   1 1.00       0.000000000000
      0.1687144782D+00  0.1000000000D+01  0.1000000000D+01
 D   1 1.00       0.000000000000
      0.8000000000D+00  0.1000000000D+01
 ****
     40 0
 S   3 1.00       0.000000000000
      0.1873113696D+02  0.3349460434D-01
      0.2825394365D+01  0.2347269535D+00
      0.6401216923D+00  0.8137573261D+00
 S   1 1.00       0.000000000000
      0.1612777588D+00  0.1000000000D+01
 ****
     41 0
 S   3 1.00       0.000000000000
      0.1873113696D+02  0.3349460434D-01
      0.2825394365D+01  0.2347269535D+00
      0.6401216923D+00  0.8137573261D+00
 S   1 1.00       0.000000000000
      0.1612777588D+00  0.1000000000D+01
 ****
     42 0
 S   3 1.00       0.000000000000
      0.1873113696D+02  0.3349460434D-01
      0.2825394365D+01  0.2347269535D+00
      0.6401216923D+00  0.8137573261D+00
 S   1 1.00       0.000000000000
      0.1612777588D+00  0.1000000000D+01
 ****
     43 0
 S   6 1.00       0.000000000000
      0.3047524880D+04  0.1834737132D-02
      0.4573695180D+03  0.1403732281D-01
      0.1039486850D+03  0.6884262226D-01
      0.2921015530D+02  0.2321844432D+00
      0.9286662960D+01  0.4679413484D+00
      0.3163926960D+01  0.3623119853D+00
 SP   3 1.00       0.000000000000
      0.7868272350D+01 -0.1193324198D+00  0.6899906659D-01
      0.1881288540D+01 -0.1608541517D+00  0.3164239610D+00
      0.5442492580D+00  0.1143456438D+01  0.7443082909D+00
 SP   1 1.00       0.000000000000
      0.1687144782D+00  0.1000000000D+01  0.1000000000D+01
 D   1 1.00       0.000000000000
      0.8000000000D+00  0.1000000000D+01
 ****
     44 0
 S   3 1.00       0.000000000000
      0.1873113696D+02  0.3349460434D-01
      0.2825394365D+01  0.2347269535D+00
      0.6401216923D+00  0.8137573261D+00
 S   1 1.00       0.000000000000
      0.1612777588D+00  0.1000000000D+01
 ****
     45 0
 S   6 1.00       0.000000000000
      0.3047524880D+04  0.1834737132D-02
      0.4573695180D+03  0.1403732281D-01
      0.1039486850D+03  0.6884262226D-01
      0.2921015530D+02  0.2321844432D+00
      0.9286662960D+01  0.4679413484D+00
      0.3163926960D+01  0.3623119853D+00
 SP   3 1.00       0.000000000000
      0.7868272350D+01 -0.1193324198D+00  0.6899906659D-01
      0.1881288540D+01 -0.1608541517D+00  0.3164239610D+00
      0.5442492580D+00  0.1143456438D+01  0.7443082909D+00
 SP   1 1.00       0.000000000000
      0.1687144782D+00  0.1000000000D+01  0.1000000000D+01
 D   1 1.00       0.000000000000
      0.8000000000D+00  0.1000000000D+01
 ****
     46 0
 S   3 1.00       0.000000000000
      0.1873113696D+02  0.3349460434D-01
      0.2825394365D+01  0.2347269535D+00
      0.6401216923D+00  0.8137573261D+00
 S   1 1.00       0.000000000000
      0.1612777588D+00  0.1000000000D+01
 ****
     47 0
 S   3 1.00       0.000000000000
      0.1873113696D+02  0.3349460434D-01
      0.2825394365D+01  0.2347269535D+00
      0.6401216923D+00  0.8137573261D+00
 S   1 1.00       0.000000000000
      0.1612777588D+00  0.1000000000D+01
 ****
     48 0
 S   3 1.00       0.000000000000
      0.1873113696D+02  0.3349460434D-01
      0.2825394365D+01  0.2347269535D+00
      0.6401216923D+00  0.8137573261D+00
 S   1 1.00       0.000000000000
      0.1612777588D+00  0.1000000000D+01
 ****
     49 0
 S   6 1.00       0.000000000000
      0.3047524880D+04  0.1834737132D-02
      0.4573695180D+03  0.1403732281D-01
      0.1039486850D+03  0.6884262226D-01
      0.2921015530D+02  0.2321844432D+00
      0.9286662960D+01  0.4679413484D+00
      0.3163926960D+01  0.3623119853D+00
 SP   3 1.00       0.000000000000
      0.7868272350D+01 -0.1193324198D+00  0.6899906659D-01
      0.1881288540D+01 -0.1608541517D+00  0.3164239610D+00
      0.5442492580D+00  0.1143456438D+01  0.7443082909D+00
 SP   1 1.00       0.000000000000
      0.1687144782D+00  0.1000000000D+01  0.1000000000D+01
 D   1 1.00       0.000000000000
      0.8000000000D+00  0.1000000000D+01
 ****
     50 0
 S   3 1.00       0.000000000000
      0.1873113696D+02  0.3349460434D-01
      0.2825394365D+01  0.2347269535D+00
      0.6401216923D+00  0.8137573261D+00
 S   1 1.00       0.000000000000
      0.1612777588D+00  0.1000000000D+01
 ****
     51 0
 S   3 1.00       0.000000000000
      0.1873113696D+02  0.3349460434D-01
      0.2825394365D+01  0.2347269535D+00
      0.6401216923D+00  0.8137573261D+00
 S   1 1.00       0.000000000000
      0.1612777588D+00  0.1000000000D+01
 ****
     52 0
 S   3 1.00       0.000000000000
      0.1873113696D+02  0.3349460434D-01
      0.2825394365D+01  0.2347269535D+00
      0.6401216923D+00  0.8137573261D+00
 S   1 1.00       0.000000000000
      0.1612777588D+00  0.1000000000D+01
 ****
     53 0
 S   6 1.00       0.000000000000
      0.5484671660D+04  0.1831074430D-02
      0.8252349460D+03  0.1395017220D-01
      0.1880469580D+03  0.6844507810D-01
      0.5296450000D+02  0.2327143360D+00
      0.1689757040D+02  0.4701928980D+00
      0.5799635340D+01  0.3585208530D+00
 SP   3 1.00       0.000000000000
      0.1553961625D+02 -0.1107775495D+00  0.7087426823D-01
      0.3599933586D+01 -0.1480262627D+00  0.3397528391D+00
      0.1013761750D+01  0.1130767015D+01  0.7271585773D+00
 SP   1 1.00       0.000000000000
      0.2700058226D+00  0.1000000000D+01  0.1000000000D+01
 D   1 1.00       0.000000000000
      0.8000000000D+00  0.1000000000D+01
 ****
     54 0
 S   6 1.00       0.000000000000
      0.5484671660D+04  0.1831074430D-02
      0.8252349460D+03  0.1395017220D-01
      0.1880469580D+03  0.6844507810D-01
      0.5296450000D+02  0.2327143360D+00
      0.1689757040D+02  0.4701928980D+00
      0.5799635340D+01  0.3585208530D+00
 SP   3 1.00       0.000000000000
      0.1553961625D+02 -0.1107775495D+00  0.7087426823D-01
      0.3599933586D+01 -0.1480262627D+00  0.3397528391D+00
      0.1013761750D+01  0.1130767015D+01  0.7271585773D+00
 SP   1 1.00       0.000000000000
      0.2700058226D+00  0.1000000000D+01  0.1000000000D+01
 D   1 1.00       0.000000000000
      0.8000000000D+00  0.1000000000D+01
 ****
     55 0
 S   3 1.00       0.000000000000
      0.1873113696D+02  0.3349460434D-01
      0.2825394365D+01  0.2347269535D+00
      0.6401216923D+00  0.8137573261D+00
 S   1 1.00       0.000000000000
      0.1612777588D+00  0.1000000000D+01
 ****
     56 0
 S   6 1.00       0.000000000000
      0.5484671660D+04  0.1831074430D-02
      0.8252349460D+03  0.1395017220D-01
      0.1880469580D+03  0.6844507810D-01
      0.5296450000D+02  0.2327143360D+00
      0.1689757040D+02  0.4701928980D+00
      0.5799635340D+01  0.3585208530D+00
 SP   3 1.00       0.000000000000
      0.1553961625D+02 -0.1107775495D+00  0.7087426823D-01
      0.3599933586D+01 -0.1480262627D+00  0.3397528391D+00
      0.1013761750D+01  0.1130767015D+01  0.7271585773D+00
 SP   1 1.00       0.000000000000
      0.2700058226D+00  0.1000000000D+01  0.1000000000D+01
 D   1 1.00       0.000000000000
      0.8000000000D+00  0.1000000000D+01
 ****
     57 0
 S   3 1.00       0.000000000000
      0.1873113696D+02  0.3349460434D-01
      0.2825394365D+01  0.2347269535D+00
      0.6401216923D+00  0.8137573261D+00
 S   1 1.00       0.000000000000
      0.1612777588D+00  0.1000000000D+01
 ****
     58 0
 S   6 1.00       0.000000000000
      0.3047524880D+04  0.1834737132D-02
      0.4573695180D+03  0.1403732281D-01
      0.1039486850D+03  0.6884262226D-01
      0.2921015530D+02  0.2321844432D+00
      0.9286662960D+01  0.4679413484D+00
      0.3163926960D+01  0.3623119853D+00
 SP   3 1.00       0.000000000000
      0.7868272350D+01 -0.1193324198D+00  0.6899906659D-01
      0.1881288540D+01 -0.1608541517D+00  0.3164239610D+00
      0.5442492580D+00  0.1143456438D+01  0.7443082909D+00
 SP   1 1.00       0.000000000000
      0.1687144782D+00  0.1000000000D+01  0.1000000000D+01
 D   1 1.00       0.000000000000
      0.8000000000D+00  0.1000000000D+01
 ****
     59 0
 S   3 1.00       0.000000000000
      0.1873113696D+02  0.3349460434D-01
      0.2825394365D+01  0.2347269535D+00
      0.6401216923D+00  0.8137573261D+00
 S   1 1.00       0.000000000000
      0.1612777588D+00  0.1000000000D+01
 ****
     60 0
 S   3 1.00       0.000000000000
      0.1873113696D+02  0.3349460434D-01
      0.2825394365D+01  0.2347269535D+00
      0.6401216923D+00  0.8137573261D+00
 S   1 1.00       0.000000000000
      0.1612777588D+00  0.1000000000D+01
 ****
     61 0
 S   6 1.00       0.000000000000
      0.3047524880D+04  0.1834737132D-02
      0.4573695180D+03  0.1403732281D-01
      0.1039486850D+03  0.6884262226D-01
      0.2921015530D+02  0.2321844432D+00
      0.9286662960D+01  0.4679413484D+00
      0.3163926960D+01  0.3623119853D+00
 SP   3 1.00       0.000000000000
      0.7868272350D+01 -0.1193324198D+00  0.6899906659D-01
      0.1881288540D+01 -0.1608541517D+00  0.3164239610D+00
      0.5442492580D+00  0.1143456438D+01  0.7443082909D+00
 SP   1 1.00       0.000000000000
      0.1687144782D+00  0.1000000000D+01  0.1000000000D+01
 D   1 1.00       0.000000000000
      0.8000000000D+00  0.1000000000D+01
 ****
     62 0
 S   3 1.00       0.000000000000
      0.1873113696D+02  0.3349460434D-01
      0.2825394365D+01  0.2347269535D+00
      0.6401216923D+00  0.8137573261D+00
 S   1 1.00       0.000000000000
      0.1612777588D+00  0.1000000000D+01
 ****
     63 0
 S   3 1.00       0.000000000000
      0.1873113696D+02  0.3349460434D-01
      0.2825394365D+01  0.2347269535D+00
      0.6401216923D+00  0.8137573261D+00
 S   1 1.00       0.000000000000
      0.1612777588D+00  0.1000000000D+01
 ****
     64 0
 S   6 1.00       0.000000000000
      0.3047524880D+04  0.1834737132D-02
      0.4573695180D+03  0.1403732281D-01
      0.1039486850D+03  0.6884262226D-01
      0.2921015530D+02  0.2321844432D+00
      0.9286662960D+01  0.4679413484D+00
      0.3163926960D+01  0.3623119853D+00
 SP   3 1.00       0.000000000000
      0.7868272350D+01 -0.1193324198D+00  0.6899906659D-01
      0.1881288540D+01 -0.1608541517D+00  0.3164239610D+00
      0.5442492580D+00  0.1143456438D+01  0.7443082909D+00
 SP   1 1.00       0.000000000000
      0.1687144782D+00  0.1000000000D+01  0.1000000000D+01
 D   1 1.00       0.000000000000
      0.8000000000D+00  0.1000000000D+01
 ****
     65 0
 S   3 1.00       0.000000000000
      0.1873113696D+02  0.3349460434D-01
      0.2825394365D+01  0.2347269535D+00
      0.6401216923D+00  0.8137573261D+00
 S   1 1.00       0.000000000000
      0.1612777588D+00  0.1000000000D+01
 ****
     66 0
 S   3 1.00       0.000000000000
      0.1873113696D+02  0.3349460434D-01
      0.2825394365D+01  0.2347269535D+00
      0.6401216923D+00  0.8137573261D+00
 S   1 1.00       0.000000000000
      0.1612777588D+00  0.1000000000D+01
 ****
     67 0
 S   6 1.00       0.000000000000
      0.3047524880D+04  0.1834737132D-02
      0.4573695180D+03  0.1403732281D-01
      0.1039486850D+03  0.6884262226D-01
      0.2921015530D+02  0.2321844432D+00
      0.9286662960D+01  0.4679413484D+00
      0.3163926960D+01  0.3623119853D+00
 SP   3 1.00       0.000000000000
      0.7868272350D+01 -0.1193324198D+00  0.6899906659D-01
      0.1881288540D+01 -0.1608541517D+00  0.3164239610D+00
      0.5442492580D+00  0.1143456438D+01  0.7443082909D+00
 SP   1 1.00       0.000000000000
      0.1687144782D+00  0.1000000000D+01  0.1000000000D+01
 D   1 1.00       0.000000000000
      0.8000000000D+00  0.1000000000D+01
 ****
     68 0
 S   3 1.00       0.000000000000
      0.1873113696D+02  0.3349460434D-01
      0.2825394365D+01  0.2347269535D+00
      0.6401216923D+00  0.8137573261D+00
 S   1 1.00       0.000000000000
      0.1612777588D+00  0.1000000000D+01
 ****
     69 0
 S   6 1.00       0.000000000000
      0.3047524880D+04  0.1834737132D-02
      0.4573695180D+03  0.1403732281D-01
      0.1039486850D+03  0.6884262226D-01
      0.2921015530D+02  0.2321844432D+00
      0.9286662960D+01  0.4679413484D+00
      0.3163926960D+01  0.3623119853D+00
 SP   3 1.00       0.000000000000
      0.7868272350D+01 -0.1193324198D+00  0.6899906659D-01
      0.1881288540D+01 -0.1608541517D+00  0.3164239610D+00
      0.5442492580D+00  0.1143456438D+01  0.7443082909D+00
 SP   1 1.00       0.000000000000
      0.1687144782D+00  0.1000000000D+01  0.1000000000D+01
 D   1 1.00       0.000000000000
      0.8000000000D+00  0.1000000000D+01
 ****
     70 0
 S   3 1.00       0.000000000000
      0.1873113696D+02  0.3349460434D-01
      0.2825394365D+01  0.2347269535D+00
      0.6401216923D+00  0.8137573261D+00
 S   1 1.00       0.000000000000
      0.1612777588D+00  0.1000000000D+01
 ****
     71 0
 S   3 1.00       0.000000000000
      0.1873113696D+02  0.3349460434D-01
      0.2825394365D+01  0.2347269535D+00
      0.6401216923D+00  0.8137573261D+00
 S   1 1.00       0.000000000000
      0.1612777588D+00  0.1000000000D+01
 ****
     72 0
 S   3 1.00       0.000000000000
      0.1873113696D+02  0.3349460434D-01
      0.2825394365D+01  0.2347269535D+00
      0.6401216923D+00  0.8137573261D+00
 S   1 1.00       0.000000000000
      0.1612777588D+00  0.1000000000D+01
 ****
     73 0
 S   6 1.00       0.000000000000
      0.3047524880D+04  0.1834737132D-02
      0.4573695180D+03  0.1403732281D-01
      0.1039486850D+03  0.6884262226D-01
      0.2921015530D+02  0.2321844432D+00
      0.9286662960D+01  0.4679413484D+00
      0.3163926960D+01  0.3623119853D+00
 SP   3 1.00       0.000000000000
      0.7868272350D+01 -0.1193324198D+00  0.6899906659D-01
      0.1881288540D+01 -0.1608541517D+00  0.3164239610D+00
      0.5442492580D+00  0.1143456438D+01  0.7443082909D+00
 SP   1 1.00       0.000000000000
      0.1687144782D+00  0.1000000000D+01  0.1000000000D+01
 D   1 1.00       0.000000000000
      0.8000000000D+00  0.1000000000D+01
 ****
     74 0
 S   3 1.00       0.000000000000
      0.1873113696D+02  0.3349460434D-01
      0.2825394365D+01  0.2347269535D+00
      0.6401216923D+00  0.8137573261D+00
 S   1 1.00       0.000000000000
      0.1612777588D+00  0.1000000000D+01
 ****
     75 0
 S   3 1.00       0.000000000000
      0.1873113696D+02  0.3349460434D-01
      0.2825394365D+01  0.2347269535D+00
      0.6401216923D+00  0.8137573261D+00
 S   1 1.00       0.000000000000
      0.1612777588D+00  0.1000000000D+01
 ****
     76 0
 S   3 1.00       0.000000000000
      0.1873113696D+02  0.3349460434D-01
      0.2825394365D+01  0.2347269535D+00
      0.6401216923D+00  0.8137573261D+00
 S   1 1.00       0.000000000000
      0.1612777588D+00  0.1000000000D+01
 ****

 AO basis set (Overlap normalization):
 Atom C1       Shell     1 S   6     bf    1 -     1         14.213550353087          4.184759781890          0.118475888572
      0.3047524880D+04  0.1834737132D-02
      0.4573695180D+03  0.1403732281D-01
      0.1039486850D+03  0.6884262226D-01
      0.2921015530D+02  0.2321844432D+00
      0.9286662960D+01  0.4679413484D+00
      0.3163926960D+01  0.3623119853D+00
 Atom C1       Shell     2 SP   3    bf    2 -     5         14.213550353087          4.184759781890          0.118475888572
      0.7868272350D+01 -0.1193324198D+00  0.6899906659D-01
      0.1881288540D+01 -0.1608541517D+00  0.3164239610D+00
      0.5442492580D+00  0.1143456438D+01  0.7443082909D+00
 Atom C1       Shell     3 SP   1    bf    6 -     9         14.213550353087          4.184759781890          0.118475888572
      0.1687144782D+00  0.1000000000D+01  0.1000000000D+01
 Atom C1       Shell     4 D   1     bf   10 -    15         14.213550353087          4.184759781890          0.118475888572
      0.8000000000D+00  0.1000000000D+01
 Atom H2       Shell     5 S   3     bf   16 -    16         13.908222728659          4.123228560455          2.167832724801
      0.1873113696D+02  0.3349460434D-01
      0.2825394365D+01  0.2347269535D+00
      0.6401216923D+00  0.8137573261D+00
 Atom H2       Shell     6 S   1     bf   17 -    17         13.908222728659          4.123228560455          2.167832724801
      0.1612777588D+00  0.1000000000D+01
 Atom C3       Shell     7 S   6     bf   18 -    18         12.901600596502          1.903569850795         -1.101436325183
      0.3047524880D+04  0.1834737132D-02
      0.4573695180D+03  0.1403732281D-01
      0.1039486850D+03  0.6884262226D-01
      0.2921015530D+02  0.2321844432D+00
      0.9286662960D+01  0.4679413484D+00
      0.3163926960D+01  0.3623119853D+00
 Atom C3       Shell     8 SP   3    bf   19 -    22         12.901600596502          1.903569850795         -1.101436325183
      0.7868272350D+01 -0.1193324198D+00  0.6899906659D-01
      0.1881288540D+01 -0.1608541517D+00  0.3164239610D+00
      0.5442492580D+00  0.1143456438D+01  0.7443082909D+00
 Atom C3       Shell     9 SP   1    bf   23 -    26         12.901600596502          1.903569850795         -1.101436325183
      0.1687144782D+00  0.1000000000D+01  0.1000000000D+01
 Atom C3       Shell    10 D   1     bf   27 -    32         12.901600596502          1.903569850795         -1.101436325183
      0.8000000000D+00  0.1000000000D+01
 Atom H4       Shell    11 S   3     bf   33 -    33         13.623148149575          0.151977860525         -0.272485544841
      0.1873113696D+02  0.3349460434D-01
      0.2825394365D+01  0.2347269535D+00
      0.6401216923D+00  0.8137573261D+00
 Atom H4       Shell    12 S   1     bf   34 -    34         13.623148149575          0.151977860525         -0.272485544841
      0.1612777588D+00  0.1000000000D+01
 Atom H5       Shell    13 S   3     bf   35 -    35         13.433204443821          1.873605219397         -3.115299720471
      0.1873113696D+02  0.3349460434D-01
      0.2825394365D+01  0.2347269535D+00
      0.6401216923D+00  0.8137573261D+00
 Atom H5       Shell    14 S   1     bf   36 -    36         13.433204443821          1.873605219397         -3.115299720471
      0.1612777588D+00  0.1000000000D+01
 Atom C6       Shell    15 S   6     bf   37 -    37         10.046146874249          2.008000973495         -0.864577881612
      0.3047524880D+04  0.1834737132D-02
      0.4573695180D+03  0.1403732281D-01
      0.1039486850D+03  0.6884262226D-01
      0.2921015530D+02  0.2321844432D+00
      0.9286662960D+01  0.4679413484D+00
      0.3163926960D+01  0.3623119853D+00
 Atom C6       Shell    16 SP   3    bf   38 -    41         10.046146874249          2.008000973495         -0.864577881612
      0.7868272350D+01 -0.1193324198D+00  0.6899906659D-01
      0.1881288540D+01 -0.1608541517D+00  0.3164239610D+00
      0.5442492580D+00  0.1143456438D+01  0.7443082909D+00
 Atom C6       Shell    17 SP   1    bf   42 -    45         10.046146874249          2.008000973495         -0.864577881612
      0.1687144782D+00  0.1000000000D+01  0.1000000000D+01
 Atom C6       Shell    18 D   1     bf   46 -    51         10.046146874249          2.008000973495         -0.864577881612
      0.8000000000D+00  0.1000000000D+01
 Atom C7       Shell    19 S   6     bf   52 -    52          8.739431224415          4.458953110031         -1.680825847300
      0.3047524880D+04  0.1834737132D-02
      0.4573695180D+03  0.1403732281D-01
      0.1039486850D+03  0.6884262226D-01
      0.2921015530D+02  0.2321844432D+00
      0.9286662960D+01  0.4679413484D+00
      0.3163926960D+01  0.3623119853D+00
 Atom C7       Shell    20 SP   3    bf   53 -    56          8.739431224415          4.458953110031         -1.680825847300
      0.7868272350D+01 -0.1193324198D+00  0.6899906659D-01
      0.1881288540D+01 -0.1608541517D+00  0.3164239610D+00
      0.5442492580D+00  0.1143456438D+01  0.7443082909D+00
 Atom C7       Shell    21 SP   1    bf   57 -    60          8.739431224415          4.458953110031         -1.680825847300
      0.1687144782D+00  0.1000000000D+01  0.1000000000D+01
 Atom C7       Shell    22 D   1     bf   61 -    66          8.739431224415          4.458953110031         -1.680825847300
      0.8000000000D+00  0.1000000000D+01
 Atom C8       Shell    23 S   6     bf   67 -    67         10.229046871506          6.737002939902         -0.545047623590
      0.3047524880D+04  0.1834737132D-02
      0.4573695180D+03  0.1403732281D-01
      0.1039486850D+03  0.6884262226D-01
      0.2921015530D+02  0.2321844432D+00
      0.9286662960D+01  0.4679413484D+00
      0.3163926960D+01  0.3623119853D+00
 Atom C8       Shell    24 SP   3    bf   68 -    71         10.229046871506          6.737002939902         -0.545047623590
      0.7868272350D+01 -0.1193324198D+00  0.6899906659D-01
      0.1881288540D+01 -0.1608541517D+00  0.3164239610D+00
      0.5442492580D+00  0.1143456438D+01  0.7443082909D+00
 Atom C8       Shell    25 SP   1    bf   72 -    75         10.229046871506          6.737002939902         -0.545047623590
      0.1687144782D+00  0.1000000000D+01  0.1000000000D+01
 Atom C8       Shell    26 D   1     bf   76 -    81         10.229046871506          6.737002939902         -0.545047623590
      0.8000000000D+00  0.1000000000D+01
 Atom H9       Shell    27 S   3     bf   82 -    82          9.849122062319          6.809456646104          1.495316119355
      0.1873113696D+02  0.3349460434D-01
      0.2825394365D+01  0.2347269535D+00
      0.6401216923D+00  0.8137573261D+00
 Atom H9       Shell    28 S   1     bf   83 -    83          9.849122062319          6.809456646104          1.495316119355
      0.1612777588D+00  0.1000000000D+01
 Atom H10      Shell    29 S   3     bf   84 -    84          9.502629720956          8.504165101877         -1.340278962297
      0.1873113696D+02  0.3349460434D-01
      0.2825394365D+01  0.2347269535D+00
      0.6401216923D+00  0.8137573261D+00
 Atom H10      Shell    30 S   1     bf   85 -    85          9.502629720956          8.504165101877         -1.340278962297
      0.1612777588D+00  0.1000000000D+01
 Atom C11      Shell    31 S   6     bf   86 -    86         13.105041482187          6.636501540491         -0.931141330355
      0.3047524880D+04  0.1834737132D-02
      0.4573695180D+03  0.1403732281D-01
      0.1039486850D+03  0.6884262226D-01
      0.2921015530D+02  0.2321844432D+00
      0.9286662960D+01  0.4679413484D+00
      0.3163926960D+01  0.3623119853D+00
 Atom C11      Shell    32 SP   3    bf   87 -    90         13.105041482187          6.636501540491         -0.931141330355
      0.7868272350D+01 -0.1193324198D+00  0.6899906659D-01
      0.1881288540D+01 -0.1608541517D+00  0.3164239610D+00
      0.5442492580D+00  0.1143456438D+01  0.7443082909D+00
 Atom C11      Shell    33 SP   1    bf   91 -    94         13.105041482187          6.636501540491         -0.931141330355
      0.1687144782D+00  0.1000000000D+01  0.1000000000D+01
 Atom C11      Shell    34 D   1     bf   95 -   100         13.105041482187          6.636501540491         -0.931141330355
      0.8000000000D+00  0.1000000000D+01
 Atom H12      Shell    35 S   3     bf  101 -   101         13.572919021093          6.780062258463         -2.951500262382
      0.1873113696D+02  0.3349460434D-01
      0.2825394365D+01  0.2347269535D+00
      0.6401216923D+00  0.8137573261D+00
 Atom H12      Shell    36 S   1     bf  102 -   102         13.572919021093          6.780062258463         -2.951500262382
      0.1612777588D+00  0.1000000000D+01
 Atom H13      Shell    37 S   3     bf  103 -   103         13.999636265023          8.255729383434          0.000000000000
      0.1873113696D+02  0.3349460434D-01
      0.2825394365D+01  0.2347269535D+00
      0.6401216923D+00  0.8137573261D+00
 Atom H13      Shell    38 S   1     bf  104 -   104         13.999636265023          8.255729383434          0.000000000000
      0.1612777588D+00  0.1000000000D+01
 Atom C14      Shell    39 S   6     bf  105 -   105          8.770353644607          0.000000000000          0.000000000000
      0.3047524880D+04  0.1834737132D-02
      0.4573695180D+03  0.1403732281D-01
      0.1039486850D+03  0.6884262226D-01
      0.2921015530D+02  0.2321844432D+00
      0.9286662960D+01  0.4679413484D+00
      0.3163926960D+01  0.3623119853D+00
 Atom C14      Shell    40 SP   3    bf  106 -   109          8.770353644607          0.000000000000          0.000000000000
      0.7868272350D+01 -0.1193324198D+00  0.6899906659D-01
      0.1881288540D+01 -0.1608541517D+00  0.3164239610D+00
      0.5442492580D+00  0.1143456438D+01  0.7443082909D+00
 Atom C14      Shell    41 SP   1    bf  110 -   113          8.770353644607          0.000000000000          0.000000000000
      0.1687144782D+00  0.1000000000D+01  0.1000000000D+01
 Atom C14      Shell    42 D   1     bf  114 -   119          8.770353644607          0.000000000000          0.000000000000
      0.8000000000D+00  0.1000000000D+01
 Atom H15      Shell    43 S   3     bf  120 -   120          9.792813892737         -1.688970812597          0.571727098388
      0.1873113696D+02  0.3349460434D-01
      0.2825394365D+01  0.2347269535D+00
      0.6401216923D+00  0.8137573261D+00
 Atom H15      Shell    44 S   1     bf  121 -   121          9.792813892737         -1.688970812597          0.571727098388
      0.1612777588D+00  0.1000000000D+01
 Atom C16      Shell    45 S   6     bf  122 -   122          5.948696181356         -0.193731378328          0.195992001009
      0.3047524880D+04  0.1834737132D-02
      0.4573695180D+03  0.1403732281D-01
      0.1039486850D+03  0.6884262226D-01
      0.2921015530D+02  0.2321844432D+00
      0.9286662960D+01  0.4679413484D+00
      0.3163926960D+01  0.3623119853D+00
 Atom C16      Shell    46 SP   3    bf  123 -   126          5.948696181356         -0.193731378328          0.195992001009
      0.7868272350D+01 -0.1193324198D+00  0.6899906659D-01
      0.1881288540D+01 -0.1608541517D+00  0.3164239610D+00
      0.5442492580D+00  0.1143456438D+01  0.7443082909D+00
 Atom C16      Shell    47 SP   1    bf  127 -   130          5.948696181356         -0.193731378328          0.195992001009
      0.1687144782D+00  0.1000000000D+01  0.1000000000D+01
 Atom C16      Shell    48 D   1     bf  131 -   136          5.948696181356         -0.193731378328          0.195992001009
      0.8000000000D+00  0.1000000000D+01
 Atom H17      Shell    49 S   3     bf  137 -   137          5.381704868938         -0.395951878877          2.187848118185
      0.1873113696D+02  0.3349460434D-01
      0.2825394365D+01  0.2347269535D+00
      0.6401216923D+00  0.8137573261D+00
 Atom H17      Shell    50 S   1     bf  138 -   138          5.381704868938         -0.395951878877          2.187848118185
      0.1612777588D+00  0.1000000000D+01
 Atom C18      Shell    51 S   6     bf  139 -   139          4.504483642354          2.006515705446         -1.035128972125
      0.3047524880D+04  0.1834737132D-02
      0.4573695180D+03  0.1403732281D-01
      0.1039486850D+03  0.6884262226D-01
      0.2921015530D+02  0.2321844432D+00
      0.9286662960D+01  0.4679413484D+00
      0.3163926960D+01  0.3623119853D+00
 Atom C18      Shell    52 SP   3    bf  140 -   143          4.504483642354          2.006515705446         -1.035128972125
      0.7868272350D+01 -0.1193324198D+00  0.6899906659D-01
      0.1881288540D+01 -0.1608541517D+00  0.3164239610D+00
      0.5442492580D+00  0.1143456438D+01  0.7443082909D+00
 Atom C18      Shell    53 SP   1    bf  144 -   147          4.504483642354          2.006515705446         -1.035128972125
      0.1687144782D+00  0.1000000000D+01  0.1000000000D+01
 Atom C18      Shell    54 D   1     bf  148 -   153          4.504483642354          2.006515705446         -1.035128972125
      0.8000000000D+00  0.1000000000D+01
 Atom H19      Shell    55 S   3     bf  154 -   154          4.400755970207          1.590459578262         -3.064678776173
      0.1873113696D+02  0.3349460434D-01
      0.2825394365D+01  0.2347269535D+00
      0.6401216923D+00  0.8137573261D+00
 Atom H19      Shell    56 S   1     bf  155 -   155          4.400755970207          1.590459578262         -3.064678776173
      0.1612777588D+00  0.1000000000D+01
 Atom C20      Shell    57 S   6     bf  156 -   156          5.973393673591          4.519824212333         -0.623924055384
      0.3047524880D+04  0.1834737132D-02
      0.4573695180D+03  0.1403732281D-01
      0.1039486850D+03  0.6884262226D-01
      0.2921015530D+02  0.2321844432D+00
      0.9286662960D+01  0.4679413484D+00
      0.3163926960D+01  0.3623119853D+00
 Atom C20      Shell    58 SP   3    bf  157 -   160          5.973393673591          4.519824212333         -0.623924055384
      0.7868272350D+01 -0.1193324198D+00  0.6899906659D-01
      0.1881288540D+01 -0.1608541517D+00  0.3164239610D+00
      0.5442492580D+00  0.1143456438D+01  0.7443082909D+00
 Atom C20      Shell    59 SP   1    bf  161 -   164          5.973393673591          4.519824212333         -0.623924055384
      0.1687144782D+00  0.1000000000D+01  0.1000000000D+01
 Atom C20      Shell    60 D   1     bf  165 -   170          5.973393673591          4.519824212333         -0.623924055384
      0.8000000000D+00  0.1000000000D+01
 Atom H21      Shell    61 S   3     bf  171 -   171          6.169476853886          4.727321300676          1.439417075481
      0.1873113696D+02  0.3349460434D-01
      0.2825394365D+01  0.2347269535D+00
      0.6401216923D+00  0.8137573261D+00
 Atom H21      Shell    62 S   1     bf  172 -   172          6.169476853886          4.727321300676          1.439417075481
      0.1612777588D+00  0.1000000000D+01
 Atom C22      Shell    63 S   6     bf  173 -   173          4.429843371838          6.819555966168         -1.558111586470
      0.3047524880D+04  0.1834737132D-02
      0.4573695180D+03  0.1403732281D-01
      0.1039486850D+03  0.6884262226D-01
      0.2921015530D+02  0.2321844432D+00
      0.9286662960D+01  0.4679413484D+00
      0.3163926960D+01  0.3623119853D+00
 Atom C22      Shell    64 SP   3    bf  174 -   177          4.429843371838          6.819555966168         -1.558111586470
      0.7868272350D+01 -0.1193324198D+00  0.6899906659D-01
      0.1881288540D+01 -0.1608541517D+00  0.3164239610D+00
      0.5442492580D+00  0.1143456438D+01  0.7443082909D+00
 Atom C22      Shell    65 SP   1    bf  178 -   181          4.429843371838          6.819555966168         -1.558111586470
      0.1687144782D+00  0.1000000000D+01  0.1000000000D+01
 Atom C22      Shell    66 D   1     bf  182 -   187          4.429843371838          6.819555966168         -1.558111586470
      0.8000000000D+00  0.1000000000D+01
 Atom H23      Shell    67 S   3     bf  188 -   188          4.337325385036          6.807263373263         -3.625696550901
      0.1873113696D+02  0.3349460434D-01
      0.2825394365D+01  0.2347269535D+00
      0.6401216923D+00  0.8137573261D+00
 Atom H23      Shell    68 S   1     bf  189 -   189          4.337325385036          6.807263373263         -3.625696550901
      0.1612777588D+00  0.1000000000D+01
 Atom H24      Shell    69 S   3     bf  190 -   190          5.413429118826          8.565510733309         -1.040364137123
      0.1873113696D+02  0.3349460434D-01
      0.2825394365D+01  0.2347269535D+00
      0.6401216923D+00  0.8137573261D+00
 Atom H24      Shell    70 S   1     bf  191 -   191          5.413429118826          8.565510733309         -1.040364137123
      0.1612777588D+00  0.1000000000D+01
 Atom C25      Shell    71 S   6     bf  192 -   192          1.720861377281          6.940039575373         -0.497689310357
      0.3047524880D+04  0.1834737132D-02
      0.4573695180D+03  0.1403732281D-01
      0.1039486850D+03  0.6884262226D-01
      0.2921015530D+02  0.2321844432D+00
      0.9286662960D+01  0.4679413484D+00
      0.3163926960D+01  0.3623119853D+00
 Atom C25      Shell    72 SP   3    bf  193 -   196          1.720861377281          6.940039575373         -0.497689310357
      0.7868272350D+01 -0.1193324198D+00  0.6899906659D-01
      0.1881288540D+01 -0.1608541517D+00  0.3164239610D+00
      0.5442492580D+00  0.1143456438D+01  0.7443082909D+00
 Atom C25      Shell    73 SP   1    bf  197 -   200          1.720861377281          6.940039575373         -0.497689310357
      0.1687144782D+00  0.1000000000D+01  0.1000000000D+01
 Atom C25      Shell    74 D   1     bf  201 -   206          1.720861377281          6.940039575373         -0.497689310357
      0.8000000000D+00  0.1000000000D+01
 Atom H26      Shell    75 S   3     bf  207 -   207          1.802008050462          7.243966496996          1.555471223323
      0.1873113696D+02  0.3349460434D-01
      0.2825394365D+01  0.2347269535D+00
      0.6401216923D+00  0.8137573261D+00
 Atom H26      Shell    76 S   1     bf  208 -   208          1.802008050462          7.243966496996          1.555471223323
      0.1612777588D+00  0.1000000000D+01
 Atom H27      Shell    77 S   3     bf  209 -   209          0.764123385203          8.590724064086         -1.304895730184
      0.1873113696D+02  0.3349460434D-01
      0.2825394365D+01  0.2347269535D+00
      0.6401216923D+00  0.8137573261D+00
 Atom H27      Shell    78 S   1     bf  210 -   210          0.764123385203          8.590724064086         -1.304895730184
      0.1612777588D+00  0.1000000000D+01
 Atom C28      Shell    79 S   6     bf  211 -   211          0.239266257021          4.493415100654         -1.035224252117
      0.3047524880D+04  0.1834737132D-02
      0.4573695180D+03  0.1403732281D-01
      0.1039486850D+03  0.6884262226D-01
      0.2921015530D+02  0.2321844432D+00
      0.9286662960D+01  0.4679413484D+00
      0.3163926960D+01  0.3623119853D+00
 Atom C28      Shell    80 SP   3    bf  212 -   215          0.239266257021          4.493415100654         -1.035224252117
      0.7868272350D+01 -0.1193324198D+00  0.6899906659D-01
      0.1881288540D+01 -0.1608541517D+00  0.3164239610D+00
      0.5442492580D+00  0.1143456438D+01  0.7443082909D+00
 Atom C28      Shell    81 SP   1    bf  216 -   219          0.239266257021          4.493415100654         -1.035224252117
      0.1687144782D+00  0.1000000000D+01  0.1000000000D+01
 Atom C28      Shell    82 D   1     bf  220 -   225          0.239266257021          4.493415100654         -1.035224252117
      0.8000000000D+00  0.1000000000D+01
 Atom C29      Shell    83 S   6     bf  226 -   226          1.823573302734          2.268571643890          0.066071401853
      0.3047524880D+04  0.1834737132D-02
      0.4573695180D+03  0.1403732281D-01
      0.1039486850D+03  0.6884262226D-01
      0.2921015530D+02  0.2321844432D+00
      0.9286662960D+01  0.4679413484D+00
      0.3163926960D+01  0.3623119853D+00
 Atom C29      Shell    84 SP   3    bf  227 -   230          1.823573302734          2.268571643890          0.066071401853
      0.7868272350D+01 -0.1193324198D+00  0.6899906659D-01
      0.1881288540D+01 -0.1608541517D+00  0.3164239610D+00
      0.5442492580D+00  0.1143456438D+01  0.7443082909D+00
 Atom C29      Shell    85 SP   1    bf  231 -   234          1.823573302734          2.268571643890          0.066071401853
      0.1687144782D+00  0.1000000000D+01  0.1000000000D+01
 Atom C29      Shell    86 D   1     bf  235 -   240          1.823573302734          2.268571643890          0.066071401853
      0.8000000000D+00  0.1000000000D+01
 Atom H30      Shell    87 S   3     bf  241 -   241          2.101336928253          2.743182088034          2.076821775693
      0.1873113696D+02  0.3349460434D-01
      0.2825394365D+01  0.2347269535D+00
      0.6401216923D+00  0.8137573261D+00
 Atom H30      Shell    88 S   1     bf  242 -   242          2.101336928253          2.743182088034          2.076821775693
      0.1612777588D+00  0.1000000000D+01
 Atom C31      Shell    89 S   6     bf  243 -   243          0.000000000000          0.000000000000          0.000000000000
      0.3047524880D+04  0.1834737132D-02
      0.4573695180D+03  0.1403732281D-01
      0.1039486850D+03  0.6884262226D-01
      0.2921015530D+02  0.2321844432D+00
      0.9286662960D+01  0.4679413484D+00
      0.3163926960D+01  0.3623119853D+00
 Atom C31      Shell    90 SP   3    bf  244 -   247          0.000000000000          0.000000000000          0.000000000000
      0.7868272350D+01 -0.1193324198D+00  0.6899906659D-01
      0.1881288540D+01 -0.1608541517D+00  0.3164239610D+00
      0.5442492580D+00  0.1143456438D+01  0.7443082909D+00
 Atom C31      Shell    91 SP   1    bf  248 -   251          0.000000000000          0.000000000000          0.000000000000
      0.1687144782D+00  0.1000000000D+01  0.1000000000D+01
 Atom C31      Shell    92 D   1     bf  252 -   257          0.000000000000          0.000000000000          0.000000000000
      0.8000000000D+00  0.1000000000D+01
 Atom H32      Shell    93 S   3     bf  258 -   258          0.498990443492         -1.440515592180          1.397563496679
      0.1873113696D+02  0.3349460434D-01
      0.2825394365D+01  0.2347269535D+00
      0.6401216923D+00  0.8137573261D+00
 Atom H32      Shell    94 S   1     bf  259 -   259          0.498990443492         -1.440515592180          1.397563496679
      0.1612777588D+00  0.1000000000D+01
 Atom H33      Shell    95 S   3     bf  260 -   260          0.054387754296         -0.929103147337         -1.847300458394
      0.1873113696D+02  0.3349460434D-01
      0.2825394365D+01  0.2347269535D+00
      0.6401216923D+00  0.8137573261D+00
 Atom H33      Shell    96 S   1     bf  261 -   261          0.054387754296         -0.929103147337         -1.847300458394
      0.1612777588D+00  0.1000000000D+01
 Atom C34      Shell    97 S   6     bf  262 -   262         -2.633471278389          1.194011400611          0.522935692445
      0.3047524880D+04  0.1834737132D-02
      0.4573695180D+03  0.1403732281D-01
      0.1039486850D+03  0.6884262226D-01
      0.2921015530D+02  0.2321844432D+00
      0.9286662960D+01  0.4679413484D+00
      0.3163926960D+01  0.3623119853D+00
 Atom C34      Shell    98 SP   3    bf  263 -   266         -2.633471278389          1.194011400611          0.522935692445
      0.7868272350D+01 -0.1193324198D+00  0.6899906659D-01
      0.1881288540D+01 -0.1608541517D+00  0.3164239610D+00
      0.5442492580D+00  0.1143456438D+01  0.7443082909D+00
 Atom C34      Shell    99 SP   1    bf  267 -   270         -2.633471278389          1.194011400611          0.522935692445
      0.1687144782D+00  0.1000000000D+01  0.1000000000D+01
 Atom C34      Shell   100 D   1     bf  271 -   276         -2.633471278389          1.194011400611          0.522935692445
      0.8000000000D+00  0.1000000000D+01
 Atom H35      Shell   101 S   3     bf  277 -   277         -3.993711928054          0.619826051984         -0.925852667210
      0.1873113696D+02  0.3349460434D-01
      0.2825394365D+01  0.2347269535D+00
      0.6401216923D+00  0.8137573261D+00
 Atom H35      Shell   102 S   1     bf  278 -   278         -3.993711928054          0.619826051984         -0.925852667210
      0.1612777588D+00  0.1000000000D+01
 Atom H36      Shell   103 S   3     bf  279 -   279         -3.421027815661          0.571074084625          2.333676205161
      0.1873113696D+02  0.3349460434D-01
      0.2825394365D+01  0.2347269535D+00
      0.6401216923D+00  0.8137573261D+00
 Atom H36      Shell   104 S   1     bf  280 -   280         -3.421027815661          0.571074084625          2.333676205161
      0.1612777588D+00  0.1000000000D+01
 Atom C37      Shell   105 S   6     bf  281 -   281         -2.246520732001          4.118385154582          0.533659680379
      0.3047524880D+04  0.1834737132D-02
      0.4573695180D+03  0.1403732281D-01
      0.1039486850D+03  0.6884262226D-01
      0.2921015530D+02  0.2321844432D+00
      0.9286662960D+01  0.4679413484D+00
      0.3163926960D+01  0.3623119853D+00
 Atom C37      Shell   106 SP   3    bf  282 -   285         -2.246520732001          4.118385154582          0.533659680379
      0.7868272350D+01 -0.1193324198D+00  0.6899906659D-01
      0.1881288540D+01 -0.1608541517D+00  0.3164239610D+00
      0.5442492580D+00  0.1143456438D+01  0.7443082909D+00
 Atom C37      Shell   107 SP   1    bf  286 -   289         -2.246520732001          4.118385154582          0.533659680379
      0.1687144782D+00  0.1000000000D+01  0.1000000000D+01
 Atom C37      Shell   108 D   1     bf  290 -   295         -2.246520732001          4.118385154582          0.533659680379
      0.8000000000D+00  0.1000000000D+01
 Atom H38      Shell   109 S   3     bf  296 -   296         -1.700812233388          4.609763913491          2.475214594918
      0.1873113696D+02  0.3349460434D-01
      0.2825394365D+01  0.2347269535D+00
      0.6401216923D+00  0.8137573261D+00
 Atom H38      Shell   110 S   1     bf  297 -   297         -1.700812233388          4.609763913491          2.475214594918
      0.1612777588D+00  0.1000000000D+01
 Atom C39      Shell   111 S   6     bf  298 -   298         -0.198784581597          4.193622975398         -3.908784026265
      0.3047524880D+04  0.1834737132D-02
      0.4573695180D+03  0.1403732281D-01
      0.1039486850D+03  0.6884262226D-01
[...]
 **** Fit       0.022283
 **** Fit       0.021841
 **** Fit       0.017331
 **** Fit      -0.007758
 **** Fit      -0.057134
 **** Fit      -0.055516
 **** Fit      -0.049932
 **** Fit      -0.042904
 **** Fit      -0.036038
 **** Fit      -0.030019
 **** Fit       0.011811
 **** Fit       0.013887
 **** Fit       0.016333
 **** Fit       0.019094
 **** Fit       0.021906
 **** Fit       0.024055
 **** Fit       0.024090
 **** Fit      -0.058376
 **** Fit      -0.056782
 **** Fit      -0.050966
 **** Fit      -0.043644
 **** Fit      -0.036526
 **** Fit      -0.030322
 **** Fit       0.011785
 **** Fit       0.013793
 **** Fit       0.016135
 **** Fit       0.018739
 **** Fit       0.021322
 **** Fit       0.023168
 **** Fit       0.022874
 **** Fit      -0.006939
 **** Fit      -0.057025
 **** Fit      -0.055361
 **** Fit      -0.049715
 **** Fit      -0.042641
 **** Fit      -0.035752
 **** Fit      -0.029727
 **** Fit       0.013103
 **** Fit       0.015100
 **** Fit       0.017203
 **** Fit       0.019090
 **** Fit       0.020060
 **** Fit       0.018888
 **** Fit       0.013992
 **** Fit       0.004286
 **** Fit      -0.009641
 **** Fit      -0.025344
 **** Fit      -0.039548
 **** Fit      -0.049305
 **** Fit      -0.053071
 **** Fit      -0.051408
 **** Fit      -0.046357
 **** Fit      -0.040034
 **** Fit      -0.033809
 **** Fit      -0.028293
 **** Fit       0.011961
 **** Fit       0.013472
 **** Fit       0.014903
 **** Fit       0.015913
 **** Fit       0.015872
 **** Fit       0.013824
 **** Fit       0.008690
 **** Fit      -0.000119
 **** Fit      -0.011979
 **** Fit      -0.024939
 **** Fit      -0.036397
 **** Fit      -0.044080
 **** Fit      -0.046952
 **** Fit      -0.045558
 **** Fit      -0.041452
 **** Fit      -0.036226
 **** Fit      -0.030960
 **** Fit      -0.026187
 **** Fit       0.010557
 **** Fit       0.011555
 **** Fit       0.012322
 **** Fit       0.012538
 **** Fit       0.011696
 **** Fit       0.009129
 **** Fit       0.004196
 **** Fit      -0.003325
 **** Fit      -0.012841
 **** Fit      -0.022900
 **** Fit      -0.031633
 **** Fit      -0.037459
 **** Fit      -0.039712
 **** Fit      -0.038796
 **** Fit      -0.035772
 **** Fit      -0.031758
 **** Fit      -0.027563
 **** Fit       0.009615
 **** Fit       0.009839
 **** Fit       0.009478
 **** Fit       0.008165
 **** Fit       0.005476
 **** Fit       0.001083
 **** Fit      -0.005025
 **** Fit      -0.012340
 **** Fit      -0.019843
 **** Fit      -0.026288
 **** Fit      -0.030648
 **** Fit      -0.032495
 **** Fit      -0.032069
 **** Fit      -0.030038
 **** Fit      -0.027143
 **** Fit       0.007673
 **** Fit       0.006968
 **** Fit       0.005470
 **** Fit       0.002939
 **** Fit      -0.000767
 **** Fit      -0.005564
 **** Fit      -0.011050
 **** Fit      -0.016539
 **** Fit      -0.021235
 **** Fit      -0.024496
 **** Fit      -0.026040
 **** Fit      -0.025990
 **** Fit      -0.024740
 **** Fit       0.005040
 **** Fit       0.003554
 **** Fit       0.001320
 **** Fit      -0.001701
 **** Fit      -0.005396
 **** Fit      -0.009467
 **** Fit      -0.013463
 **** Fit      -0.016885
 **** Fit      -0.019336
 **** Fit      -0.020628
 **** Fit      -0.020815
 **** Fit      -0.002046
 **** Fit      -0.004867
 **** Fit      -0.007885
 **** Fit      -0.002184
 **** Fit      -0.004755
 **** Fit      -0.007775
 **** Fit      -0.011021
 **** Fit      -0.014174
 **** Fit       0.002857
 **** Fit       0.001319
 **** Fit      -0.000974
 **** Fit      -0.004069
 **** Fit      -0.007857
 **** Fit      -0.012045
 **** Fit      -0.016179
 **** Fit      -0.019751
 **** Fit      -0.022341
 **** Fit      -0.023739
 **** Fit      -0.023973
 **** Fit       0.005567
 **** Fit       0.004812
 **** Fit       0.003297
 **** Fit       0.000793
 **** Fit      -0.002831
 **** Fit      -0.007495
 **** Fit      -0.012828
 **** Fit      -0.018197
 **** Fit      -0.022858
 **** Fit      -0.026191
 **** Fit      -0.027889
 **** Fit      -0.028016
 **** Fit      -0.026911
 **** Fit       0.007494
 **** Fit       0.007580
 **** Fit       0.007112
 **** Fit       0.005763
 **** Fit       0.003178
 **** Fit      -0.000912
 **** Fit      -0.006495
 **** Fit      -0.013132
 **** Fit      -0.019971
 **** Fit      -0.025964
 **** Fit      -0.030214
 **** Fit      -0.032282
 **** Fit      -0.032276
 **** Fit      -0.030704
 **** Fit      -0.028192
 **** Fit       0.009185
 **** Fit       0.009658
 **** Fit       0.009591
 **** Fit       0.008567
 **** Fit       0.006074
 **** Fit       0.001662
 **** Fit      -0.004779
 **** Fit      -0.012763
 **** Fit      -0.021199
 **** Fit      -0.028686
 **** Fit      -0.033996
 **** Fit      -0.036511
 **** Fit      -0.036383
 **** Fit      -0.034318
 **** Fit      -0.031165
 **** Fit      -0.027622
 **** Fit       0.009634
 **** Fit       0.010686
 **** Fit       0.011556
 **** Fit       0.011939
 **** Fit       0.011340
 **** Fit       0.009094
 **** Fit       0.004545
 **** Fit      -0.002576
 **** Fit      -0.011764
 **** Fit      -0.021702
 **** Fit      -0.030648
 **** Fit      -0.037035
 **** Fit      -0.040039
 **** Fit      -0.039838
 **** Fit      -0.037335
 **** Fit      -0.033609
 **** Fit      -0.029509
 **** Fit       0.010497
 **** Fit       0.011793
 **** Fit       0.012976
 **** Fit       0.013733
 **** Fit       0.013521
 **** Fit       0.011558
 **** Fit       0.007011
 **** Fit      -0.000535
 **** Fit      -0.010576
 **** Fit      -0.021626
 **** Fit      -0.031687
 **** Fit      -0.038928
 **** Fit      -0.042349
 **** Fit      -0.042128
 **** Fit      -0.039324
 **** Fit      -0.035194
 **** Fit      -0.030707
 **** Fit       0.010933
 **** Fit       0.012334
 **** Fit       0.013654
 **** Fit       0.014580
 **** Fit       0.014549
 **** Fit       0.012729
 **** Fit       0.008212
 **** Fit       0.000511
 **** Fit      -0.009872
 **** Fit      -0.021379
 **** Fit      -0.031900
 **** Fit      -0.039495
 **** Fit      -0.043091
 **** Fit      -0.042869
 **** Fit      -0.039952
 **** Fit      -0.035670
 **** Fit      -0.031041
 **** Fit       0.010894
 **** Fit       0.012234
 **** Fit       0.013472
 **** Fit       0.014294
 **** Fit       0.014151
 **** Fit       0.012244
 **** Fit       0.007714
 **** Fit       0.000126
 **** Fit      -0.010015
 **** Fit      -0.021195
 **** Fit      -0.031372
 **** Fit      -0.038685
 **** Fit      -0.042132
 **** Fit      -0.041906
 **** Fit      -0.039083
 **** Fit      -0.034938
 **** Fit      -0.030443
 **** Fit       0.010409
 **** Fit       0.011542
 **** Fit       0.012510
 **** Fit       0.013004
 **** Fit       0.012519
 **** Fit       0.010363
 **** Fit       0.005839
 **** Fit      -0.001353
 **** Fit      -0.010703
 **** Fit      -0.020849
 **** Fit      -0.029986
 **** Fit      -0.036498
 **** Fit      -0.039554
 **** Fit      -0.039352
 **** Fit      -0.036828
 **** Fit      -0.033083
 **** Fit      -0.028975
 **** Fit       0.010412
 **** Fit       0.011005
 **** Fit       0.011071
 **** Fit       0.010177
 **** Fit       0.007780
 **** Fit       0.003391
 **** Fit      -0.003128
 **** Fit      -0.011288
 **** Fit      -0.019948
 **** Fit      -0.027647
 **** Fit      -0.033106
 **** Fit      -0.035694
 **** Fit      -0.035585
 **** Fit      -0.033513
 **** Fit      -0.030353
 **** Fit      -0.026812
 **** Fit       0.009043
 **** Fit       0.009254
 **** Fit       0.008918
 **** Fit       0.007692
 **** Fit       0.005193
 **** Fit       0.001122
 **** Fit      -0.004532
 **** Fit      -0.011322
 **** Fit      -0.018361
 **** Fit      -0.024547
 **** Fit      -0.028946
 **** Fit      -0.031102
 **** Fit      -0.031138
 **** Fit      -0.029583
 **** Fit      -0.027085
 **** Fit       0.007510
 **** Fit       0.006874
 **** Fit       0.005463
 **** Fit       0.003030
 **** Fit      -0.000580
 **** Fit      -0.005298
 **** Fit      -0.010750
 **** Fit      -0.016276
 **** Fit      -0.021097
 **** Fit      -0.024563
 **** Fit      -0.026354
 **** Fit      -0.026542
 **** Fit      -0.025479
 **** Fit       0.005126
 **** Fit       0.003673
 **** Fit       0.001435
 **** Fit      -0.001648
 **** Fit      -0.005476
 **** Fit      -0.009750
 **** Fit      -0.014000
 **** Fit      -0.017695
 **** Fit      -0.020397
 **** Fit      -0.021886
 **** Fit      -0.022192
 **** Fit       0.000372
 **** Fit      -0.002190
 **** Fit      -0.005237
 **** Fit      -0.008543
 **** Fit      -0.011780
 **** Fit      -0.001835
 **** Fit      -0.004382
 **** Fit      -0.007396
 **** Fit      -0.010660
 **** Fit      -0.013865
 **** Fit       0.002956
 **** Fit       0.001497
 **** Fit      -0.000681
 **** Fit      -0.003623
 **** Fit      -0.007235
 **** Fit      -0.011247
 **** Fit      -0.015246
 **** Fit      -0.018760
 **** Fit      -0.021391
 **** Fit      -0.022918
 **** Fit       0.005267
 **** Fit       0.004535
 **** Fit       0.003111
 **** Fit       0.000800
 **** Fit      -0.002504
 **** Fit      -0.006727
 **** Fit      -0.011552
 **** Fit      -0.016443
 **** Fit      -0.020772
 **** Fit      -0.023993
 **** Fit      -0.025811
 **** Fit      -0.026231
 **** Fit      -0.025498
 **** Fit       0.006722
 **** Fit       0.006181
 **** Fit       0.004867
 **** Fit       0.002506
 **** Fit      -0.001087
 **** Fit      -0.005877
 **** Fit      -0.011509
 **** Fit      -0.017319
 **** Fit      -0.022505
 **** Fit      -0.026358
 **** Fit      -0.028491
 **** Fit      -0.028916
 **** Fit      -0.027963
 **** Fit       0.007841
 **** Fit       0.008025
 **** Fit       0.007695
 **** Fit       0.006539
 **** Fit       0.004205
 **** Fit       0.000420
 **** Fit      -0.004831
 **** Fit      -0.011163
 **** Fit      -0.017802
 **** Fit      -0.023778
 **** Fit      -0.028226
 **** Fit      -0.030662
 **** Fit      -0.031104
 **** Fit      -0.029959
 **** Fit      -0.027795
 **** Fit       0.008642
 **** Fit       0.008993
 **** Fit       0.008839
 **** Fit       0.007829
 **** Fit       0.005553
 **** Fit       0.001670
 **** Fit      -0.003880
 **** Fit      -0.010700
 **** Fit      -0.017935
 **** Fit      -0.024490
 **** Fit      -0.029380
 **** Fit      -0.032048
 **** Fit      -0.032511
 **** Fit      -0.031236
 **** Fit      -0.028867
 **** Fit       0.009050
 **** Fit       0.009475
 **** Fit       0.009400
 **** Fit       0.008461
 **** Fit       0.006221
 **** Fit       0.002312
 **** Fit      -0.003350
 **** Fit      -0.010361
 **** Fit      -0.017833
 **** Fit      -0.024621
 **** Fit      -0.029689
 **** Fit      -0.032451
 **** Fit      -0.032926
 **** Fit      -0.031605
 **** Fit      -0.029162
 **** Fit       0.009017
 **** Fit       0.009402
 **** Fit       0.009284
 **** Fit       0.008308
 **** Fit       0.006055
 **** Fit       0.002175
 **** Fit      -0.003399
 **** Fit      -0.010267
 **** Fit      -0.017562
 **** Fit      -0.024175
 **** Fit      -0.029106
 **** Fit      -0.031796
 **** Fit      -0.032267
 **** Fit      -0.030992
 **** Fit      -0.028622
 **** Fit       0.008574
 **** Fit       0.008819
 **** Fit       0.008554
 **** Fit       0.007456
 **** Fit       0.005161
 **** Fit       0.001380
 **** Fit      -0.003910
 **** Fit      -0.010323
 **** Fit      -0.017066
 **** Fit      -0.023141
 **** Fit      -0.027662
 **** Fit      -0.030142
 **** Fit      -0.030601
 **** Fit      -0.029461
 **** Fit      -0.027298
 **** Fit       0.007862
 **** Fit       0.007400
 **** Fit       0.006157
 **** Fit       0.003843
 **** Fit       0.000254
 **** Fit      -0.004583
 **** Fit      -0.010308
 **** Fit      -0.016238
 **** Fit      -0.021541
 **** Fit      -0.025487
 **** Fit      -0.027679
 **** Fit      -0.028135
 **** Fit      -0.027197
 **** Fit       0.006708
 **** Fit       0.006059
 **** Fit       0.004707
 **** Fit       0.002441
 **** Fit      -0.000859
 **** Fit      -0.005126
 **** Fit      -0.010040
 **** Fit      -0.015047
 **** Fit      -0.019491
 **** Fit      -0.022810
 **** Fit      -0.024698
 **** Fit      -0.025162
 **** Fit      -0.024460
 **** Fit       0.004734
 **** Fit       0.003341
 **** Fit       0.001204
 **** Fit      -0.001734
 **** Fit      -0.005383
 **** Fit      -0.009471
 **** Fit      -0.013569
 **** Fit      -0.017187
 **** Fit      -0.019911
 **** Fit      -0.021512
 **** Fit       0.000250
 **** Fit      -0.002292
 **** Fit      -0.005335
 **** Fit      -0.008659
 **** Fit      -0.011944
 **** Fit      -0.004096
 **** Fit      -0.006908
 **** Fit      -0.009957
 **** Fit       0.001204
 **** Fit      -0.000795
 **** Fit      -0.003450
 **** Fit      -0.006673
 **** Fit      -0.010240
 **** Fit      -0.013806
 **** Fit      -0.016986
 **** Fit      -0.019441
 **** Fit       0.003672
 **** Fit       0.002314
 **** Fit       0.000224
 **** Fit      -0.002659
 **** Fit      -0.006259
 **** Fit      -0.010321
 **** Fit      -0.014434
 **** Fit      -0.018123
 **** Fit      -0.020966
 **** Fit      -0.022715
 **** Fit       0.005335
 **** Fit       0.004661
 **** Fit       0.003345
 **** Fit       0.001210
 **** Fit      -0.001841
 **** Fit      -0.005745
 **** Fit      -0.010226
 **** Fit      -0.014814
 **** Fit      -0.018951
 **** Fit      -0.022141
 **** Fit      -0.024087
 **** Fit      -0.024751
 **** Fit       0.006004
 **** Fit       0.005406
 **** Fit       0.004136
 **** Fit       0.001989
 **** Fit      -0.001162
 **** Fit      -0.005266
 **** Fit      -0.010033
 **** Fit      -0.014953
 **** Fit      -0.019407
 **** Fit      -0.022844
 **** Fit      -0.024932
 **** Fit      -0.025631
 **** Fit      -0.025146
 **** Fit       0.006354
 **** Fit       0.005794
 **** Fit       0.004549
 **** Fit       0.002403
 **** Fit      -0.000781
 **** Fit      -0.004958
 **** Fit      -0.009835
 **** Fit      -0.014884
 **** Fit      -0.019463
 **** Fit      -0.022998
 **** Fit      -0.025144
 **** Fit      -0.025858
 **** Fit      -0.025357
 **** Fit       0.006348
 **** Fit       0.005772
 **** Fit       0.004519
 **** Fit       0.002382
 **** Fit      -0.000769
 **** Fit      -0.004886
 **** Fit      -0.009678
 **** Fit      -0.014628
 **** Fit      -0.019113
 **** Fit      -0.022575
 **** Fit      -0.024681
 **** Fit      -0.025390
 **** Fit      -0.024911
 **** Fit       0.006009
 **** Fit       0.005373
 **** Fit       0.004089
 **** Fit       0.001973
 **** Fit      -0.001079
 **** Fit      -0.005006
 **** Fit      -0.009530
 **** Fit      -0.014173
 **** Fit      -0.018365
 **** Fit      -0.021600
 **** Fit      -0.023579
 **** Fit      -0.024264
 **** Fit       0.004699
 **** Fit       0.003381
 **** Fit       0.001315
 **** Fit      -0.001569
 **** Fit      -0.005197
 **** Fit      -0.009311
 **** Fit      -0.013491
 **** Fit      -0.017248
 **** Fit      -0.020152
 **** Fit      -0.021945
 **** Fit       0.002552
 **** Fit       0.000578
 **** Fit      -0.002077
 **** Fit      -0.005328
 **** Fit      -0.008948
 **** Fit      -0.012584
 **** Fit      -0.015836
 **** Fit      -0.018357
 **** Fit      -0.000099
 **** Fit      -0.002481
 **** Fit      -0.005318
 **** Fit      -0.008416
 **** Fit      -0.011492
 **** Fit      -0.003512
 **** Fit      -0.006251
 **** Fit      -0.009246
 **** Fit      -0.000615
 **** Fit      -0.003050
 **** Fit      -0.005992
 **** Fit      -0.009246
 **** Fit      -0.012518
 **** Fit       0.001740
 **** Fit      -0.000142
 **** Fit      -0.002658
 **** Fit      -0.005732
 **** Fit      -0.009159
 **** Fit      -0.012626
 **** Fit      -0.015767
 **** Fit       0.002026
 **** Fit       0.000135
 **** Fit      -0.002408
 **** Fit      -0.005530
 **** Fit      -0.009024
 **** Fit      -0.012564
 **** Fit      -0.015777
 **** Fit       0.002058
 **** Fit       0.000181
 **** Fit      -0.002335
 **** Fit      -0.005417
 **** Fit      -0.008858
 **** Fit      -0.012341
 **** Fit      -0.015500
 **** Fit       0.001858
 **** Fit       0.000017
 **** Fit      -0.002419
 **** Fit      -0.005374
 **** Fit      -0.008652
 **** Fit      -0.011956
 **** Fit      -0.000289
 **** Fit      -0.002595
 **** Fit      -0.005351
 **** Fit      -0.008377
 -----------------------------------------------------------------
 Leave Link  602 at Fri Apr 28 13:00:41 2017, MaxMem=   33554432 cpu:      94.9
 (Enter /scratch/michal/g09/l9999.exe)

 Test job not archived.
 1\1\GINC-RZEPICHA\SP\RHF\6-31G(d)\C27H46O3\MICHAL\28-Apr-2017\0\\#P HF
 /6-31G* SCF(Conver=6) NoSymm Test Pop=chelpg IOp(6/33=2) GFInput GFPri
 nt\\MEP - Input generated by R.E.D.-III.x MOLECULE\\0,1\C,0,7.5214869,
 2.2144795,0.06269474\H,0,7.35991448,2.18191858,1.14716767\C,0,6.827232
 99,1.00732578,-0.582855\H,0,7.20905951,0.08042322,-0.14419314\H,0,7.10
 854563,0.99146918,-1.64854561\C,0,5.31619196,1.06258835,-0.45751491\C,
 0,4.62470782,2.35957636,-0.88945473\C,0,5.41297847,3.56506841,-0.28842
 678\H,0,5.21193092,3.60340926,0.79128721\H,0,5.02857507,4.50021035,-0.
 70924508\C,0,6.93488927,3.51188536,-0.49273877\H,0,7.1824794,3.5878544
 2,-1.56186667\H,0,7.40828844,4.36874383,0.\C,0,4.64107126,0.,0.\H,0,5.
 18213392,-0.89376486,0.30254495\C,0,3.14791444,-0.10251823,0.1037145\H
 ,0,2.84787556,-0.20952871,1.15775936\C,0,2.38367008,1.06180238,-0.5477
 6666\H,0,2.32877976,0.84163496,-1.62175816\C,0,3.16098379,2.39178796,-
 0.33016639\H,0,3.26474654,2.50159069,0.76170671\C,0,2.34417215,3.60875
 359,-0.82451714\H,0,2.29521374,3.60224863,-1.91863598\H,0,2.86466331,4
 .53267306,-0.55053699\C,0,0.91064062,3.67251077,-0.26336584\H,0,0.9535
 8159,3.83334197,0.82311992\H,0,0.40435668,4.54601538,-0.69052108\C,0,0
 .12661425,2.37781286,-0.54781708\C,0,0.96499343,1.20047641,0.03496348\
 H,0,1.11197961,1.45162944,1.09900675\C,0,0.,0.,0.\H,0,0.26405437,-0.76
 228802,0.73955875\H,0,0.02878076,-0.49166021,-0.9775493\C,0,-1.3935729
 8,0.63184362,0.27672565\H,0,-2.11338133,0.32799782,-0.48994013\H,0,-1.
 81032995,0.30219939,1.23492826\C,0,-1.18880757,2.17935556,0.28240054\H
 ,0,-0.90003107,2.439382,1.30982715\C,0,-0.10519227,2.2191697,-2.068439
 42\H,0,0.82908501,2.05337253,-2.61073877\H,0,-0.76450185,1.37939273,-2
 .30178524\H,0,-0.56069271,3.1218324,-2.48540399\C,0,-2.50765484,2.9667
 2839,0.03086237\H,0,-3.20808196,2.53249722,0.76336234\C,0,-3.17348229,
 2.7822553,-1.34803923\H,0,-2.67863096,3.37162991,-2.12543451\H,0,-4.21
 479028,3.12057072,-1.30073177\H,0,-3.1861982,1.73930957,-1.67730379\C,
 0,4.64967937,2.44114651,-2.43931288\H,0,4.30511246,3.41784188,-2.79327
 016\H,0,5.65954526,2.29454479,-2.83112424\H,0,4.01713314,1.66876518,-2
 .8868279\O,0,2.68763394,-1.28792094,-0.59316109\O,0,3.16382743,-2.4527
 0386,0.14630074\H,0,2.31813136,-2.82169168,0.44991234\O,0,8.94323951,2
 .15098627,-0.08072275\H,0,9.16019662,2.16849571,-1.02348949\C,0,-2.436
 83193,4.47865506,0.35822825\H,0,-1.70454589,4.96750518,-0.29830365\H,0
 ,-3.40898784,4.91119988,0.08816519\C,0,-2.13089194,4.83581294,1.820988
 62\H,0,-2.86569643,4.34427406,2.47331075\H,0,-1.15607831,4.42467541,2.
 10811253\C,0,-2.09775602,6.3483777,2.11227846\H,0,-1.32299449,6.807545
 5,1.48121511\H,0,-1.76728288,6.49621524,3.15114766\C,0,-3.41351726,7.1
 3113669,1.91378179\H,0,-3.73580924,7.00886143,0.86990984\C,0,-4.544232
 13,6.61809419,2.81951012\H,0,-4.26134477,6.69582286,3.8774569\H,0,-5.4
 5746396,7.206798,2.67639282\H,0,-4.79315377,5.57120231,2.61771803\C,0,
 -3.17551473,8.6318856,2.14680435\H,0,-2.85632431,8.82170743,3.17973924
 \H,0,-4.08837481,9.21194872,1.96972784\H,0,-2.39637545,9.02108816,1.48
 127284\\Version=EM64L-G09RevC.01\HF=-1273.6767453\RMSD=5.650e-07\Dipol
 e=-0.8984403,0.5612042,-0.0820802\Quadrupole=-13.2874002,6.8663241,6.4
 210761,4.5719308,-7.7785864,-5.7631164\PG=C01 [X(C27H46O3)]\\@


 ... A MOLECULAR SYSTEM ... (PASSES) ... FROM ONE STATE OF EQUILIBRIUM 
 TO ANOTHER ... BY MEANS OF ALL POSSIBLE INTERMEDIATE PATHS, 
 BUT THE PATH MOST ECONOMICAL OF ENERGY WILL BE THE MORE OFTEN TRAVELED.

                      -- HENRY EYRING, 1945
 Job cpu time:  0 days  0 hours 43 minutes 25.7 seconds.
 File lengths (MBytes):  RWF=    159 Int=      0 D2E=      0 Chk=     11 Scr=      1
 Normal termination of Gaussian 09 at Fri Apr 28 13:00:42 2017.
