 Entering Gaussian System, Link 0=/scratch/michal/g09//g09
 Input=JOB2-gau_m1-2-2.com
 Output=JOB2-gau_m1-2-2.log
 Initial command:
 /scratch/michal/g09/l1.exe /scratch/michal/gauss_scratch/Gau-31564.inp -scrdir=/scratch/michal/gauss_scratch/
 Entering Link 1 = /scratch/michal/g09/l1.exe PID=     31566.
  
 Copyright (c) 1988,1990,1992,1993,1995,1998,2003,2009,2011,
            Gaussian, Inc.  All Rights Reserved.
  
 This is part of the Gaussian(R) 09 program.  It is based on
 the Gaussian(R) 03 system (copyright 2003, Gaussian, Inc.),
 the Gaussian(R) 98 system (copyright 1998, Gaussian, Inc.),
 the Gaussian(R) 94 system (copyright 1995, Gaussian, Inc.),
 the Gaussian 92(TM) system (copyright 1992, Gaussian, Inc.),
 the Gaussian 90(TM) system (copyright 1990, Gaussian, Inc.),
 the Gaussian 88(TM) system (copyright 1988, Gaussian, Inc.),
 the Gaussian 86(TM) system (copyright 1986, Carnegie Mellon
 University), and the Gaussian 82(TM) system (copyright 1983,
 Carnegie Mellon University). Gaussian is a federally registered
 trademark of Gaussian, Inc.
  
 This software contains proprietary and confidential information,
 including trade secrets, belonging to Gaussian, Inc.
  
 This software is provided under written license and may be
 used, copied, transmitted, or stored only in accord with that
 written license.
  
 The following legend is applicable only to US Government
 contracts under FAR:
  
                    RESTRICTED RIGHTS LEGEND
  
 Use, reproduction and disclosure by the US Government is
 subject to restrictions as set forth in subparagraphs (a)
 and (c) of the Commercial Computer Software - Restricted
 Rights clause in FAR 52.227-19.
  
 Gaussian, Inc.
 340 Quinnipiac St., Bldg. 40, Wallingford CT 06492
  
  
 ---------------------------------------------------------------
 Warning -- This program may not be used in any manner that
 competes with the business of Gaussian, Inc. or will provide
 assistance to any competitor of Gaussian, Inc.  The licensee
 of this program is prohibited from giving any competitor of
 Gaussian, Inc. access to this program.  By using this program,
 the user acknowledges that Gaussian, Inc. is engaged in the
 business of creating and licensing software in the field of
 computational chemistry and represents and warrants to the
 licensee that it is not a competitor of Gaussian, Inc. and that
 it will not use this program in any manner prohibited above.
 ---------------------------------------------------------------
  

 Cite this work as:
 Gaussian 09, Revision C.01,
 M. J. Frisch, G. W. Trucks, H. B. Schlegel, G. E. Scuseria, 
 M. A. Robb, J. R. Cheeseman, G. Scalmani, V. Barone, B. Mennucci, 
 G. A. Petersson, H. Nakatsuji, M. Caricato, X. Li, H. P. Hratchian, 
 A. F. Izmaylov, J. Bloino, G. Zheng, J. L. Sonnenberg, M. Hada, 
 M. Ehara, K. Toyota, R. Fukuda, J. Hasegawa, M. Ishida, T. Nakajima, 
 Y. Honda, O. Kitao, H. Nakai, T. Vreven, J. A. Montgomery, Jr., 
 J. E. Peralta, F. Ogliaro, M. Bearpark, J. J. Heyd, E. Brothers, 
 K. N. Kudin, V. N. Staroverov, T. Keith, R. Kobayashi, J. Normand, 
 K. Raghavachari, A. Rendell, J. C. Burant, S. S. Iyengar, J. Tomasi, 
 M. Cossi, N. Rega, J. M. Millam, M. Klene, J. E. Knox, J. B. Cross, 
 V. Bakken, C. Adamo, J. Jaramillo, R. Gomperts, R. E. Stratmann, 
 O. Yazyev, A. J. Austin, R. Cammi, C. Pomelli, J. W. Ochterski, 
 R. L. Martin, K. Morokuma, V. G. Zakrzewski, G. A. Voth, 
 P. Salvador, J. J. Dannenberg, S. Dapprich, A. D. Daniels, 
 O. Farkas, J. B. Foresman, J. V. Ortiz, J. Cioslowski, 
 and D. J. Fox, Gaussian, Inc., Wallingford CT, 2010.
 
 ******************************************
 Gaussian 09:  EM64L-G09RevC.01 23-Sep-2011
                28-Apr-2017 
 ******************************************
 %Mem=256MB
 %NProc=48
 Will use up to   48 processors via shared memory.
 ----------------------------------------------------------------------
 #P HF/6-31G* SCF(Conver=6) NoSymm Test Pop=chelpg IOp(6/33=2) GFInput 
 GFPrint
 ----------------------------------------------------------------------
 1/38=1/1;
 2/12=2,15=1,17=6,18=5,40=1/2;
 3/5=1,6=6,7=1,11=9,16=1,24=110,25=1,30=1/1,2,3;
 4//1;
 5/5=2,6=6,38=5/2;
 6/7=2,8=2,9=2,10=2,15=8,20=3,28=1,33=2/1,2;
 99/5=1,9=1/99;
 Leave Link    1 at Fri Apr 28 12:04:01 2017, MaxMem=   33554432 cpu:       3.5
 (Enter /scratch/michal/g09/l101.exe)
 ----------------------------------------------
 MEP - Input generated by R.E.D.-III.x MOLECULE
 ----------------------------------------------
 Charge =  0 Multiplicity = 1
 Symbolic Z-Matrix:
 C                     7.50806   2.21766   0.07498 
 H                     7.33894   2.19078   1.15846 
 C                     6.81895   1.00673  -0.56905 
 H                     7.19808   0.08233  -0.12279 
 H                     7.10808   0.98544  -1.63257 
 C                     5.30696   1.06165  -0.45526 
 C                     4.61789   2.35644  -0.89735 
 C                     5.40153   3.5653   -0.29745 
 H                     5.19361   3.60894   0.78075 
 H                     5.01898   4.49804  -0.72535 
 C                     6.92481   3.51187  -0.49138 
 H                     7.17964   3.58225  -1.55921 
 H                     7.39454   4.37152   0. 
 C                     4.62879   0.        0. 
 H                     5.16799  -0.89261   0.30925 
 C                     3.13496  -0.10339   0.09214 
 H                     2.82751  -0.21341   1.1437 
 C                     2.37402   1.06178  -0.56163 
 H                     2.31741   0.84082  -1.63567 
 C                     3.15128   2.39061  -0.3464 
 H                     3.24906   2.50645   0.74535 
 C                     2.33377   3.6006   -0.85281 
 H                     2.29281   3.58639  -1.94739 
 H                     2.84844   4.52885  -0.58221 
 C                     0.89548   3.66613  -0.30391 
 H                     0.92702   3.83245   0.78264 
 H                     0.39945   4.54017  -0.73693 
 C                     0.11169   2.36736  -0.58103 
 C                     0.95441   1.20398   0.0185 
 H                     1.09575   1.47187   1.07977 
 C                     0.        0.        0. 
 H                     0.27735  -0.76057   0.73649 
 H                     0.01558  -0.49299  -0.9772 
 C                    -1.3885    0.62647   0.29897 
 H                    -2.13382   0.28437  -0.42903 
 H                    -1.75735   0.32162   1.28297 
 C                    -1.22402   2.18223   0.22146 
 H                    -1.01999   2.55313   1.23869 
 C                    -0.14168   2.19067  -2.09575 
 H                     0.78667   2.11671  -2.66771 
 H                    -0.72458   1.29016  -2.31077 
 H                    -0.69972   3.04328  -2.49616 
 C                    -2.51576   2.89319  -0.26024 
 H                    -2.77353   2.48641  -1.25018 
 C                    -2.35793   4.41751  -0.40032 
 H                    -2.0256    4.86599   0.54454 
 H                    -3.30572   4.88924  -0.6757 
 H                    -1.63309   4.68901  -1.17074 
 C                     4.65236   2.43029  -2.44735 
 H                     4.30916   3.40492  -2.80824 
 H                     5.66485   2.28273  -2.832 
 H                     4.02346   1.65496  -2.89487 
 O                     2.68032  -1.28739  -0.61115 
 O                     3.15093  -2.45391   0.12914 
 H                     2.30303  -2.82366   0.42556 
 O                     8.93081   2.15402  -0.05814 
 H                     9.15437   2.1666   -0.99945 
 C                    -3.69394   2.55997   0.68933 
 H                    -3.73089   1.47664   0.85359 
 H                    -3.48538   3.0094    1.67114 
 C                    -5.08044   3.00276   0.19135 
 H                    -5.14687   4.09616   0.15606 
 H                    -5.20505   2.66128  -0.84614 
 C                    -6.25347   2.44461   1.01842 
 H                    -6.21699   1.34622   0.97975 
 H                    -7.19617   2.73376   0.53053 
 C                    -6.32562   2.87696   2.49858 
 H                    -5.39166   2.5719    2.9921 
 C                    -6.46851   4.3988    2.65929 
 H                    -7.37738   4.75945   2.16013 
 H                    -6.53955   4.67535   3.7174 
 H                    -5.61768   4.94119   2.23432 
 C                    -7.47934   2.1496    3.20753 
 H                    -8.4449    2.41871   2.76018 
 H                    -7.52182   2.41154   4.27092 
 H                    -7.37089   1.06134   3.13413 
 
 NAtoms=     76 NQM=        0 NQMF=       0 NMMI=     76 NMMIF=      0
                NMic=       0 NMicF=      0.
                    Isotopes and Nuclear Properties:
 (Nuclear quadrupole moments (NQMom) in fm**2, nuclear magnetic moments (NMagM)
  in nuclear magnetons)

  Atom         1           2           3           4           5           6           7           8           9          10
 IAtWgt=          12           1          12           1           1          12          12          12           1           1
 AtmWgt=  12.0000000   1.0078250  12.0000000   1.0078250   1.0078250  12.0000000  12.0000000  12.0000000   1.0078250   1.0078250
 NucSpn=           0           1           0           1           1           0           0           0           1           1
 AtZEff=   0.0000000   0.0000000   0.0000000   0.0000000   0.0000000   0.0000000   0.0000000   0.0000000   0.0000000   0.0000000
 NQMom=    0.0000000   0.0000000   0.0000000   0.0000000   0.0000000   0.0000000   0.0000000   0.0000000   0.0000000   0.0000000
 NMagM=    0.0000000   2.7928460   0.0000000   2.7928460   2.7928460   0.0000000   0.0000000   0.0000000   2.7928460   2.7928460

  Atom        11          12          13          14          15          16          17          18          19          20
 IAtWgt=          12           1           1          12           1          12           1          12           1          12
 AtmWgt=  12.0000000   1.0078250   1.0078250  12.0000000   1.0078250  12.0000000   1.0078250  12.0000000   1.0078250  12.0000000
 NucSpn=           0           1           1           0           1           0           1           0           1           0
 AtZEff=   0.0000000   0.0000000   0.0000000   0.0000000   0.0000000   0.0000000   0.0000000   0.0000000   0.0000000   0.0000000
 NQMom=    0.0000000   0.0000000   0.0000000   0.0000000   0.0000000   0.0000000   0.0000000   0.0000000   0.0000000   0.0000000
 NMagM=    0.0000000   2.7928460   2.7928460   0.0000000   2.7928460   0.0000000   2.7928460   0.0000000   2.7928460   0.0000000

  Atom        21          22          23          24          25          26          27          28          29          30
 IAtWgt=           1          12           1           1          12           1           1          12          12           1
 AtmWgt=   1.0078250  12.0000000   1.0078250   1.0078250  12.0000000   1.0078250   1.0078250  12.0000000  12.0000000   1.0078250
 NucSpn=           1           0           1           1           0           1           1           0           0           1
 AtZEff=   0.0000000   0.0000000   0.0000000   0.0000000   0.0000000   0.0000000   0.0000000   0.0000000   0.0000000   0.0000000
 NQMom=    0.0000000   0.0000000   0.0000000   0.0000000   0.0000000   0.0000000   0.0000000   0.0000000   0.0000000   0.0000000
 NMagM=    2.7928460   0.0000000   2.7928460   2.7928460   0.0000000   2.7928460   2.7928460   0.0000000   0.0000000   2.7928460

  Atom        31          32          33          34          35          36          37          38          39          40
 IAtWgt=          12           1           1          12           1           1          12           1          12           1
 AtmWgt=  12.0000000   1.0078250   1.0078250  12.0000000   1.0078250   1.0078250  12.0000000   1.0078250  12.0000000   1.0078250
 NucSpn=           0           1           1           0           1           1           0           1           0           1
 AtZEff=   0.0000000   0.0000000   0.0000000   0.0000000   0.0000000   0.0000000   0.0000000   0.0000000   0.0000000   0.0000000
 NQMom=    0.0000000   0.0000000   0.0000000   0.0000000   0.0000000   0.0000000   0.0000000   0.0000000   0.0000000   0.0000000
 NMagM=    0.0000000   2.7928460   2.7928460   0.0000000   2.7928460   2.7928460   0.0000000   2.7928460   0.0000000   2.7928460

  Atom        41          42          43          44          45          46          47          48          49          50
 IAtWgt=           1           1          12           1          12           1           1           1          12           1
 AtmWgt=   1.0078250   1.0078250  12.0000000   1.0078250  12.0000000   1.0078250   1.0078250   1.0078250  12.0000000   1.0078250
 NucSpn=           1           1           0           1           0           1           1           1           0           1
 AtZEff=   0.0000000   0.0000000   0.0000000   0.0000000   0.0000000   0.0000000   0.0000000   0.0000000   0.0000000   0.0000000
 NQMom=    0.0000000   0.0000000   0.0000000   0.0000000   0.0000000   0.0000000   0.0000000   0.0000000   0.0000000   0.0000000
 NMagM=    2.7928460   2.7928460   0.0000000   2.7928460   0.0000000   2.7928460   2.7928460   2.7928460   0.0000000   2.7928460

  Atom        51          52          53          54          55          56          57          58          59          60
 IAtWgt=           1           1          16          16           1          16           1          12           1           1
 AtmWgt=   1.0078250   1.0078250  15.9949146  15.9949146   1.0078250  15.9949146   1.0078250  12.0000000   1.0078250   1.0078250
 NucSpn=           1           1           0           0           1           0           1           0           1           1
 AtZEff=   0.0000000   0.0000000   0.0000000   0.0000000   0.0000000   0.0000000   0.0000000   0.0000000   0.0000000   0.0000000
 NQMom=    0.0000000   0.0000000   0.0000000   0.0000000   0.0000000   0.0000000   0.0000000   0.0000000   0.0000000   0.0000000
 NMagM=    2.7928460   2.7928460   0.0000000   0.0000000   2.7928460   0.0000000   2.7928460   0.0000000   2.7928460   2.7928460

  Atom        61          62          63          64          65          66          67          68          69          70
 IAtWgt=          12           1           1          12           1           1          12           1          12           1
 AtmWgt=  12.0000000   1.0078250   1.0078250  12.0000000   1.0078250   1.0078250  12.0000000   1.0078250  12.0000000   1.0078250
 NucSpn=           0           1           1           0           1           1           0           1           0           1
 AtZEff=   0.0000000   0.0000000   0.0000000   0.0000000   0.0000000   0.0000000   0.0000000   0.0000000   0.0000000   0.0000000
 NQMom=    0.0000000   0.0000000   0.0000000   0.0000000   0.0000000   0.0000000   0.0000000   0.0000000   0.0000000   0.0000000
 NMagM=    0.0000000   2.7928460   2.7928460   0.0000000   2.7928460   2.7928460   0.0000000   2.7928460   0.0000000   2.7928460

  Atom        71          72          73          74          75          76
 IAtWgt=           1           1          12           1           1           1
 AtmWgt=   1.0078250   1.0078250  12.0000000   1.0078250   1.0078250   1.0078250
 NucSpn=           1           1           0           1           1           1
 AtZEff=   0.0000000   0.0000000   0.0000000   0.0000000   0.0000000   0.0000000
 NQMom=    0.0000000   0.0000000   0.0000000   0.0000000   0.0000000   0.0000000
 NMagM=    2.7928460   2.7928460   0.0000000   2.7928460   2.7928460   2.7928460
 Leave Link  101 at Fri Apr 28 12:04:02 2017, MaxMem=   33554432 cpu:      12.2
 (Enter /scratch/michal/g09/l202.exe)
 Symmetry turned off by external request.
 Stoichiometry    C27H46O3
 Framework group  C1[X(C27H46O3)]
 Deg. of freedom   222
 Full point group                 C1      NOp   1
                          Input orientation:                          
 ---------------------------------------------------------------------
 Center     Atomic      Atomic             Coordinates (Angstroms)
 Number     Number       Type             X           Y           Z
 ---------------------------------------------------------------------
      1          6           0        7.508062    2.217657    0.074984
      2          1           0        7.338937    2.190777    1.158463
      3          6           0        6.818950    1.006726   -0.569052
      4          1           0        7.198077    0.082331   -0.122792
      5          1           0        7.108076    0.985443   -1.632566
      6          6           0        5.306961    1.061649   -0.455260
      7          6           0        4.617891    2.356442   -0.897348
      8          6           0        5.401529    3.565305   -0.297453
      9          1           0        5.193614    3.608939    0.780751
     10          1           0        5.018981    4.498039   -0.725352
     11          6           0        6.924805    3.511874   -0.491376
     12          1           0        7.179643    3.582246   -1.559212
     13          1           0        7.394543    4.371524    0.000000
     14          6           0        4.628788    0.000000    0.000000
     15          1           0        5.167989   -0.892613    0.309252
     16          6           0        3.134964   -0.103394    0.092137
     17          1           0        2.827513   -0.213415    1.143705
     18          6           0        2.374018    1.061781   -0.561630
     19          1           0        2.317408    0.840822   -1.635668
     20          6           0        3.151282    2.390608   -0.346399
     21          1           0        3.249065    2.506450    0.745347
     22          6           0        2.333766    3.600596   -0.852808
     23          1           0        2.292813    3.586387   -1.947391
     24          1           0        2.848439    4.528855   -0.582209
     25          6           0        0.895484    3.666135   -0.303905
     26          1           0        0.927015    3.832448    0.782636
     27          1           0        0.399446    4.540169   -0.736929
     28          6           0        0.111691    2.367355   -0.581033
     29          6           0        0.954406    1.203983    0.018501
     30          1           0        1.095752    1.471865    1.079772
     31          6           0        0.000000    0.000000    0.000000
     32          1           0        0.277345   -0.760570    0.736492
     33          1           0        0.015579   -0.492985   -0.977196
     34          6           0       -1.388495    0.626465    0.298970
     35          1           0       -2.133821    0.284366   -0.429033
     36          1           0       -1.757346    0.321615    1.282967
     37          6           0       -1.224016    2.182235    0.221455
     38          1           0       -1.019987    2.553131    1.238693
     39          6           0       -0.141677    2.190670   -2.095752
     40          1           0        0.786666    2.116714   -2.667711
     41          1           0       -0.724575    1.290164   -2.310774
     42          1           0       -0.699723    3.043282   -2.496155
     43          6           0       -2.515760    2.893193   -0.260239
     44          1           0       -2.773529    2.486407   -1.250179
     45          6           0       -2.357930    4.417506   -0.400317
     46          1           0       -2.025600    4.865988    0.544544
     47          1           0       -3.305717    4.889243   -0.675697
     48          1           0       -1.633094    4.689006   -1.170743
     49          6           0        4.652360    2.430290   -2.447350
     50          1           0        4.309159    3.404921   -2.808245
     51          1           0        5.664848    2.282735   -2.832002
     52          1           0        4.023458    1.654963   -2.894873
     53          8           0        2.680321   -1.287388   -0.611148
     54          8           0        3.150928   -2.453914    0.129136
     55          1           0        2.303027   -2.823662    0.425559
     56          8           0        8.930811    2.154021   -0.058145
     57          1           0        9.154371    2.166604   -0.999447
     58          6           0       -3.693941    2.559973    0.689335
     59          1           0       -3.730885    1.476640    0.853591
     60          1           0       -3.485377    3.009398    1.671136
     61          6           0       -5.080437    3.002762    0.191355
     62          1           0       -5.146872    4.096162    0.156063
     63          1           0       -5.205050    2.661276   -0.846138
     64          6           0       -6.253467    2.444612    1.018424
     65          1           0       -6.216991    1.346219    0.979751
     66          1           0       -7.196170    2.733758    0.530532
     67          6           0       -6.325621    2.876957    2.498575
     68          1           0       -5.391661    2.571902    2.992099
     69          6           0       -6.468506    4.398802    2.659293
     70          1           0       -7.377382    4.759455    2.160129
     71          1           0       -6.539551    4.675351    3.717400
     72          1           0       -5.617684    4.941194    2.234325
     73          6           0       -7.479339    2.149596    3.207528
     74          1           0       -8.444904    2.418711    2.760179
     75          1           0       -7.521821    2.411536    4.270918
     76          1           0       -7.370892    1.061344    3.134126
 ---------------------------------------------------------------------
 Rotational constants (GHZ):      0.3468223      0.0539993      0.0502322
 Leave Link  202 at Fri Apr 28 12:04:02 2017, MaxMem=   33554432 cpu:       1.5
 (Enter /scratch/michal/g09/l301.exe)
 Standard basis: 6-31G(d) (6D, 7F)
 Ernie: Thresh=  0.10000D-02 Tol=  0.10000D-05 Strict=F.
 AO basis set in the form of general basis input (Overlap normalization):
      1 0
 S   6 1.00       0.000000000000
      0.3047524880D+04  0.1834737132D-02
      0.4573695180D+03  0.1403732281D-01
      0.1039486850D+03  0.6884262226D-01
      0.2921015530D+02  0.2321844432D+00
      0.9286662960D+01  0.4679413484D+00
      0.3163926960D+01  0.3623119853D+00
 SP   3 1.00       0.000000000000
      0.7868272350D+01 -0.1193324198D+00  0.6899906659D-01
      0.1881288540D+01 -0.1608541517D+00  0.3164239610D+00
      0.5442492580D+00  0.1143456438D+01  0.7443082909D+00
 SP   1 1.00       0.000000000000
      0.1687144782D+00  0.1000000000D+01  0.1000000000D+01
 D   1 1.00       0.000000000000
      0.8000000000D+00  0.1000000000D+01
 ****
      2 0
 S   3 1.00       0.000000000000
      0.1873113696D+02  0.3349460434D-01
      0.2825394365D+01  0.2347269535D+00
      0.6401216923D+00  0.8137573261D+00
 S   1 1.00       0.000000000000
      0.1612777588D+00  0.1000000000D+01
 ****
      3 0
 S   6 1.00       0.000000000000
      0.3047524880D+04  0.1834737132D-02
      0.4573695180D+03  0.1403732281D-01
      0.1039486850D+03  0.6884262226D-01
      0.2921015530D+02  0.2321844432D+00
      0.9286662960D+01  0.4679413484D+00
      0.3163926960D+01  0.3623119853D+00
 SP   3 1.00       0.000000000000
      0.7868272350D+01 -0.1193324198D+00  0.6899906659D-01
      0.1881288540D+01 -0.1608541517D+00  0.3164239610D+00
      0.5442492580D+00  0.1143456438D+01  0.7443082909D+00
 SP   1 1.00       0.000000000000
      0.1687144782D+00  0.1000000000D+01  0.1000000000D+01
 D   1 1.00       0.000000000000
      0.8000000000D+00  0.1000000000D+01
 ****
      4 0
 S   3 1.00       0.000000000000
      0.1873113696D+02  0.3349460434D-01
      0.2825394365D+01  0.2347269535D+00
      0.6401216923D+00  0.8137573261D+00
 S   1 1.00       0.000000000000
      0.1612777588D+00  0.1000000000D+01
 ****
      5 0
 S   3 1.00       0.000000000000
      0.1873113696D+02  0.3349460434D-01
      0.2825394365D+01  0.2347269535D+00
      0.6401216923D+00  0.8137573261D+00
 S   1 1.00       0.000000000000
      0.1612777588D+00  0.1000000000D+01
 ****
      6 0
 S   6 1.00       0.000000000000
      0.3047524880D+04  0.1834737132D-02
      0.4573695180D+03  0.1403732281D-01
      0.1039486850D+03  0.6884262226D-01
      0.2921015530D+02  0.2321844432D+00
      0.9286662960D+01  0.4679413484D+00
      0.3163926960D+01  0.3623119853D+00
 SP   3 1.00       0.000000000000
      0.7868272350D+01 -0.1193324198D+00  0.6899906659D-01
      0.1881288540D+01 -0.1608541517D+00  0.3164239610D+00
      0.5442492580D+00  0.1143456438D+01  0.7443082909D+00
 SP   1 1.00       0.000000000000
      0.1687144782D+00  0.1000000000D+01  0.1000000000D+01
 D   1 1.00       0.000000000000
      0.8000000000D+00  0.1000000000D+01
 ****
      7 0
 S   6 1.00       0.000000000000
      0.3047524880D+04  0.1834737132D-02
      0.4573695180D+03  0.1403732281D-01
      0.1039486850D+03  0.6884262226D-01
      0.2921015530D+02  0.2321844432D+00
      0.9286662960D+01  0.4679413484D+00
      0.3163926960D+01  0.3623119853D+00
 SP   3 1.00       0.000000000000
      0.7868272350D+01 -0.1193324198D+00  0.6899906659D-01
      0.1881288540D+01 -0.1608541517D+00  0.3164239610D+00
      0.5442492580D+00  0.1143456438D+01  0.7443082909D+00
 SP   1 1.00       0.000000000000
      0.1687144782D+00  0.1000000000D+01  0.1000000000D+01
 D   1 1.00       0.000000000000
      0.8000000000D+00  0.1000000000D+01
 ****
      8 0
 S   6 1.00       0.000000000000
      0.3047524880D+04  0.1834737132D-02
      0.4573695180D+03  0.1403732281D-01
      0.1039486850D+03  0.6884262226D-01
      0.2921015530D+02  0.2321844432D+00
      0.9286662960D+01  0.4679413484D+00
      0.3163926960D+01  0.3623119853D+00
 SP   3 1.00       0.000000000000
      0.7868272350D+01 -0.1193324198D+00  0.6899906659D-01
      0.1881288540D+01 -0.1608541517D+00  0.3164239610D+00
      0.5442492580D+00  0.1143456438D+01  0.7443082909D+00
 SP   1 1.00       0.000000000000
      0.1687144782D+00  0.1000000000D+01  0.1000000000D+01
 D   1 1.00       0.000000000000
      0.8000000000D+00  0.1000000000D+01
 ****
      9 0
 S   3 1.00       0.000000000000
      0.1873113696D+02  0.3349460434D-01
      0.2825394365D+01  0.2347269535D+00
      0.6401216923D+00  0.8137573261D+00
 S   1 1.00       0.000000000000
      0.1612777588D+00  0.1000000000D+01
 ****
     10 0
 S   3 1.00       0.000000000000
      0.1873113696D+02  0.3349460434D-01
      0.2825394365D+01  0.2347269535D+00
      0.6401216923D+00  0.8137573261D+00
 S   1 1.00       0.000000000000
      0.1612777588D+00  0.1000000000D+01
 ****
     11 0
 S   6 1.00       0.000000000000
      0.3047524880D+04  0.1834737132D-02
      0.4573695180D+03  0.1403732281D-01
      0.1039486850D+03  0.6884262226D-01
      0.2921015530D+02  0.2321844432D+00
      0.9286662960D+01  0.4679413484D+00
      0.3163926960D+01  0.3623119853D+00
 SP   3 1.00       0.000000000000
      0.7868272350D+01 -0.1193324198D+00  0.6899906659D-01
      0.1881288540D+01 -0.1608541517D+00  0.3164239610D+00
      0.5442492580D+00  0.1143456438D+01  0.7443082909D+00
 SP   1 1.00       0.000000000000
      0.1687144782D+00  0.1000000000D+01  0.1000000000D+01
 D   1 1.00       0.000000000000
      0.8000000000D+00  0.1000000000D+01
 ****
     12 0
 S   3 1.00       0.000000000000
      0.1873113696D+02  0.3349460434D-01
      0.2825394365D+01  0.2347269535D+00
      0.6401216923D+00  0.8137573261D+00
 S   1 1.00       0.000000000000
      0.1612777588D+00  0.1000000000D+01
 ****
     13 0
 S   3 1.00       0.000000000000
      0.1873113696D+02  0.3349460434D-01
      0.2825394365D+01  0.2347269535D+00
      0.6401216923D+00  0.8137573261D+00
 S   1 1.00       0.000000000000
      0.1612777588D+00  0.1000000000D+01
 ****
     14 0
 S   6 1.00       0.000000000000
      0.3047524880D+04  0.1834737132D-02
      0.4573695180D+03  0.1403732281D-01
      0.1039486850D+03  0.6884262226D-01
      0.2921015530D+02  0.2321844432D+00
      0.9286662960D+01  0.4679413484D+00
      0.3163926960D+01  0.3623119853D+00
 SP   3 1.00       0.000000000000
      0.7868272350D+01 -0.1193324198D+00  0.6899906659D-01
      0.1881288540D+01 -0.1608541517D+00  0.3164239610D+00
      0.5442492580D+00  0.1143456438D+01  0.7443082909D+00
 SP   1 1.00       0.000000000000
      0.1687144782D+00  0.1000000000D+01  0.1000000000D+01
 D   1 1.00       0.000000000000
      0.8000000000D+00  0.1000000000D+01
 ****
     15 0
 S   3 1.00       0.000000000000
      0.1873113696D+02  0.3349460434D-01
      0.2825394365D+01  0.2347269535D+00
      0.6401216923D+00  0.8137573261D+00
 S   1 1.00       0.000000000000
      0.1612777588D+00  0.1000000000D+01
 ****
     16 0
 S   6 1.00       0.000000000000
      0.3047524880D+04  0.1834737132D-02
      0.4573695180D+03  0.1403732281D-01
      0.1039486850D+03  0.6884262226D-01
      0.2921015530D+02  0.2321844432D+00
      0.9286662960D+01  0.4679413484D+00
      0.3163926960D+01  0.3623119853D+00
 SP   3 1.00       0.000000000000
      0.7868272350D+01 -0.1193324198D+00  0.6899906659D-01
      0.1881288540D+01 -0.1608541517D+00  0.3164239610D+00
      0.5442492580D+00  0.1143456438D+01  0.7443082909D+00
 SP   1 1.00       0.000000000000
      0.1687144782D+00  0.1000000000D+01  0.1000000000D+01
 D   1 1.00       0.000000000000
      0.8000000000D+00  0.1000000000D+01
 ****
     17 0
 S   3 1.00       0.000000000000
      0.1873113696D+02  0.3349460434D-01
      0.2825394365D+01  0.2347269535D+00
      0.6401216923D+00  0.8137573261D+00
 S   1 1.00       0.000000000000
      0.1612777588D+00  0.1000000000D+01
 ****
     18 0
 S   6 1.00       0.000000000000
      0.3047524880D+04  0.1834737132D-02
      0.4573695180D+03  0.1403732281D-01
      0.1039486850D+03  0.6884262226D-01
      0.2921015530D+02  0.2321844432D+00
      0.9286662960D+01  0.4679413484D+00
      0.3163926960D+01  0.3623119853D+00
 SP   3 1.00       0.000000000000
      0.7868272350D+01 -0.1193324198D+00  0.6899906659D-01
      0.1881288540D+01 -0.1608541517D+00  0.3164239610D+00
      0.5442492580D+00  0.1143456438D+01  0.7443082909D+00
 SP   1 1.00       0.000000000000
      0.1687144782D+00  0.1000000000D+01  0.1000000000D+01
 D   1 1.00       0.000000000000
      0.8000000000D+00  0.1000000000D+01
 ****
     19 0
 S   3 1.00       0.000000000000
      0.1873113696D+02  0.3349460434D-01
      0.2825394365D+01  0.2347269535D+00
      0.6401216923D+00  0.8137573261D+00
 S   1 1.00       0.000000000000
      0.1612777588D+00  0.1000000000D+01
 ****
     20 0
 S   6 1.00       0.000000000000
      0.3047524880D+04  0.1834737132D-02
      0.4573695180D+03  0.1403732281D-01
      0.1039486850D+03  0.6884262226D-01
      0.2921015530D+02  0.2321844432D+00
      0.9286662960D+01  0.4679413484D+00
      0.3163926960D+01  0.3623119853D+00
 SP   3 1.00       0.000000000000
      0.7868272350D+01 -0.1193324198D+00  0.6899906659D-01
      0.1881288540D+01 -0.1608541517D+00  0.3164239610D+00
      0.5442492580D+00  0.1143456438D+01  0.7443082909D+00
 SP   1 1.00       0.000000000000
      0.1687144782D+00  0.1000000000D+01  0.1000000000D+01
 D   1 1.00       0.000000000000
      0.8000000000D+00  0.1000000000D+01
 ****
     21 0
 S   3 1.00       0.000000000000
      0.1873113696D+02  0.3349460434D-01
      0.2825394365D+01  0.2347269535D+00
      0.6401216923D+00  0.8137573261D+00
 S   1 1.00       0.000000000000
      0.1612777588D+00  0.1000000000D+01
 ****
     22 0
 S   6 1.00       0.000000000000
      0.3047524880D+04  0.1834737132D-02
      0.4573695180D+03  0.1403732281D-01
      0.1039486850D+03  0.6884262226D-01
      0.2921015530D+02  0.2321844432D+00
      0.9286662960D+01  0.4679413484D+00
      0.3163926960D+01  0.3623119853D+00
 SP   3 1.00       0.000000000000
      0.7868272350D+01 -0.1193324198D+00  0.6899906659D-01
      0.1881288540D+01 -0.1608541517D+00  0.3164239610D+00
      0.5442492580D+00  0.1143456438D+01  0.7443082909D+00
 SP   1 1.00       0.000000000000
      0.1687144782D+00  0.1000000000D+01  0.1000000000D+01
 D   1 1.00       0.000000000000
      0.8000000000D+00  0.1000000000D+01
 ****
     23 0
 S   3 1.00       0.000000000000
      0.1873113696D+02  0.3349460434D-01
      0.2825394365D+01  0.2347269535D+00
      0.6401216923D+00  0.8137573261D+00
 S   1 1.00       0.000000000000
      0.1612777588D+00  0.1000000000D+01
 ****
     24 0
 S   3 1.00       0.000000000000
      0.1873113696D+02  0.3349460434D-01
      0.2825394365D+01  0.2347269535D+00
      0.6401216923D+00  0.8137573261D+00
 S   1 1.00       0.000000000000
      0.1612777588D+00  0.1000000000D+01
 ****
     25 0
 S   6 1.00       0.000000000000
      0.3047524880D+04  0.1834737132D-02
      0.4573695180D+03  0.1403732281D-01
      0.1039486850D+03  0.6884262226D-01
      0.2921015530D+02  0.2321844432D+00
      0.9286662960D+01  0.4679413484D+00
      0.3163926960D+01  0.3623119853D+00
 SP   3 1.00       0.000000000000
      0.7868272350D+01 -0.1193324198D+00  0.6899906659D-01
      0.1881288540D+01 -0.1608541517D+00  0.3164239610D+00
      0.5442492580D+00  0.1143456438D+01  0.7443082909D+00
 SP   1 1.00       0.000000000000
      0.1687144782D+00  0.1000000000D+01  0.1000000000D+01
 D   1 1.00       0.000000000000
      0.8000000000D+00  0.1000000000D+01
 ****
     26 0
 S   3 1.00       0.000000000000
      0.1873113696D+02  0.3349460434D-01
      0.2825394365D+01  0.2347269535D+00
      0.6401216923D+00  0.8137573261D+00
 S   1 1.00       0.000000000000
      0.1612777588D+00  0.1000000000D+01
 ****
     27 0
 S   3 1.00       0.000000000000
      0.1873113696D+02  0.3349460434D-01
      0.2825394365D+01  0.2347269535D+00
      0.6401216923D+00  0.8137573261D+00
 S   1 1.00       0.000000000000
      0.1612777588D+00  0.1000000000D+01
 ****
     28 0
 S   6 1.00       0.000000000000
      0.3047524880D+04  0.1834737132D-02
      0.4573695180D+03  0.1403732281D-01
      0.1039486850D+03  0.6884262226D-01
      0.2921015530D+02  0.2321844432D+00
      0.9286662960D+01  0.4679413484D+00
      0.3163926960D+01  0.3623119853D+00
 SP   3 1.00       0.000000000000
      0.7868272350D+01 -0.1193324198D+00  0.6899906659D-01
      0.1881288540D+01 -0.1608541517D+00  0.3164239610D+00
      0.5442492580D+00  0.1143456438D+01  0.7443082909D+00
 SP   1 1.00       0.000000000000
      0.1687144782D+00  0.1000000000D+01  0.1000000000D+01
 D   1 1.00       0.000000000000
      0.8000000000D+00  0.1000000000D+01
 ****
     29 0
 S   6 1.00       0.000000000000
      0.3047524880D+04  0.1834737132D-02
      0.4573695180D+03  0.1403732281D-01
      0.1039486850D+03  0.6884262226D-01
      0.2921015530D+02  0.2321844432D+00
      0.9286662960D+01  0.4679413484D+00
      0.3163926960D+01  0.3623119853D+00
 SP   3 1.00       0.000000000000
      0.7868272350D+01 -0.1193324198D+00  0.6899906659D-01
      0.1881288540D+01 -0.1608541517D+00  0.3164239610D+00
      0.5442492580D+00  0.1143456438D+01  0.7443082909D+00
 SP   1 1.00       0.000000000000
      0.1687144782D+00  0.1000000000D+01  0.1000000000D+01
 D   1 1.00       0.000000000000
      0.8000000000D+00  0.1000000000D+01
 ****
     30 0
 S   3 1.00       0.000000000000
      0.1873113696D+02  0.3349460434D-01
      0.2825394365D+01  0.2347269535D+00
      0.6401216923D+00  0.8137573261D+00
 S   1 1.00       0.000000000000
      0.1612777588D+00  0.1000000000D+01
 ****
     31 0
 S   6 1.00       0.000000000000
      0.3047524880D+04  0.1834737132D-02
      0.4573695180D+03  0.1403732281D-01
      0.1039486850D+03  0.6884262226D-01
      0.2921015530D+02  0.2321844432D+00
      0.9286662960D+01  0.4679413484D+00
      0.3163926960D+01  0.3623119853D+00
 SP   3 1.00       0.000000000000
      0.7868272350D+01 -0.1193324198D+00  0.6899906659D-01
      0.1881288540D+01 -0.1608541517D+00  0.3164239610D+00
      0.5442492580D+00  0.1143456438D+01  0.7443082909D+00
 SP   1 1.00       0.000000000000
      0.1687144782D+00  0.1000000000D+01  0.1000000000D+01
 D   1 1.00       0.000000000000
      0.8000000000D+00  0.1000000000D+01
 ****
     32 0
 S   3 1.00       0.000000000000
      0.1873113696D+02  0.3349460434D-01
      0.2825394365D+01  0.2347269535D+00
      0.6401216923D+00  0.8137573261D+00
 S   1 1.00       0.000000000000
      0.1612777588D+00  0.1000000000D+01
 ****
     33 0
 S   3 1.00       0.000000000000
      0.1873113696D+02  0.3349460434D-01
      0.2825394365D+01  0.2347269535D+00
      0.6401216923D+00  0.8137573261D+00
 S   1 1.00       0.000000000000
      0.1612777588D+00  0.1000000000D+01
 ****
     34 0
 S   6 1.00       0.000000000000
      0.3047524880D+04  0.1834737132D-02
      0.4573695180D+03  0.1403732281D-01
      0.1039486850D+03  0.6884262226D-01
      0.2921015530D+02  0.2321844432D+00
      0.9286662960D+01  0.4679413484D+00
      0.3163926960D+01  0.3623119853D+00
 SP   3 1.00       0.000000000000
      0.7868272350D+01 -0.1193324198D+00  0.6899906659D-01
      0.1881288540D+01 -0.1608541517D+00  0.3164239610D+00
      0.5442492580D+00  0.1143456438D+01  0.7443082909D+00
 SP   1 1.00       0.000000000000
      0.1687144782D+00  0.1000000000D+01  0.1000000000D+01
 D   1 1.00       0.000000000000
      0.8000000000D+00  0.1000000000D+01
 ****
     35 0
 S   3 1.00       0.000000000000
      0.1873113696D+02  0.3349460434D-01
      0.2825394365D+01  0.2347269535D+00
      0.6401216923D+00  0.8137573261D+00
 S   1 1.00       0.000000000000
      0.1612777588D+00  0.1000000000D+01
 ****
     36 0
 S   3 1.00       0.000000000000
      0.1873113696D+02  0.3349460434D-01
      0.2825394365D+01  0.2347269535D+00
      0.6401216923D+00  0.8137573261D+00
 S   1 1.00       0.000000000000
      0.1612777588D+00  0.1000000000D+01
 ****
     37 0
 S   6 1.00       0.000000000000
      0.3047524880D+04  0.1834737132D-02
      0.4573695180D+03  0.1403732281D-01
      0.1039486850D+03  0.6884262226D-01
      0.2921015530D+02  0.2321844432D+00
      0.9286662960D+01  0.4679413484D+00
      0.3163926960D+01  0.3623119853D+00
 SP   3 1.00       0.000000000000
      0.7868272350D+01 -0.1193324198D+00  0.6899906659D-01
      0.1881288540D+01 -0.1608541517D+00  0.3164239610D+00
      0.5442492580D+00  0.1143456438D+01  0.7443082909D+00
 SP   1 1.00       0.000000000000
      0.1687144782D+00  0.1000000000D+01  0.1000000000D+01
 D   1 1.00       0.000000000000
      0.8000000000D+00  0.1000000000D+01
 ****
     38 0
 S   3 1.00       0.000000000000
      0.1873113696D+02  0.3349460434D-01
      0.2825394365D+01  0.2347269535D+00
      0.6401216923D+00  0.8137573261D+00
 S   1 1.00       0.000000000000
      0.1612777588D+00  0.1000000000D+01
 ****
     39 0
 S   6 1.00       0.000000000000
      0.3047524880D+04  0.1834737132D-02
      0.4573695180D+03  0.1403732281D-01
      0.1039486850D+03  0.6884262226D-01
      0.2921015530D+02  0.2321844432D+00
      0.9286662960D+01  0.4679413484D+00
      0.3163926960D+01  0.3623119853D+00
 SP   3 1.00       0.000000000000
      0.7868272350D+01 -0.1193324198D+00  0.6899906659D-01
      0.1881288540D+01 -0.1608541517D+00  0.3164239610D+00
      0.5442492580D+00  0.1143456438D+01  0.7443082909D+00
 SP   1 1.00       0.000000000000
      0.1687144782D+00  0.1000000000D+01  0.1000000000D+01
 D   1 1.00       0.000000000000
      0.8000000000D+00  0.1000000000D+01
 ****
     40 0
 S   3 1.00       0.000000000000
      0.1873113696D+02  0.3349460434D-01
      0.2825394365D+01  0.2347269535D+00
      0.6401216923D+00  0.8137573261D+00
 S   1 1.00       0.000000000000
      0.1612777588D+00  0.1000000000D+01
 ****
     41 0
 S   3 1.00       0.000000000000
      0.1873113696D+02  0.3349460434D-01
      0.2825394365D+01  0.2347269535D+00
      0.6401216923D+00  0.8137573261D+00
 S   1 1.00       0.000000000000
      0.1612777588D+00  0.1000000000D+01
 ****
     42 0
 S   3 1.00       0.000000000000
      0.1873113696D+02  0.3349460434D-01
      0.2825394365D+01  0.2347269535D+00
      0.6401216923D+00  0.8137573261D+00
 S   1 1.00       0.000000000000
      0.1612777588D+00  0.1000000000D+01
 ****
     43 0
 S   6 1.00       0.000000000000
      0.3047524880D+04  0.1834737132D-02
      0.4573695180D+03  0.1403732281D-01
      0.1039486850D+03  0.6884262226D-01
      0.2921015530D+02  0.2321844432D+00
      0.9286662960D+01  0.4679413484D+00
      0.3163926960D+01  0.3623119853D+00
 SP   3 1.00       0.000000000000
      0.7868272350D+01 -0.1193324198D+00  0.6899906659D-01
      0.1881288540D+01 -0.1608541517D+00  0.3164239610D+00
      0.5442492580D+00  0.1143456438D+01  0.7443082909D+00
 SP   1 1.00       0.000000000000
      0.1687144782D+00  0.1000000000D+01  0.1000000000D+01
 D   1 1.00       0.000000000000
      0.8000000000D+00  0.1000000000D+01
 ****
     44 0
 S   3 1.00       0.000000000000
      0.1873113696D+02  0.3349460434D-01
      0.2825394365D+01  0.2347269535D+00
      0.6401216923D+00  0.8137573261D+00
 S   1 1.00       0.000000000000
      0.1612777588D+00  0.1000000000D+01
 ****
     45 0
 S   6 1.00       0.000000000000
      0.3047524880D+04  0.1834737132D-02
      0.4573695180D+03  0.1403732281D-01
      0.1039486850D+03  0.6884262226D-01
      0.2921015530D+02  0.2321844432D+00
      0.9286662960D+01  0.4679413484D+00
      0.3163926960D+01  0.3623119853D+00
 SP   3 1.00       0.000000000000
      0.7868272350D+01 -0.1193324198D+00  0.6899906659D-01
      0.1881288540D+01 -0.1608541517D+00  0.3164239610D+00
      0.5442492580D+00  0.1143456438D+01  0.7443082909D+00
 SP   1 1.00       0.000000000000
      0.1687144782D+00  0.1000000000D+01  0.1000000000D+01
 D   1 1.00       0.000000000000
      0.8000000000D+00  0.1000000000D+01
 ****
     46 0
 S   3 1.00       0.000000000000
      0.1873113696D+02  0.3349460434D-01
      0.2825394365D+01  0.2347269535D+00
      0.6401216923D+00  0.8137573261D+00
 S   1 1.00       0.000000000000
      0.1612777588D+00  0.1000000000D+01
 ****
     47 0
 S   3 1.00       0.000000000000
      0.1873113696D+02  0.3349460434D-01
      0.2825394365D+01  0.2347269535D+00
      0.6401216923D+00  0.8137573261D+00
 S   1 1.00       0.000000000000
      0.1612777588D+00  0.1000000000D+01
 ****
     48 0
 S   3 1.00       0.000000000000
      0.1873113696D+02  0.3349460434D-01
      0.2825394365D+01  0.2347269535D+00
      0.6401216923D+00  0.8137573261D+00
 S   1 1.00       0.000000000000
      0.1612777588D+00  0.1000000000D+01
 ****
     49 0
 S   6 1.00       0.000000000000
      0.3047524880D+04  0.1834737132D-02
      0.4573695180D+03  0.1403732281D-01
      0.1039486850D+03  0.6884262226D-01
      0.2921015530D+02  0.2321844432D+00
      0.9286662960D+01  0.4679413484D+00
      0.3163926960D+01  0.3623119853D+00
 SP   3 1.00       0.000000000000
      0.7868272350D+01 -0.1193324198D+00  0.6899906659D-01
      0.1881288540D+01 -0.1608541517D+00  0.3164239610D+00
      0.5442492580D+00  0.1143456438D+01  0.7443082909D+00
 SP   1 1.00       0.000000000000
      0.1687144782D+00  0.1000000000D+01  0.1000000000D+01
 D   1 1.00       0.000000000000
      0.8000000000D+00  0.1000000000D+01
 ****
     50 0
 S   3 1.00       0.000000000000
      0.1873113696D+02  0.3349460434D-01
      0.2825394365D+01  0.2347269535D+00
      0.6401216923D+00  0.8137573261D+00
 S   1 1.00       0.000000000000
      0.1612777588D+00  0.1000000000D+01
 ****
     51 0
 S   3 1.00       0.000000000000
      0.1873113696D+02  0.3349460434D-01
      0.2825394365D+01  0.2347269535D+00
      0.6401216923D+00  0.8137573261D+00
 S   1 1.00       0.000000000000
      0.1612777588D+00  0.1000000000D+01
 ****
     52 0
 S   3 1.00       0.000000000000
      0.1873113696D+02  0.3349460434D-01
      0.2825394365D+01  0.2347269535D+00
      0.6401216923D+00  0.8137573261D+00
 S   1 1.00       0.000000000000
      0.1612777588D+00  0.1000000000D+01
 ****
     53 0
 S   6 1.00       0.000000000000
      0.5484671660D+04  0.1831074430D-02
      0.8252349460D+03  0.1395017220D-01
      0.1880469580D+03  0.6844507810D-01
      0.5296450000D+02  0.2327143360D+00
      0.1689757040D+02  0.4701928980D+00
      0.5799635340D+01  0.3585208530D+00
 SP   3 1.00       0.000000000000
      0.1553961625D+02 -0.1107775495D+00  0.7087426823D-01
      0.3599933586D+01 -0.1480262627D+00  0.3397528391D+00
      0.1013761750D+01  0.1130767015D+01  0.7271585773D+00
 SP   1 1.00       0.000000000000
      0.2700058226D+00  0.1000000000D+01  0.1000000000D+01
 D   1 1.00       0.000000000000
      0.8000000000D+00  0.1000000000D+01
 ****
     54 0
 S   6 1.00       0.000000000000
      0.5484671660D+04  0.1831074430D-02
      0.8252349460D+03  0.1395017220D-01
      0.1880469580D+03  0.6844507810D-01
      0.5296450000D+02  0.2327143360D+00
      0.1689757040D+02  0.4701928980D+00
      0.5799635340D+01  0.3585208530D+00
 SP   3 1.00       0.000000000000
      0.1553961625D+02 -0.1107775495D+00  0.7087426823D-01
      0.3599933586D+01 -0.1480262627D+00  0.3397528391D+00
      0.1013761750D+01  0.1130767015D+01  0.7271585773D+00
 SP   1 1.00       0.000000000000
      0.2700058226D+00  0.1000000000D+01  0.1000000000D+01
 D   1 1.00       0.000000000000
      0.8000000000D+00  0.1000000000D+01
 ****
     55 0
 S   3 1.00       0.000000000000
      0.1873113696D+02  0.3349460434D-01
      0.2825394365D+01  0.2347269535D+00
      0.6401216923D+00  0.8137573261D+00
 S   1 1.00       0.000000000000
      0.1612777588D+00  0.1000000000D+01
 ****
     56 0
 S   6 1.00       0.000000000000
      0.5484671660D+04  0.1831074430D-02
      0.8252349460D+03  0.1395017220D-01
      0.1880469580D+03  0.6844507810D-01
      0.5296450000D+02  0.2327143360D+00
      0.1689757040D+02  0.4701928980D+00
      0.5799635340D+01  0.3585208530D+00
 SP   3 1.00       0.000000000000
      0.1553961625D+02 -0.1107775495D+00  0.7087426823D-01
      0.3599933586D+01 -0.1480262627D+00  0.3397528391D+00
      0.1013761750D+01  0.1130767015D+01  0.7271585773D+00
 SP   1 1.00       0.000000000000
      0.2700058226D+00  0.1000000000D+01  0.1000000000D+01
 D   1 1.00       0.000000000000
      0.8000000000D+00  0.1000000000D+01
 ****
     57 0
 S   3 1.00       0.000000000000
      0.1873113696D+02  0.3349460434D-01
      0.2825394365D+01  0.2347269535D+00
      0.6401216923D+00  0.8137573261D+00
 S   1 1.00       0.000000000000
      0.1612777588D+00  0.1000000000D+01
 ****
     58 0
 S   6 1.00       0.000000000000
      0.3047524880D+04  0.1834737132D-02
      0.4573695180D+03  0.1403732281D-01
      0.1039486850D+03  0.6884262226D-01
      0.2921015530D+02  0.2321844432D+00
      0.9286662960D+01  0.4679413484D+00
      0.3163926960D+01  0.3623119853D+00
 SP   3 1.00       0.000000000000
      0.7868272350D+01 -0.1193324198D+00  0.6899906659D-01
      0.1881288540D+01 -0.1608541517D+00  0.3164239610D+00
      0.5442492580D+00  0.1143456438D+01  0.7443082909D+00
 SP   1 1.00       0.000000000000
      0.1687144782D+00  0.1000000000D+01  0.1000000000D+01
 D   1 1.00       0.000000000000
      0.8000000000D+00  0.1000000000D+01
 ****
     59 0
 S   3 1.00       0.000000000000
      0.1873113696D+02  0.3349460434D-01
      0.2825394365D+01  0.2347269535D+00
      0.6401216923D+00  0.8137573261D+00
 S   1 1.00       0.000000000000
      0.1612777588D+00  0.1000000000D+01
 ****
     60 0
 S   3 1.00       0.000000000000
      0.1873113696D+02  0.3349460434D-01
      0.2825394365D+01  0.2347269535D+00
      0.6401216923D+00  0.8137573261D+00
 S   1 1.00       0.000000000000
      0.1612777588D+00  0.1000000000D+01
 ****
     61 0
 S   6 1.00       0.000000000000
      0.3047524880D+04  0.1834737132D-02
      0.4573695180D+03  0.1403732281D-01
      0.1039486850D+03  0.6884262226D-01
      0.2921015530D+02  0.2321844432D+00
      0.9286662960D+01  0.4679413484D+00
      0.3163926960D+01  0.3623119853D+00
 SP   3 1.00       0.000000000000
      0.7868272350D+01 -0.1193324198D+00  0.6899906659D-01
      0.1881288540D+01 -0.1608541517D+00  0.3164239610D+00
      0.5442492580D+00  0.1143456438D+01  0.7443082909D+00
 SP   1 1.00       0.000000000000
      0.1687144782D+00  0.1000000000D+01  0.1000000000D+01
 D   1 1.00       0.000000000000
      0.8000000000D+00  0.1000000000D+01
 ****
     62 0
 S   3 1.00       0.000000000000
      0.1873113696D+02  0.3349460434D-01
      0.2825394365D+01  0.2347269535D+00
      0.6401216923D+00  0.8137573261D+00
 S   1 1.00       0.000000000000
      0.1612777588D+00  0.1000000000D+01
 ****
     63 0
 S   3 1.00       0.000000000000
      0.1873113696D+02  0.3349460434D-01
      0.2825394365D+01  0.2347269535D+00
      0.6401216923D+00  0.8137573261D+00
 S   1 1.00       0.000000000000
      0.1612777588D+00  0.1000000000D+01
 ****
     64 0
 S   6 1.00       0.000000000000
      0.3047524880D+04  0.1834737132D-02
      0.4573695180D+03  0.1403732281D-01
      0.1039486850D+03  0.6884262226D-01
      0.2921015530D+02  0.2321844432D+00
      0.9286662960D+01  0.4679413484D+00
      0.3163926960D+01  0.3623119853D+00
 SP   3 1.00       0.000000000000
      0.7868272350D+01 -0.1193324198D+00  0.6899906659D-01
      0.1881288540D+01 -0.1608541517D+00  0.3164239610D+00
      0.5442492580D+00  0.1143456438D+01  0.7443082909D+00
 SP   1 1.00       0.000000000000
      0.1687144782D+00  0.1000000000D+01  0.1000000000D+01
 D   1 1.00       0.000000000000
      0.8000000000D+00  0.1000000000D+01
 ****
     65 0
 S   3 1.00       0.000000000000
      0.1873113696D+02  0.3349460434D-01
      0.2825394365D+01  0.2347269535D+00
      0.6401216923D+00  0.8137573261D+00
 S   1 1.00       0.000000000000
      0.1612777588D+00  0.1000000000D+01
 ****
     66 0
 S   3 1.00       0.000000000000
      0.1873113696D+02  0.3349460434D-01
      0.2825394365D+01  0.2347269535D+00
      0.6401216923D+00  0.8137573261D+00
 S   1 1.00       0.000000000000
      0.1612777588D+00  0.1000000000D+01
 ****
     67 0
 S   6 1.00       0.000000000000
      0.3047524880D+04  0.1834737132D-02
      0.4573695180D+03  0.1403732281D-01
      0.1039486850D+03  0.6884262226D-01
      0.2921015530D+02  0.2321844432D+00
      0.9286662960D+01  0.4679413484D+00
      0.3163926960D+01  0.3623119853D+00
 SP   3 1.00       0.000000000000
      0.7868272350D+01 -0.1193324198D+00  0.6899906659D-01
      0.1881288540D+01 -0.1608541517D+00  0.3164239610D+00
      0.5442492580D+00  0.1143456438D+01  0.7443082909D+00
 SP   1 1.00       0.000000000000
      0.1687144782D+00  0.1000000000D+01  0.1000000000D+01
 D   1 1.00       0.000000000000
      0.8000000000D+00  0.1000000000D+01
 ****
     68 0
 S   3 1.00       0.000000000000
      0.1873113696D+02  0.3349460434D-01
      0.2825394365D+01  0.2347269535D+00
      0.6401216923D+00  0.8137573261D+00
 S   1 1.00       0.000000000000
      0.1612777588D+00  0.1000000000D+01
 ****
     69 0
 S   6 1.00       0.000000000000
      0.3047524880D+04  0.1834737132D-02
      0.4573695180D+03  0.1403732281D-01
      0.1039486850D+03  0.6884262226D-01
      0.2921015530D+02  0.2321844432D+00
      0.9286662960D+01  0.4679413484D+00
      0.3163926960D+01  0.3623119853D+00
 SP   3 1.00       0.000000000000
      0.7868272350D+01 -0.1193324198D+00  0.6899906659D-01
      0.1881288540D+01 -0.1608541517D+00  0.3164239610D+00
      0.5442492580D+00  0.1143456438D+01  0.7443082909D+00
 SP   1 1.00       0.000000000000
      0.1687144782D+00  0.1000000000D+01  0.1000000000D+01
 D   1 1.00       0.000000000000
      0.8000000000D+00  0.1000000000D+01
 ****
     70 0
 S   3 1.00       0.000000000000
      0.1873113696D+02  0.3349460434D-01
      0.2825394365D+01  0.2347269535D+00
      0.6401216923D+00  0.8137573261D+00
 S   1 1.00       0.000000000000
      0.1612777588D+00  0.1000000000D+01
 ****
     71 0
 S   3 1.00       0.000000000000
      0.1873113696D+02  0.3349460434D-01
      0.2825394365D+01  0.2347269535D+00
      0.6401216923D+00  0.8137573261D+00
 S   1 1.00       0.000000000000
      0.1612777588D+00  0.1000000000D+01
 ****
     72 0
 S   3 1.00       0.000000000000
      0.1873113696D+02  0.3349460434D-01
      0.2825394365D+01  0.2347269535D+00
      0.6401216923D+00  0.8137573261D+00
 S   1 1.00       0.000000000000
      0.1612777588D+00  0.1000000000D+01
 ****
     73 0
 S   6 1.00       0.000000000000
      0.3047524880D+04  0.1834737132D-02
      0.4573695180D+03  0.1403732281D-01
      0.1039486850D+03  0.6884262226D-01
      0.2921015530D+02  0.2321844432D+00
      0.9286662960D+01  0.4679413484D+00
      0.3163926960D+01  0.3623119853D+00
 SP   3 1.00       0.000000000000
      0.7868272350D+01 -0.1193324198D+00  0.6899906659D-01
      0.1881288540D+01 -0.1608541517D+00  0.3164239610D+00
      0.5442492580D+00  0.1143456438D+01  0.7443082909D+00
 SP   1 1.00       0.000000000000
      0.1687144782D+00  0.1000000000D+01  0.1000000000D+01
 D   1 1.00       0.000000000000
      0.8000000000D+00  0.1000000000D+01
 ****
     74 0
 S   3 1.00       0.000000000000
      0.1873113696D+02  0.3349460434D-01
      0.2825394365D+01  0.2347269535D+00
      0.6401216923D+00  0.8137573261D+00
 S   1 1.00       0.000000000000
      0.1612777588D+00  0.1000000000D+01
 ****
     75 0
 S   3 1.00       0.000000000000
      0.1873113696D+02  0.3349460434D-01
      0.2825394365D+01  0.2347269535D+00
      0.6401216923D+00  0.8137573261D+00
 S   1 1.00       0.000000000000
      0.1612777588D+00  0.1000000000D+01
 ****
     76 0
 S   3 1.00       0.000000000000
      0.1873113696D+02  0.3349460434D-01
      0.2825394365D+01  0.2347269535D+00
      0.6401216923D+00  0.8137573261D+00
 S   1 1.00       0.000000000000
      0.1612777588D+00  0.1000000000D+01
 ****

 AO basis set (Overlap normalization):
 Atom C1       Shell     1 S   6     bf    1 -     1         14.188181403363          4.190764235499          0.141698978684
      0.3047524880D+04  0.1834737132D-02
      0.4573695180D+03  0.1403732281D-01
      0.1039486850D+03  0.6884262226D-01
      0.2921015530D+02  0.2321844432D+00
      0.9286662960D+01  0.4679413484D+00
      0.3163926960D+01  0.3623119853D+00
 Atom C1       Shell     2 SP   3    bf    2 -     5         14.188181403363          4.190764235499          0.141698978684
      0.7868272350D+01 -0.1193324198D+00  0.6899906659D-01
      0.1881288540D+01 -0.1608541517D+00  0.3164239610D+00
      0.5442492580D+00  0.1143456438D+01  0.7443082909D+00
 Atom C1       Shell     3 SP   1    bf    6 -     9         14.188181403363          4.190764235499          0.141698978684
      0.1687144782D+00  0.1000000000D+01  0.1000000000D+01
 Atom C1       Shell     4 D   1     bf   10 -    15         14.188181403363          4.190764235499          0.141698978684
      0.8000000000D+00  0.1000000000D+01
 Atom H2       Shell     5 S   3     bf   16 -    16         13.868580110536          4.139969285218          2.189178334204
      0.1873113696D+02  0.3349460434D-01
      0.2825394365D+01  0.2347269535D+00
      0.6401216923D+00  0.8137573261D+00
 Atom H2       Shell     6 S   1     bf   17 -    17         13.868580110536          4.139969285218          2.189178334204
      0.1612777588D+00  0.1000000000D+01
 Atom C3       Shell     7 S   6     bf   18 -    18         12.885948032738          1.902436922184         -1.075353323542
      0.3047524880D+04  0.1834737132D-02
      0.4573695180D+03  0.1403732281D-01
      0.1039486850D+03  0.6884262226D-01
      0.2921015530D+02  0.2321844432D+00
      0.9286662960D+01  0.4679413484D+00
      0.3163926960D+01  0.3623119853D+00
 Atom C3       Shell     8 SP   3    bf   19 -    22         12.885948032738          1.902436922184         -1.075353323542
      0.7868272350D+01 -0.1193324198D+00  0.6899906659D-01
      0.1881288540D+01 -0.1608541517D+00  0.3164239610D+00
      0.5442492580D+00  0.1143456438D+01  0.7443082909D+00
 Atom C3       Shell     9 SP   1    bf   23 -    26         12.885948032738          1.902436922184         -1.075353323542
      0.1687144782D+00  0.1000000000D+01  0.1000000000D+01
 Atom C3       Shell    10 D   1     bf   27 -    32         12.885948032738          1.902436922184         -1.075353323542
      0.8000000000D+00  0.1000000000D+01
 Atom H4       Shell    11 S   3     bf   33 -    33         13.602394270115          0.155583344603         -0.232043364693
      0.1873113696D+02  0.3349460434D-01
      0.2825394365D+01  0.2347269535D+00
      0.6401216923D+00  0.8137573261D+00
 Atom H4       Shell    12 S   1     bf   34 -    34         13.602394270115          0.155583344603         -0.232043364693
      0.1612777588D+00  0.1000000000D+01
 Atom H5       Shell    13 S   3     bf   35 -    35         13.432316385922          1.862217465158         -3.085102803936
      0.1873113696D+02  0.3349460434D-01
      0.2825394365D+01  0.2347269535D+00
      0.6401216923D+00  0.8137573261D+00
 Atom H5       Shell    14 S   1     bf   36 -    36         13.432316385922          1.862217465158         -3.085102803936
      0.1612777588D+00  0.1000000000D+01
 Atom C6       Shell    15 S   6     bf   37 -    37         10.028702150912          2.006225651382         -0.860316757052
      0.3047524880D+04  0.1834737132D-02
      0.4573695180D+03  0.1403732281D-01
      0.1039486850D+03  0.6884262226D-01
      0.2921015530D+02  0.2321844432D+00
      0.9286662960D+01  0.4679413484D+00
      0.3163926960D+01  0.3623119853D+00
 Atom C6       Shell    16 SP   3    bf   38 -    41         10.028702150912          2.006225651382         -0.860316757052
      0.7868272350D+01 -0.1193324198D+00  0.6899906659D-01
      0.1881288540D+01 -0.1608541517D+00  0.3164239610D+00
      0.5442492580D+00  0.1143456438D+01  0.7443082909D+00
 Atom C6       Shell    17 SP   1    bf   42 -    45         10.028702150912          2.006225651382         -0.860316757052
      0.1687144782D+00  0.1000000000D+01  0.1000000000D+01
 Atom C6       Shell    18 D   1     bf   46 -    51         10.028702150912          2.006225651382         -0.860316757052
      0.8000000000D+00  0.1000000000D+01
 Atom C7       Shell    19 S   6     bf   52 -    52          8.726549207031          4.453029687879         -1.695741134413
      0.3047524880D+04  0.1834737132D-02
      0.4573695180D+03  0.1403732281D-01
      0.1039486850D+03  0.6884262226D-01
      0.2921015530D+02  0.2321844432D+00
      0.9286662960D+01  0.4679413484D+00
      0.3163926960D+01  0.3623119853D+00
 Atom C7       Shell    20 SP   3    bf   53 -    56          8.726549207031          4.453029687879         -1.695741134413
      0.7868272350D+01 -0.1193324198D+00  0.6899906659D-01
      0.1881288540D+01 -0.1608541517D+00  0.3164239610D+00
      0.5442492580D+00  0.1143456438D+01  0.7443082909D+00
 Atom C7       Shell    21 SP   1    bf   57 -    60          8.726549207031          4.453029687879         -1.695741134413
      0.1687144782D+00  0.1000000000D+01  0.1000000000D+01
 Atom C7       Shell    22 D   1     bf   61 -    66          8.726549207031          4.453029687879         -1.695741134413
      0.8000000000D+00  0.1000000000D+01
 Atom C8       Shell    23 S   6     bf   67 -    67         10.207410074203          6.737449425495         -0.562105047556
      0.3047524880D+04  0.1834737132D-02
      0.4573695180D+03  0.1403732281D-01
      0.1039486850D+03  0.6884262226D-01
      0.2921015530D+02  0.2321844432D+00
      0.9286662960D+01  0.4679413484D+00
      0.3163926960D+01  0.3623119853D+00
 Atom C8       Shell    24 SP   3    bf   68 -    71         10.207410074203          6.737449425495         -0.562105047556
      0.7868272350D+01 -0.1193324198D+00  0.6899906659D-01
      0.1881288540D+01 -0.1608541517D+00  0.3164239610D+00
      0.5442492580D+00  0.1143456438D+01  0.7443082909D+00
 Atom C8       Shell    25 SP   1    bf   72 -    75         10.207410074203          6.737449425495         -0.562105047556
      0.1687144782D+00  0.1000000000D+01  0.1000000000D+01
 Atom C8       Shell    26 D   1     bf   76 -    81         10.207410074203          6.737449425495         -0.562105047556
      0.8000000000D+00  0.1000000000D+01
 Atom H9       Shell    27 S   3     bf   82 -    82          9.814508024332          6.819907228461          1.475405945922
      0.1873113696D+02  0.3349460434D-01
      0.2825394365D+01  0.2347269535D+00
      0.6401216923D+00  0.8137573261D+00
 Atom H9       Shell    28 S   1     bf   83 -    83          9.814508024332          6.819907228461          1.475405945922
      0.1612777588D+00  0.1000000000D+01
 Atom H10      Shell    29 S   3     bf   84 -    84          9.484499234903          8.500062260779         -1.370716251996
      0.1873113696D+02  0.3349460434D-01
      0.2825394365D+01  0.2347269535D+00
      0.6401216923D+00  0.8137573261D+00
 Atom H10      Shell    30 S   1     bf   85 -    85          9.484499234903          8.500062260779         -1.370716251996
      0.1612777588D+00  0.1000000000D+01
 Atom C11      Shell    31 S   6     bf   86 -    86         13.085985143713          6.636480205482         -0.928565728122
      0.3047524880D+04  0.1834737132D-02
      0.4573695180D+03  0.1403732281D-01
      0.1039486850D+03  0.6884262226D-01
      0.2921015530D+02  0.2321844432D+00
      0.9286662960D+01  0.4679413484D+00
      0.3163926960D+01  0.3623119853D+00
 Atom C11      Shell    32 SP   3    bf   87 -    90         13.085985143713          6.636480205482         -0.928565728122
      0.7868272350D+01 -0.1193324198D+00  0.6899906659D-01
      0.1881288540D+01 -0.1608541517D+00  0.3164239610D+00
      0.5442492580D+00  0.1143456438D+01  0.7443082909D+00
 Atom C11      Shell    33 SP   1    bf   91 -    94         13.085985143713          6.636480205482         -0.928565728122
      0.1687144782D+00  0.1000000000D+01  0.1000000000D+01
 Atom C11      Shell    34 D   1     bf   95 -   100         13.085985143713          6.636480205482         -0.928565728122
      0.8000000000D+00  0.1000000000D+01
 Atom H12      Shell    35 S   3     bf  101 -   101         13.567558170410          6.769463937317         -2.946484041054
      0.1873113696D+02  0.3349460434D-01
      0.2825394365D+01  0.2347269535D+00
      0.6401216923D+00  0.8137573261D+00
 Atom H12      Shell    36 S   1     bf  102 -   102         13.567558170410          6.769463937317         -2.946484041054
      0.1612777588D+00  0.1000000000D+01
 Atom H13      Shell    37 S   3     bf  103 -   103         13.973660562032          8.260982954364          0.000000000000
      0.1873113696D+02  0.3349460434D-01
      0.2825394365D+01  0.2347269535D+00
      0.6401216923D+00  0.8137573261D+00
 Atom H13      Shell    38 S   1     bf  104 -   104         13.973660562032          8.260982954364          0.000000000000
      0.1612777588D+00  0.1000000000D+01
 Atom C14      Shell    39 S   6     bf  105 -   105          8.747142251900          0.000000000000          0.000000000000
      0.3047524880D+04  0.1834737132D-02
      0.4573695180D+03  0.1403732281D-01
      0.1039486850D+03  0.6884262226D-01
      0.2921015530D+02  0.2321844432D+00
      0.9286662960D+01  0.4679413484D+00
      0.3163926960D+01  0.3623119853D+00
 Atom C14      Shell    40 SP   3    bf  106 -   109          8.747142251900          0.000000000000          0.000000000000
      0.7868272350D+01 -0.1193324198D+00  0.6899906659D-01
      0.1881288540D+01 -0.1608541517D+00  0.3164239610D+00
      0.5442492580D+00  0.1143456438D+01  0.7443082909D+00
 Atom C14      Shell    41 SP   1    bf  110 -   113          8.747142251900          0.000000000000          0.000000000000
      0.1687144782D+00  0.1000000000D+01  0.1000000000D+01
 Atom C14      Shell    42 D   1     bf  114 -   119          8.747142251900          0.000000000000          0.000000000000
      0.8000000000D+00  0.1000000000D+01
 Atom H15      Shell    43 S   3     bf  120 -   120          9.766083584307         -1.686794131551          0.584401113616
      0.1873113696D+02  0.3349460434D-01
      0.2825394365D+01  0.2347269535D+00
      0.6401216923D+00  0.8137573261D+00
 Atom H15      Shell    44 S   1     bf  121 -   121          9.766083584307         -1.686794131551          0.584401113616
      0.1612777588D+00  0.1000000000D+01
 Atom C16      Shell    45 S   6     bf  122 -   122          5.924224227935         -0.195386778421          0.174112827432
      0.3047524880D+04  0.1834737132D-02
      0.4573695180D+03  0.1403732281D-01
      0.1039486850D+03  0.6884262226D-01
      0.2921015530D+02  0.2321844432D+00
      0.9286662960D+01  0.4679413484D+00
      0.3163926960D+01  0.3623119853D+00
 Atom C16      Shell    46 SP   3    bf  123 -   126          5.924224227935         -0.195386778421          0.174112827432
      0.7868272350D+01 -0.1193324198D+00  0.6899906659D-01
      0.1881288540D+01 -0.1608541517D+00  0.3164239610D+00
      0.5442492580D+00  0.1143456438D+01  0.7443082909D+00
 Atom C16      Shell    47 SP   1    bf  127 -   130          5.924224227935         -0.195386778421          0.174112827432
      0.1687144782D+00  0.1000000000D+01  0.1000000000D+01
 Atom C16      Shell    48 D   1     bf  131 -   136          5.924224227935         -0.195386778421          0.174112827432
      0.8000000000D+00  0.1000000000D+01
 Atom H17      Shell    49 S   3     bf  137 -   137          5.343225037099         -0.403295486910          2.161288697689
      0.1873113696D+02  0.3349460434D-01
      0.2825394365D+01  0.2347269535D+00
      0.6401216923D+00  0.8137573261D+00
 Atom H17      Shell    50 S   1     bf  138 -   138          5.343225037099         -0.403295486910          2.161288697689
      0.1612777588D+00  0.1000000000D+01
 Atom C18      Shell    51 S   6     bf  139 -   139          4.486243382109          2.006474641697         -1.061326321095
      0.3047524880D+04  0.1834737132D-02
      0.4573695180D+03  0.1403732281D-01
      0.1039486850D+03  0.6884262226D-01
      0.2921015530D+02  0.2321844432D+00
      0.9286662960D+01  0.4679413484D+00
      0.3163926960D+01  0.3623119853D+00
 Atom C18      Shell    52 SP   3    bf  140 -   143          4.486243382109          2.006474641697         -1.061326321095
      0.7868272350D+01 -0.1193324198D+00  0.6899906659D-01
      0.1881288540D+01 -0.1608541517D+00  0.3164239610D+00
      0.5442492580D+00  0.1143456438D+01  0.7443082909D+00
 Atom C18      Shell    53 SP   1    bf  144 -   147          4.486243382109          2.006474641697         -1.061326321095
      0.1687144782D+00  0.1000000000D+01  0.1000000000D+01
 Atom C18      Shell    54 D   1     bf  148 -   153          4.486243382109          2.006474641697         -1.061326321095
      0.8000000000D+00  0.1000000000D+01
 Atom H19      Shell    55 S   3     bf  154 -   154          4.379266571542          1.588924005704         -3.090964734400
      0.1873113696D+02  0.3349460434D-01
      0.2825394365D+01  0.2347269535D+00
      0.6401216923D+00  0.8137573261D+00
 Atom H19      Shell    56 S   1     bf  155 -   155          4.379266571542          1.588924005704         -3.090964734400
      0.1612777588D+00  0.1000000000D+01
 Atom C20      Shell    57 S   6     bf  156 -   156          5.955059399472          4.517594978003         -0.654599072630
      0.3047524880D+04  0.1834737132D-02
      0.4573695180D+03  0.1403732281D-01
      0.1039486850D+03  0.6884262226D-01
      0.2921015530D+02  0.2321844432D+00
      0.9286662960D+01  0.4679413484D+00
      0.3163926960D+01  0.3623119853D+00
 Atom C20      Shell    58 SP   3    bf  157 -   160          5.955059399472          4.517594978003         -0.654599072630
      0.7868272350D+01 -0.1193324198D+00  0.6899906659D-01
      0.1881288540D+01 -0.1608541517D+00  0.3164239610D+00
      0.5442492580D+00  0.1143456438D+01  0.7443082909D+00
 Atom C20      Shell    59 SP   1    bf  161 -   164          5.955059399472          4.517594978003         -0.654599072630
      0.1687144782D+00  0.1000000000D+01  0.1000000000D+01
 Atom C20      Shell    60 D   1     bf  165 -   170          5.955059399472          4.517594978003         -0.654599072630
      0.8000000000D+00  0.1000000000D+01
 Atom H21      Shell    61 S   3     bf  171 -   171          6.139842319848          4.736504405922          1.408500872488
      0.1873113696D+02  0.3349460434D-01
      0.2825394365D+01  0.2347269535D+00
      0.6401216923D+00  0.8137573261D+00
 Atom H21      Shell    62 S   1     bf  172 -   172          6.139842319848          4.736504405922          1.408500872488
      0.1612777588D+00  0.1000000000D+01
 Atom C22      Shell    63 S   6     bf  173 -   173          4.410179448617          6.804139561479         -1.611574338722
      0.3047524880D+04  0.1834737132D-02
      0.4573695180D+03  0.1403732281D-01
      0.1039486850D+03  0.6884262226D-01
      0.2921015530D+02  0.2321844432D+00
      0.9286662960D+01  0.4679413484D+00
      0.3163926960D+01  0.3623119853D+00
 Atom C22      Shell    64 SP   3    bf  174 -   177          4.410179448617          6.804139561479         -1.611574338722
      0.7868272350D+01 -0.1193324198D+00  0.6899906659D-01
      0.1881288540D+01 -0.1608541517D+00  0.3164239610D+00
      0.5442492580D+00  0.1143456438D+01  0.7443082909D+00
 Atom C22      Shell    65 SP   1    bf  178 -   181          4.410179448617          6.804139561479         -1.611574338722
      0.1687144782D+00  0.1000000000D+01  0.1000000000D+01
 Atom C22      Shell    66 D   1     bf  182 -   187          4.410179448617          6.804139561479         -1.611574338722
      0.8000000000D+00  0.1000000000D+01
 Atom H23      Shell    67 S   3     bf  188 -   188          4.332787925824          6.777289160952         -3.680036457331
      0.1873113696D+02  0.3349460434D-01
      0.2825394365D+01  0.2347269535D+00
      0.6401216923D+00  0.8137573261D+00
 Atom H23      Shell    68 S   1     bf  189 -   189          4.332787925824          6.777289160952         -3.680036457331
      0.1612777588D+00  0.1000000000D+01
 Atom H24      Shell    69 S   3     bf  190 -   190          5.382770447710          8.558295532166         -1.100215297540
      0.1873113696D+02  0.3349460434D-01
      0.2825394365D+01  0.2347269535D+00
      0.6401216923D+00  0.8137573261D+00
 Atom H24      Shell    70 S   1     bf  191 -   191          5.382770447710          8.558295532166         -1.100215297540
      0.1612777588D+00  0.1000000000D+01
 Atom C25      Shell    71 S   6     bf  192 -   192          1.692218647107          6.927990681550         -0.574297938511
      0.3047524880D+04  0.1834737132D-02
      0.4573695180D+03  0.1403732281D-01
      0.1039486850D+03  0.6884262226D-01
      0.2921015530D+02  0.2321844432D+00
      0.9286662960D+01  0.4679413484D+00
      0.3163926960D+01  0.3623119853D+00
 Atom C25      Shell    72 SP   3    bf  193 -   196          1.692218647107          6.927990681550         -0.574297938511
      0.7868272350D+01 -0.1193324198D+00  0.6899906659D-01
      0.1881288540D+01 -0.1608541517D+00  0.3164239610D+00
      0.5442492580D+00  0.1143456438D+01  0.7443082909D+00
 Atom C25      Shell    73 SP   1    bf  197 -   200          1.692218647107          6.927990681550         -0.574297938511
      0.1687144782D+00  0.1000000000D+01  0.1000000000D+01
 Atom C25      Shell    74 D   1     bf  201 -   206          1.692218647107          6.927990681550         -0.574297938511
      0.8000000000D+00  0.1000000000D+01
 Atom H26      Shell    75 S   3     bf  207 -   207          1.751804641152          7.242277913313          1.478966794669
      0.1873113696D+02  0.3349460434D-01
      0.2825394365D+01  0.2347269535D+00
      0.6401216923D+00  0.8137573261D+00
 Atom H26      Shell    76 S   1     bf  208 -   208          1.751804641152          7.242277913313          1.478966794669
      0.1612777588D+00  0.1000000000D+01
 Atom H27      Shell    77 S   3     bf  209 -   209          0.754843261418          8.579676725113         -1.392593554744
      0.1873113696D+02  0.3349460434D-01
      0.2825394365D+01  0.2347269535D+00
      0.6401216923D+00  0.8137573261D+00
 Atom H27      Shell    78 S   1     bf  210 -   210          0.754843261418          8.579676725113         -1.392593554744
      0.1612777588D+00  0.1000000000D+01
 Atom C28      Shell    79 S   6     bf  211 -   211          0.211064456645          4.473652968365         -1.097992299306
      0.3047524880D+04  0.1834737132D-02
      0.4573695180D+03  0.1403732281D-01
      0.1039486850D+03  0.6884262226D-01
      0.2921015530D+02  0.2321844432D+00
      0.9286662960D+01  0.4679413484D+00
      0.3163926960D+01  0.3623119853D+00
 Atom C28      Shell    80 SP   3    bf  212 -   215          0.211064456645          4.473652968365         -1.097992299306
      0.7868272350D+01 -0.1193324198D+00  0.6899906659D-01
      0.1881288540D+01 -0.1608541517D+00  0.3164239610D+00
      0.5442492580D+00  0.1143456438D+01  0.7443082909D+00
 Atom C28      Shell    81 SP   1    bf  216 -   219          0.211064456645          4.473652968365         -1.097992299306
      0.1687144782D+00  0.1000000000D+01  0.1000000000D+01
 Atom C28      Shell    82 D   1     bf  220 -   225          0.211064456645          4.473652968365         -1.097992299306
      0.8000000000D+00  0.1000000000D+01
 Atom C29      Shell    83 S   6     bf  226 -   226          1.803565600535          2.275198308725          0.034961993260
      0.3047524880D+04  0.1834737132D-02
      0.4573695180D+03  0.1403732281D-01
      0.1039486850D+03  0.6884262226D-01
      0.2921015530D+02  0.2321844432D+00
      0.9286662960D+01  0.4679413484D+00
      0.3163926960D+01  0.3623119853D+00
 Atom C29      Shell    84 SP   3    bf  227 -   230          1.803565600535          2.275198308725          0.034961993260
      0.7868272350D+01 -0.1193324198D+00  0.6899906659D-01
      0.1881288540D+01 -0.1608541517D+00  0.3164239610D+00
      0.5442492580D+00  0.1143456438D+01  0.7443082909D+00
 Atom C29      Shell    85 SP   1    bf  231 -   234          1.803565600535          2.275198308725          0.034961993260
      0.1687144782D+00  0.1000000000D+01  0.1000000000D+01
 Atom C29      Shell    86 D   1     bf  235 -   240          1.803565600535          2.275198308725          0.034961993260
      0.8000000000D+00  0.1000000000D+01
 Atom H30      Shell    87 S   3     bf  241 -   241          2.070670528158          2.781422321498          2.040472572273
      0.1873113696D+02  0.3349460434D-01
      0.2825394365D+01  0.2347269535D+00
      0.6401216923D+00  0.8137573261D+00
 Atom H30      Shell    88 S   1     bf  242 -   242          2.070670528158          2.781422321498          2.040472572273
      0.1612777588D+00  0.1000000000D+01
 Atom C31      Shell    89 S   6     bf  243 -   243          0.000000000000          0.000000000000          0.000000000000
      0.3047524880D+04  0.1834737132D-02
      0.4573695180D+03  0.1403732281D-01
      0.1039486850D+03  0.6884262226D-01
      0.2921015530D+02  0.2321844432D+00
      0.9286662960D+01  0.4679413484D+00
      0.3163926960D+01  0.3623119853D+00
 Atom C31      Shell    90 SP   3    bf  244 -   247          0.000000000000          0.000000000000          0.000000000000
      0.7868272350D+01 -0.1193324198D+00  0.6899906659D-01
      0.1881288540D+01 -0.1608541517D+00  0.3164239610D+00
      0.5442492580D+00  0.1143456438D+01  0.7443082909D+00
 Atom C31      Shell    91 SP   1    bf  248 -   251          0.000000000000          0.000000000000          0.000000000000
      0.1687144782D+00  0.1000000000D+01  0.1000000000D+01
 Atom C31      Shell    92 D   1     bf  252 -   257          0.000000000000          0.000000000000          0.000000000000
      0.8000000000D+00  0.1000000000D+01
 Atom H32      Shell    93 S   3     bf  258 -   258          0.524106472270         -1.437269061581          1.391767782219
      0.1873113696D+02  0.3349460434D-01
      0.2825394365D+01  0.2347269535D+00
      0.6401216923D+00  0.8137573261D+00
 Atom H32      Shell    94 S   1     bf  259 -   259          0.524106472270         -1.437269061581          1.391767782219
      0.1612777588D+00  0.1000000000D+01
 Atom H33      Shell    95 S   3     bf  260 -   260          0.029439325328         -0.931606769901         -1.846632837049
      0.1873113696D+02  0.3349460434D-01
      0.2825394365D+01  0.2347269535D+00
      0.6401216923D+00  0.8137573261D+00
 Atom H33      Shell    96 S   1     bf  261 -   261          0.029439325328         -0.931606769901         -1.846632837049
      0.1612777588D+00  0.1000000000D+01
 Atom C34      Shell    97 S   6     bf  262 -   262         -2.623875797107          1.183847338530          0.564971554230
      0.3047524880D+04  0.1834737132D-02
      0.4573695180D+03  0.1403732281D-01
      0.1039486850D+03  0.6884262226D-01
      0.2921015530D+02  0.2321844432D+00
      0.9286662960D+01  0.4679413484D+00
      0.3163926960D+01  0.3623119853D+00
 Atom C34      Shell    98 SP   3    bf  263 -   266         -2.623875797107          1.183847338530          0.564971554230
      0.7868272350D+01 -0.1193324198D+00  0.6899906659D-01
      0.1881288540D+01 -0.1608541517D+00  0.3164239610D+00
      0.5442492580D+00  0.1143456438D+01  0.7443082909D+00
 Atom C34      Shell    99 SP   1    bf  267 -   270         -2.623875797107          1.183847338530          0.564971554230
      0.1687144782D+00  0.1000000000D+01  0.1000000000D+01
 Atom C34      Shell   100 D   1     bf  271 -   276         -2.623875797107          1.183847338530          0.564971554230
      0.8000000000D+00  0.1000000000D+01
 Atom H35      Shell   101 S   3     bf  277 -   277         -4.032337363292          0.537373011127         -0.810754701895
      0.1873113696D+02  0.3349460434D-01
      0.2825394365D+01  0.2347269535D+00
      0.6401216923D+00  0.8137573261D+00
 Atom H35      Shell   102 S   1     bf  278 -   278         -4.032337363292          0.537373011127         -0.810754701895
      0.1612777588D+00  0.1000000000D+01
 Atom H36      Shell   103 S   3     bf  279 -   279         -3.320902679619          0.607764515892          2.424455813996
      0.1873113696D+02  0.3349460434D-01
      0.2825394365D+01  0.2347269535D+00
      0.6401216923D+00  0.8137573261D+00
 Atom H36      Shell   104 S   1     bf  280 -   280         -3.320902679619          0.607764515892          2.424455813996
      0.1612777588D+00  0.1000000000D+01
 Atom C37      Shell   105 S   6     bf  281 -   281         -2.313054152996          4.123825997372          0.418490056649
      0.3047524880D+04  0.1834737132D-02
      0.4573695180D+03  0.1403732281D-01
      0.1039486850D+03  0.6884262226D-01
      0.2921015530D+02  0.2321844432D+00
      0.9286662960D+01  0.4679413484D+00
      0.3163926960D+01  0.3623119853D+00
 Atom C37      Shell   106 SP   3    bf  282 -   285         -2.313054152996          4.123825997372          0.418490056649
      0.7868272350D+01 -0.1193324198D+00  0.6899906659D-01
      0.1881288540D+01 -0.1608541517D+00  0.3164239610D+00
      0.5442492580D+00  0.1143456438D+01  0.7443082909D+00
 Atom C37      Shell   107 SP   1    bf  286 -   289         -2.313054152996          4.123825997372          0.418490056649
      0.1687144782D+00  0.1000000000D+01  0.1000000000D+01
 Atom C37      Shell   108 D   1     bf  290 -   295         -2.313054152996          4.123825997372          0.418490056649
      0.8000000000D+00  0.1000000000D+01
 Atom H38      Shell   109 S   3     bf  296 -   296         -1.927496712713          4.824718938298          2.340790476031
      0.1873113696D+02  0.3349460434D-01
      0.2825394365D+01  0.2347269535D+00
      0.6401216923D+00  0.8137573261D+00
 Atom H38      Shell   110 S   1     bf  297 -   297         -1.927496712713          4.824718938298          2.340790476031
      0.1612777588D+00  0.1000000000D+01
 Atom C39      Shell   111 S   6     bf  298 -   298         -0.267729860055          4.139766271940         -3.960397341345
      0.3047524880D+04  0.1834737132D-02
      0.4573695180D+03  0.1403732281D-01
      0.1039486850D+03  0.6884262226D-01
[...]
 **** Fit      -0.039620
 **** Fit      -0.048462
 **** Fit      -0.051758
 **** Fit      -0.050096
 **** Fit      -0.045339
 **** Fit      -0.039393
 **** Fit      -0.033499
 **** Fit      -0.028233
 **** Fit       0.011387
 **** Fit       0.013330
 **** Fit       0.015571
 **** Fit       0.018017
 **** Fit       0.020353
 **** Fit       0.021841
 **** Fit       0.021106
 **** Fit       0.016297
 **** Fit      -0.008744
 **** Fit      -0.055698
 **** Fit      -0.053951
 **** Fit      -0.048536
 **** Fit      -0.041799
 **** Fit      -0.035220
 **** Fit      -0.029434
 **** Fit       0.011865
 **** Fit       0.013945
 **** Fit       0.016387
 **** Fit       0.019122
 **** Fit       0.021864
 **** Fit       0.023867
 **** Fit       0.023657
 **** Fit      -0.057271
 **** Fit      -0.055519
 **** Fit      -0.049816
 **** Fit      -0.042727
 **** Fit      -0.035849
 **** Fit      -0.029842
 **** Fit       0.011880
 **** Fit       0.013910
 **** Fit       0.016274
 **** Fit       0.018892
 **** Fit       0.021464
 **** Fit       0.023244
 **** Fit       0.022796
 **** Fit      -0.007542
 **** Fit      -0.056308
 **** Fit      -0.054500
 **** Fit      -0.048908
 **** Fit      -0.041986
 **** Fit      -0.035264
 **** Fit      -0.029381
 **** Fit       0.011452
 **** Fit       0.013258
 **** Fit       0.015294
 **** Fit       0.017435
 **** Fit       0.019347
 **** Fit       0.020302
 **** Fit       0.019038
 **** Fit       0.013955
 **** Fit       0.004023
 **** Fit      -0.010053
 **** Fit      -0.025743
 **** Fit      -0.039775
 **** Fit      -0.049268
 **** Fit      -0.052790
 **** Fit      -0.050993
 **** Fit      -0.045929
 **** Fit      -0.039669
 **** Fit      -0.033529
 **** Fit      -0.028095
 **** Fit       0.012130
 **** Fit       0.013682
 **** Fit       0.015156
 **** Fit       0.016195
 **** Fit       0.016147
 **** Fit       0.014022
 **** Fit       0.008719
 **** Fit      -0.000318
 **** Fit      -0.012384
 **** Fit      -0.025442
 **** Fit      -0.036859
 **** Fit      -0.044396
 **** Fit      -0.047088
 **** Fit      -0.045552
 **** Fit      -0.041372
 **** Fit      -0.036130
 **** Fit      -0.030879
 **** Fit      -0.026132
 **** Fit       0.010718
 **** Fit       0.011749
 **** Fit       0.012547
 **** Fit       0.012777
 **** Fit       0.011913
 **** Fit       0.009260
 **** Fit       0.004163
 **** Fit      -0.003580
 **** Fit      -0.013316
 **** Fit      -0.023523
 **** Fit      -0.032287
 **** Fit      -0.038036
 **** Fit      -0.040150
 **** Fit      -0.039090
 **** Fit      -0.035957
 **** Fit      -0.031875
 **** Fit      -0.027644
 **** Fit       0.009773
 **** Fit       0.010011
 **** Fit       0.009644
 **** Fit       0.008290
 **** Fit       0.005508
 **** Fit       0.000961
 **** Fit      -0.005346
 **** Fit      -0.012862
 **** Fit      -0.020514
 **** Fit      -0.027018
 **** Fit      -0.031342
 **** Fit      -0.033086
 **** Fit      -0.032534
 **** Fit      -0.030387
 **** Fit      -0.027404
 **** Fit       0.007785
 **** Fit       0.007058
 **** Fit       0.005509
 **** Fit       0.002885
 **** Fit      -0.000958
 **** Fit      -0.005919
 **** Fit      -0.011571
 **** Fit      -0.017187
 **** Fit      -0.021946
 **** Fit      -0.025195
 **** Fit      -0.026669
 **** Fit      -0.026520
 **** Fit      -0.025169
 **** Fit       0.005067
 **** Fit       0.003525
 **** Fit       0.001207
 **** Fit      -0.001927
 **** Fit      -0.005752
 **** Fit      -0.009952
 **** Fit      -0.014049
 **** Fit      -0.017526
 **** Fit      -0.019979
 **** Fit      -0.021228
 **** Fit      -0.021344
 **** Fit       0.000220
 **** Fit      -0.002282
 **** Fit      -0.005204
 **** Fit      -0.008319
 **** Fit      -0.004793
 **** Fit      -0.007713
 **** Fit      -0.010827
 **** Fit       0.002668
 **** Fit       0.001124
 **** Fit      -0.001147
 **** Fit      -0.004174
 **** Fit      -0.007843
 **** Fit      -0.011863
 **** Fit      -0.015802
 **** Fit      -0.019186
 **** Fit      -0.021632
 **** Fit      -0.022952
 **** Fit       0.005373
 **** Fit       0.004577
 **** Fit       0.003032
 **** Fit       0.000531
 **** Fit      -0.003035
 **** Fit      -0.007567
 **** Fit      -0.012696
 **** Fit      -0.017812
 **** Fit      -0.022222
 **** Fit      -0.025359
 **** Fit      -0.026953
 **** Fit      -0.027073
 **** Fit      -0.026036
 **** Fit       0.007338
 **** Fit       0.007370
 **** Fit       0.006838
 **** Fit       0.005431
 **** Fit       0.002815
 **** Fit      -0.001241
 **** Fit      -0.006696
 **** Fit      -0.013100
 **** Fit      -0.019629
 **** Fit      -0.025300
 **** Fit      -0.029291
 **** Fit      -0.031218
 **** Fit      -0.031202
 **** Fit      -0.029717
 **** Fit      -0.027345
 **** Fit       0.009043
 **** Fit       0.009453
 **** Fit       0.009304
 **** Fit       0.008190
 **** Fit       0.005625
 **** Fit       0.001203
 **** Fit      -0.005134
 **** Fit      -0.012879
 **** Fit      -0.020964
 **** Fit      -0.028065
 **** Fit      -0.033051
 **** Fit      -0.035381
 **** Fit      -0.035228
 **** Fit      -0.033261
 **** Fit      -0.030270
 **** Fit      -0.026902
 **** Fit       0.009569
 **** Fit       0.010580
 **** Fit       0.011386
 **** Fit       0.011678
 **** Fit       0.010967
 **** Fit       0.008610
 **** Fit       0.004001
 **** Fit      -0.003064
 **** Fit      -0.012037
 **** Fit      -0.021620
 **** Fit      -0.030146
 **** Fit      -0.036158
 **** Fit      -0.038935
 **** Fit      -0.038687
 **** Fit      -0.036279
 **** Fit      -0.032720
 **** Fit      -0.028802
 **** Fit       0.010474
 **** Fit       0.011739
 **** Fit       0.012870
 **** Fit       0.013546
 **** Fit       0.013220
 **** Fit       0.011125
 **** Fit       0.006477
 **** Fit      -0.001068
 **** Fit      -0.010950
 **** Fit      -0.021686
 **** Fit      -0.031344
 **** Fit      -0.038201
 **** Fit      -0.041371
 **** Fit      -0.041080
 **** Fit      -0.038354
 **** Fit      -0.034378
 **** Fit      -0.030062
 **** Fit       0.010956
 **** Fit       0.012343
 **** Fit       0.013631
 **** Fit       0.014498
 **** Fit       0.014372
 **** Fit       0.012429
 **** Fit       0.007793
 **** Fit       0.000046
 **** Fit      -0.010250
 **** Fit      -0.021522
 **** Fit      -0.031709
 **** Fit      -0.038965
 **** Fit      -0.042323
 **** Fit      -0.042017
 **** Fit      -0.039149
 **** Fit      -0.034990
 **** Fit      -0.030503
 **** Fit       0.010959
 **** Fit       0.012300
 **** Fit       0.013528
 **** Fit       0.014318
 **** Fit       0.014111
 **** Fit       0.012103
 **** Fit       0.007458
 **** Fit      -0.000210
 **** Fit      -0.010336
 **** Fit      -0.021378
 **** Fit      -0.031323
 **** Fit      -0.038380
 **** Fit      -0.041629
 **** Fit      -0.041315
 **** Fit      -0.038509
 **** Fit      -0.034442
 **** Fit      -0.030046
 **** Fit       0.010504
 **** Fit       0.011649
 **** Fit       0.012621
 **** Fit       0.013102
 **** Fit       0.012576
 **** Fit       0.010340
 **** Fit       0.005707
 **** Fit      -0.001587
 **** Fit      -0.010983
 **** Fit      -0.021085
 **** Fit      -0.030092
 **** Fit      -0.036434
 **** Fit      -0.039339
 **** Fit      -0.039049
 **** Fit      -0.036506
 **** Fit      -0.032790
 **** Fit      -0.028735
 **** Fit       0.010536
 **** Fit       0.011139
 **** Fit       0.011198
 **** Fit       0.010271
 **** Fit       0.007804
 **** Fit       0.003309
 **** Fit      -0.003329
 **** Fit      -0.011578
 **** Fit      -0.020263
 **** Fit      -0.027913
 **** Fit      -0.033270
 **** Fit      -0.035744
 **** Fit      -0.035546
 **** Fit      -0.033425
 **** Fit      -0.030252
 **** Fit      -0.026722
 **** Fit       0.009162
 **** Fit       0.009380
 **** Fit       0.009034
 **** Fit       0.007773
 **** Fit       0.005203
 **** Fit       0.001027
 **** Fit      -0.004750
 **** Fit      -0.011651
 **** Fit      -0.018753
 **** Fit      -0.024940
 **** Fit      -0.029283
 **** Fit      -0.031354
 **** Fit      -0.031305
 **** Fit      -0.029684
 **** Fit      -0.027144
 **** Fit       0.007608
 **** Fit       0.006955
 **** Fit       0.005503
 **** Fit       0.002999
 **** Fit      -0.000712
 **** Fit      -0.005549
 **** Fit      -0.011112
 **** Fit      -0.016714
 **** Fit      -0.021561
 **** Fit      -0.025000
 **** Fit      -0.026730
 **** Fit      -0.026843
 **** Fit      -0.025710
 **** Fit       0.005164
 **** Fit       0.003667
 **** Fit       0.001359
 **** Fit      -0.001815
 **** Fit      -0.005748
 **** Fit      -0.010122
 **** Fit      -0.014446
 **** Fit      -0.018175
 **** Fit      -0.020869
 **** Fit      -0.022315
 **** Fit      -0.022561
 **** Fit       0.002298
 **** Fit       0.000262
 **** Fit      -0.002379
 **** Fit      -0.005515
 **** Fit      -0.008905
 **** Fit      -0.012206
 **** Fit      -0.001940
 **** Fit      -0.004432
 **** Fit      -0.007357
 **** Fit      -0.010503
 **** Fit       0.002792
 **** Fit       0.001324
 **** Fit      -0.000840
 **** Fit      -0.003731
 **** Fit      -0.007247
 **** Fit      -0.011120
 **** Fit      -0.014952
 **** Fit      -0.018302
 **** Fit      -0.020799
 **** Fit      -0.022245
 **** Fit       0.005114
 **** Fit       0.004348
 **** Fit       0.002897
 **** Fit       0.000584
 **** Fit      -0.002681
 **** Fit      -0.006809
 **** Fit      -0.011480
 **** Fit      -0.016177
 **** Fit      -0.020304
 **** Fit      -0.023360
 **** Fit      -0.025076
 **** Fit      -0.025468
 **** Fit       0.006572
 **** Fit       0.005985
 **** Fit       0.004628
 **** Fit       0.002244
 **** Fit      -0.001330
 **** Fit      -0.006037
 **** Fit      -0.011511
 **** Fit      -0.017109
 **** Fit      -0.022065
 **** Fit      -0.025723
 **** Fit      -0.027733
 **** Fit      -0.028122
 **** Fit      -0.027206
 **** Fit       0.007753
 **** Fit       0.007895
 **** Fit       0.007514
 **** Fit       0.006302
 **** Fit       0.003924
 **** Fit       0.000134
 **** Fit      -0.005054
 **** Fit      -0.011243
 **** Fit      -0.017670
 **** Fit      -0.023405
 **** Fit      -0.027637
 **** Fit      -0.029934
 **** Fit      -0.030329
 **** Fit      -0.029219
 **** Fit      -0.027139
 **** Fit       0.008588
 **** Fit       0.008902
 **** Fit       0.008697
 **** Fit       0.007627
 **** Fit       0.005295
 **** Fit       0.001385
 **** Fit      -0.004133
 **** Fit      -0.010838
 **** Fit      -0.017883
 **** Fit      -0.024208
 **** Fit      -0.028884
 **** Fit      -0.031405
 **** Fit      -0.031812
 **** Fit      -0.030563
 **** Fit      -0.028270
 **** Fit       0.009035
 **** Fit       0.009433
 **** Fit       0.009316
 **** Fit       0.008321
 **** Fit       0.006022
 **** Fit       0.002069
 **** Fit      -0.003589
 **** Fit      -0.010525
 **** Fit      -0.017849
 **** Fit      -0.024443
 **** Fit      -0.029320
 **** Fit      -0.031944
 **** Fit      -0.032358
 **** Fit      -0.031048
 **** Fit      -0.028664
 **** Fit       0.009041
 **** Fit       0.009409
 **** Fit       0.009260
 **** Fit       0.008238
 **** Fit       0.005928
 **** Fit       0.001996
 **** Fit      -0.003600
 **** Fit      -0.010436
 **** Fit      -0.017636
 **** Fit      -0.024107
 **** Fit      -0.028887
 **** Fit      -0.031458
 **** Fit      -0.031867
 **** Fit      -0.030587
 **** Fit      -0.028253
 **** Fit       0.008626
 **** Fit       0.008862
 **** Fit       0.008576
 **** Fit       0.007441
 **** Fit       0.005093
 **** Fit       0.001254
 **** Fit      -0.004080
 **** Fit      -0.010500
 **** Fit      -0.017199
 **** Fit      -0.023186
 **** Fit      -0.027601
 **** Fit      -0.029985
 **** Fit      -0.030384
 **** Fit      -0.029223
 **** Fit      -0.027070
 **** Fit       0.007881
 **** Fit       0.007923
 **** Fit       0.007445
 **** Fit       0.006168
 **** Fit       0.003803
 **** Fit       0.000152
 **** Fit      -0.004745
 **** Fit      -0.010506
 **** Fit      -0.016434
 **** Fit      -0.021695
 **** Fit      -0.025572
 **** Fit      -0.027692
 **** Fit      -0.028090
 **** Fit      -0.027118
 **** Fit       0.006768
 **** Fit       0.006103
 **** Fit       0.004717
 **** Fit       0.002400
 **** Fit      -0.000965
 **** Fit      -0.005300
 **** Fit      -0.010268
 **** Fit      -0.015300
 **** Fit      -0.019734
 **** Fit      -0.023014
 **** Fit      -0.024847
 **** Fit      -0.025259
 **** Fit      -0.024514
 **** Fit       0.004761
 **** Fit       0.003333
 **** Fit       0.001145
 **** Fit      -0.001858
 **** Fit      -0.005576
 **** Fit      -0.009725
 **** Fit      -0.013862
 **** Fit      -0.017489
 **** Fit      -0.020194
 **** Fit      -0.021756
 **** Fit       0.002164
 **** Fit       0.000168
 **** Fit      -0.002436
 **** Fit      -0.005545
 **** Fit      -0.008929
 **** Fit      -0.012256
 **** Fit      -0.004143
 **** Fit      -0.006885
 **** Fit      -0.009838
 **** Fit       0.001071
 **** Fit      -0.000919
 **** Fit      -0.003537
 **** Fit      -0.006690
 **** Fit      -0.010153
 **** Fit      -0.013594
 **** Fit      -0.016646
 **** Fit       0.003541
 **** Fit       0.002165
 **** Fit       0.000074
 **** Fit      -0.002783
 **** Fit      -0.006318
 **** Fit      -0.010276
 **** Fit      -0.014257
 **** Fit      -0.017804
 **** Fit      -0.020525
 **** Fit      -0.022191
 **** Fit       0.004538
 **** Fit       0.003196
 **** Fit       0.001048
 **** Fit      -0.001989
 **** Fit      -0.005841
 **** Fit      -0.010226
 **** Fit      -0.014683
 **** Fit      -0.018676
 **** Fit      -0.021736
 **** Fit      -0.023591
 **** Fit      -0.024216
 **** Fit       0.005931
 **** Fit       0.005304
 **** Fit       0.004004
 **** Fit       0.001834
 **** Fit      -0.001316
 **** Fit      -0.005384
 **** Fit      -0.010072
 **** Fit      -0.014874
 **** Fit      -0.019192
 **** Fit      -0.022502
 **** Fit      -0.024498
 **** Fit      -0.025153
 **** Fit       0.006310
 **** Fit       0.005722
 **** Fit       0.004447
 **** Fit       0.002273
 **** Fit      -0.000922
 **** Fit      -0.005082
 **** Fit      -0.009902
 **** Fit      -0.014857
 **** Fit      -0.019320
 **** Fit      -0.022741
 **** Fit      -0.024800
 **** Fit      -0.025470
 **** Fit      -0.024964
 **** Fit       0.006332
 **** Fit       0.005733
 **** Fit       0.004452
 **** Fit       0.002284
 **** Fit      -0.000888
 **** Fit      -0.005005
 **** Fit      -0.009766
 **** Fit      -0.014651
 **** Fit      -0.019048
 **** Fit      -0.022418
 **** Fit      -0.024448
 **** Fit      -0.025112
 **** Fit       0.006016
 **** Fit       0.005361
 **** Fit       0.004049
 **** Fit       0.001902
 **** Fit      -0.001179
 **** Fit      -0.005122
 **** Fit      -0.009639
 **** Fit      -0.014246
 **** Fit      -0.018379
 **** Fit      -0.021547
 **** Fit      -0.023464
 **** Fit      -0.024107
 **** Fit       0.004702
 **** Fit       0.003357
 **** Fit       0.001258
 **** Fit      -0.001661
 **** Fit      -0.005318
 **** Fit      -0.009444
 **** Fit      -0.013614
 **** Fit      -0.017339
 **** Fit      -0.020196
 **** Fit      -0.021942
 **** Fit       0.002530
 **** Fit       0.000521
 **** Fit      -0.002173
 **** Fit      -0.005462
 **** Fit      -0.009107
 **** Fit      -0.012751
 **** Fit      -0.015991
 **** Fit      -0.018484
 **** Fit      -0.000166
 **** Fit      -0.002589
 **** Fit      -0.005467
 **** Fit      -0.008598
 **** Fit      -0.011693
 **** Fit      -0.003569
 **** Fit      -0.006259
 **** Fit      -0.009184
 **** Fit      -0.000707
 **** Fit      -0.003124
 **** Fit      -0.006024
 **** Fit      -0.009212
 **** Fit      -0.012402
 **** Fit       0.001654
 **** Fit      -0.000234
 **** Fit      -0.002739
 **** Fit      -0.005782
 **** Fit      -0.009154
 **** Fit      -0.012545
 **** Fit      -0.015602
 **** Fit       0.001953
 **** Fit       0.000052
 **** Fit      -0.002490
 **** Fit      -0.005592
 **** Fit      -0.009044
 **** Fit      -0.012523
 **** Fit      -0.015663
 **** Fit       0.002002
 **** Fit       0.000110
 **** Fit      -0.002413
 **** Fit      -0.005487
 **** Fit      -0.008901
 **** Fit      -0.012340
 **** Fit      -0.015442
 **** Fit       0.001815
 **** Fit      -0.000043
 **** Fit      -0.002493
 **** Fit      -0.005452
 **** Fit      -0.008719
 **** Fit      -0.011995
 **** Fit      -0.000345
 **** Fit      -0.002670
 **** Fit      -0.005439
 **** Fit      -0.008467
 -----------------------------------------------------------------
 Leave Link  602 at Fri Apr 28 12:05:10 2017, MaxMem=   33554432 cpu:      95.1
 (Enter /scratch/michal/g09/l9999.exe)

 Test job not archived.
 1\1\GINC-RZEPICHA\SP\RHF\6-31G(d)\C27H46O3\MICHAL\28-Apr-2017\0\\#P HF
 /6-31G* SCF(Conver=6) NoSymm Test Pop=chelpg IOp(6/33=2) GFInput GFPri
 nt\\MEP - Input generated by R.E.D.-III.x MOLECULE\\0,1\C,0,7.50806223
 ,2.21765692,0.07498387\H,0,7.33893651,2.19077739,1.15846328\C,0,6.8189
 5001,1.00672626,-0.56905247\H,0,7.19807703,0.08233116,-0.12279206\H,0,
 7.10807569,0.98544304,-1.63256609\C,0,5.30696061,1.06164889,-0.4552600
 2\C,0,4.61789095,2.35644182,-0.89734756\C,0,5.40152877,3.56530468,-0.2
 9745318\H,0,5.19361396,3.60893947,0.7807512\H,0,5.01898083,4.49803922,
 -0.7253518\C,0,6.92480509,3.51187407,-0.49137582\H,0,7.17964256,3.5822
 4603,-1.5592122\H,0,7.39454269,4.3715239,0.\C,0,4.62878832,0.,0.\H,0,5
 .16798885,-0.89261301,0.30925175\C,0,3.13496444,-0.10339423,0.09213654
 \H,0,2.82751291,-0.21341478,1.14370472\C,0,2.37401775,1.06178065,-0.56
 16297\H,0,2.31740806,0.84082237,-1.63566809\C,0,3.15128171,2.3906083,-
 0.34639891\H,0,3.24906462,2.50645018,0.74534656\C,0,2.33376645,3.60059
 558,-0.85280841\H,0,2.29281262,3.58638696,-1.94739142\H,0,2.84843944,4
 .52885494,-0.58220886\C,0,0.89548354,3.66613477,-0.30390538\H,0,0.9270
 1509,3.83244841,0.78263552\H,0,0.39944585,4.54016938,-0.73692877\C,0,0
 .1116905,2.36735519,-0.5810325\C,0,0.95440581,1.20398309,0.01850109\H,
 0,1.09575165,1.4718653,1.07977158\C,0,0.,0.,0.\H,0,0.2773452,-0.760570
 03,0.73649179\H,0,0.01557862,-0.49298507,-0.97719601\C,0,-1.38849527,0
 .62646503,0.29897007\H,0,-2.13382103,0.28436555,-0.42903291\H,0,-1.757
 34601,0.32161513,1.28296676\C,0,-1.22401554,2.18223473,0.2214554\H,0,-
 1.01998733,2.5531313,1.23869297\C,0,-0.14167654,2.19066996,-2.09575201
 \H,0,0.78666617,2.11671357,-2.66771102\H,0,-0.72457533,1.29016396,-2.3
 1077378\H,0,-0.69972283,3.04328229,-2.49615533\C,0,-2.51576033,2.89319
 295,-0.26023916\H,0,-2.77352852,2.48640652,-1.25017944\C,0,-2.3579302,
 4.41750553,-0.40031712\H,0,-2.02560004,4.86598835,0.5445436\H,0,-3.305
 71676,4.88924348,-0.6756969\H,0,-1.63309376,4.6890063,-1.17074297\C,0,
 4.65235965,2.43029036,-2.44735033\H,0,4.30915885,3.40492088,-2.8082448
 1\H,0,5.66484824,2.28273486,-2.83200185\H,0,4.02345756,1.65496266,-2.8
 9487284\O,0,2.6803209,-1.28738752,-0.61114821\O,0,3.15092839,-2.453913
 93,0.12913621\H,0,2.3030272,-2.82366211,0.42555924\O,0,8.93081055,2.15
 402148,-0.05814461\H,0,9.15437073,2.16660401,-0.99944666\C,0,-3.693940
 81,2.5599734,0.68933488\H,0,-3.73088503,1.47664019,0.85359058\H,0,-3.4
 8537716,3.00939831,1.67113646\C,0,-5.08043745,3.00276169,0.1913548\H,0
 ,-5.14687212,4.09616181,0.15606339\H,0,-5.20504996,2.66127645,-0.84613
 767\C,0,-6.25346713,2.44461207,1.0184243\H,0,-6.21699094,1.34621941,0.
 97975143\H,0,-7.19616963,2.73375812,0.53053199\C,0,-6.32562131,2.87695
 736,2.49857532\H,0,-5.39166148,2.57190243,2.99209901\C,0,-6.46850569,4
 .3988015,2.6592934\H,0,-7.37738159,4.7594546,2.16012869\H,0,-6.5395510
 6,4.67535145,3.71740026\H,0,-5.61768407,4.94119414,2.23432483\C,0,-7.4
 7933872,2.14959551,3.20752757\H,0,-8.44490356,2.41871103,2.76017879\H,
 0,-7.52182128,2.41153615,4.27091782\H,0,-7.3708917,1.0613437,3.1341264
 9\\Version=EM64L-G09RevC.01\HF=-1273.68334\RMSD=5.488e-07\Dipole=-0.88
 09331,0.5425795,-0.1048611\Quadrupole=-14.0872131,7.2672606,6.8199525,
 4.7059528,-7.3134236,-5.3586567\PG=C01 [X(C27H46O3)]\\@


 LOVE IS BLIND, THAT'S WHY ALL THE WORLD LOVES A LOUVER.
 Job cpu time:  0 days  0 hours 34 minutes 33.6 seconds.
 File lengths (MBytes):  RWF=    159 Int=      0 D2E=      0 Chk=     11 Scr=      1
 Normal termination of Gaussian 09 at Fri Apr 28 12:05:10 2017.
