 Entering Gaussian System, Link 0=/scratch/michal/g09//g09
 Input=JOB2-gau_m1-6-1.com
 Output=JOB2-gau_m1-6-1.log
 Initial command:
 /scratch/michal/g09/l1.exe /scratch/michal/gauss_scratch/Gau-39378.inp -scrdir=/scratch/michal/gauss_scratch/
 Entering Link 1 = /scratch/michal/g09/l1.exe PID=     39380.
  
 Copyright (c) 1988,1990,1992,1993,1995,1998,2003,2009,2011,
            Gaussian, Inc.  All Rights Reserved.
  
 This is part of the Gaussian(R) 09 program.  It is based on
 the Gaussian(R) 03 system (copyright 2003, Gaussian, Inc.),
 the Gaussian(R) 98 system (copyright 1998, Gaussian, Inc.),
 the Gaussian(R) 94 system (copyright 1995, Gaussian, Inc.),
 the Gaussian 92(TM) system (copyright 1992, Gaussian, Inc.),
 the Gaussian 90(TM) system (copyright 1990, Gaussian, Inc.),
 the Gaussian 88(TM) system (copyright 1988, Gaussian, Inc.),
 the Gaussian 86(TM) system (copyright 1986, Carnegie Mellon
 University), and the Gaussian 82(TM) system (copyright 1983,
 Carnegie Mellon University). Gaussian is a federally registered
 trademark of Gaussian, Inc.
  
 This software contains proprietary and confidential information,
 including trade secrets, belonging to Gaussian, Inc.
  
 This software is provided under written license and may be
 used, copied, transmitted, or stored only in accord with that
 written license.
  
 The following legend is applicable only to US Government
 contracts under FAR:
  
                    RESTRICTED RIGHTS LEGEND
  
 Use, reproduction and disclosure by the US Government is
 subject to restrictions as set forth in subparagraphs (a)
 and (c) of the Commercial Computer Software - Restricted
 Rights clause in FAR 52.227-19.
  
 Gaussian, Inc.
 340 Quinnipiac St., Bldg. 40, Wallingford CT 06492
  
  
 ---------------------------------------------------------------
 Warning -- This program may not be used in any manner that
 competes with the business of Gaussian, Inc. or will provide
 assistance to any competitor of Gaussian, Inc.  The licensee
 of this program is prohibited from giving any competitor of
 Gaussian, Inc. access to this program.  By using this program,
 the user acknowledges that Gaussian, Inc. is engaged in the
 business of creating and licensing software in the field of
 computational chemistry and represents and warrants to the
 licensee that it is not a competitor of Gaussian, Inc. and that
 it will not use this program in any manner prohibited above.
 ---------------------------------------------------------------
  

 Cite this work as:
 Gaussian 09, Revision C.01,
 M. J. Frisch, G. W. Trucks, H. B. Schlegel, G. E. Scuseria, 
 M. A. Robb, J. R. Cheeseman, G. Scalmani, V. Barone, B. Mennucci, 
 G. A. Petersson, H. Nakatsuji, M. Caricato, X. Li, H. P. Hratchian, 
 A. F. Izmaylov, J. Bloino, G. Zheng, J. L. Sonnenberg, M. Hada, 
 M. Ehara, K. Toyota, R. Fukuda, J. Hasegawa, M. Ishida, T. Nakajima, 
 Y. Honda, O. Kitao, H. Nakai, T. Vreven, J. A. Montgomery, Jr., 
 J. E. Peralta, F. Ogliaro, M. Bearpark, J. J. Heyd, E. Brothers, 
 K. N. Kudin, V. N. Staroverov, T. Keith, R. Kobayashi, J. Normand, 
 K. Raghavachari, A. Rendell, J. C. Burant, S. S. Iyengar, J. Tomasi, 
 M. Cossi, N. Rega, J. M. Millam, M. Klene, J. E. Knox, J. B. Cross, 
 V. Bakken, C. Adamo, J. Jaramillo, R. Gomperts, R. E. Stratmann, 
 O. Yazyev, A. J. Austin, R. Cammi, C. Pomelli, J. W. Ochterski, 
 R. L. Martin, K. Morokuma, V. G. Zakrzewski, G. A. Voth, 
 P. Salvador, J. J. Dannenberg, S. Dapprich, A. D. Daniels, 
 O. Farkas, J. B. Foresman, J. V. Ortiz, J. Cioslowski, 
 and D. J. Fox, Gaussian, Inc., Wallingford CT, 2010.
 
 ******************************************
 Gaussian 09:  EM64L-G09RevC.01 23-Sep-2011
                28-Apr-2017 
 ******************************************
 %Mem=256MB
 %NProc=48
 Will use up to   48 processors via shared memory.
 ----------------------------------------------------------------------
 #P HF/6-31G* SCF(Conver=6) NoSymm Test Pop=chelpg IOp(6/33=2) GFInput 
 GFPrint
 ----------------------------------------------------------------------
 1/38=1/1;
 2/12=2,15=1,17=6,18=5,40=1/2;
 3/5=1,6=6,7=1,11=9,16=1,24=110,25=1,30=1/1,2,3;
 4//1;
 5/5=2,6=6,38=5/2;
 6/7=2,8=2,9=2,10=2,15=8,20=3,28=1,33=2/1,2;
 99/5=1,9=1/99;
 Leave Link    1 at Fri Apr 28 12:24:07 2017, MaxMem=   33554432 cpu:       4.7
 (Enter /scratch/michal/g09/l101.exe)
 ----------------------------------------------
 MEP - Input generated by R.E.D.-III.x MOLECULE
 ----------------------------------------------
 Charge =  0 Multiplicity = 1
 Symbolic Z-Matrix:
 C                     1.7586   -1.24833  -0.06994 
 H                     1.87104  -1.12799  -1.15438 
 C                     3.15122  -1.30884   0.57361 
 H                     3.72792  -2.12834   0.13321 
 H                     3.01398  -1.55539   1.63909 
 C                     3.91451  -0.00374   0.45258 
 C                     3.19081   1.27897   0.8771 
 C                     1.74867   1.25429   0.28107 
 H                     1.81906   1.44421  -0.79901 
 H                     1.16694   2.08015   0.70336 
 C                     0.97903  -0.05904   0.48893 
 H                     0.78702  -0.22759   1.55907 
 H                     0.        0.        0. 
 C                     5.1756    0.        0. 
 H                     5.63616  -0.93675  -0.31574 
 C                     6.06046   1.20696  -0.10749 
 H                     6.29386   1.39575  -1.16804 
 C                     5.48253   2.47899   0.53135 
 H                     5.69142   2.41505   1.60475 
 C                     3.94614   2.52859   0.30344 
 H                     3.80029   2.48384  -0.78873 
 C                     3.34954   3.8741    0.77506 
 H                     3.36457   3.92217   1.86931 
 H                     2.29479   3.93082   0.48449 
 C                     4.0735    5.11432   0.21598 
 H                     3.93596   5.1564   -0.8743 
 H                     3.59172   6.0083    0.6238 
 C                     5.58451   5.08661   0.5218 
 C                     6.13064   3.74682  -0.05292 
 H                     5.85128   3.75963  -1.12143 
 C                     7.65788   3.91053   0. 
 H                     8.17413   3.25752  -0.70829 
 H                     8.04067   3.64748   0.99136 
 C                     7.875     5.4154   -0.3124 
 H                     8.54751   5.87259   0.42345 
 H                     8.34977   5.55218  -1.28879 
 C                     6.47086   6.10877  -0.27259 
 H                     6.06981   6.12428  -1.29882 
 C                     5.83954   5.22174   2.0408 
 H                     5.40449   4.39761   2.61177 
 H                     6.90772   5.24484   2.27514 
 H                     5.40083   6.14842   2.42525 
 C                     6.54966   7.58543   0.19579 
 H                     7.01215   7.59617   1.1947 
 C                     5.17437   8.26765   0.30273 
 H                     4.63511   8.21501  -0.65168 
 H                     5.27639   9.32418   0.56777 
 H                     4.54384   7.80857   1.0672 
 C                     3.11544   1.31068   2.42694 
 H                     2.48239   2.13166   2.77747 
 H                     2.6917    0.38499   2.8259 
 H                     4.10942   1.42733   2.86832 
 O                     7.39382   0.89666   0.37148 
 O                     7.33799   0.63601   1.80505 
 H                     7.38076  -0.3342    1.81877 
 O                     1.05433  -2.48461   0.0733 
 H                     0.89178  -2.64174   1.01409 
 C                     7.47868   8.39407  -0.74428 
 H                     8.41551   7.84313  -0.88778 
 H                     7.00451   8.45093  -1.73496 
 C                     7.83919   9.80598  -0.25136 
 H                     6.95137   10.44854  -0.23737 
 H                     8.17537   9.73662   0.793 
 C                     8.9543    10.49029  -1.06367 
 H                     9.86099   9.87108  -1.00305 
 H                     9.20657   11.44539  -0.5793 
 C                     8.65544   10.77013  -2.55208 
 H                     8.42036   9.81399  -3.04129 
 C                     7.4514    11.70609  -2.74311 
 H                     7.62634   12.67115  -2.24975 
 H                     7.27506   11.90456  -3.80646 
 H                     6.52967   11.28336  -2.33035 
 C                     9.90114   11.34681  -3.24377 
 H                     10.18452   12.30978  -2.79956 
 H                     9.72225   11.514   -4.3121 
 H                     10.7594   10.67167  -3.14892 
 
 NAtoms=     76 NQM=        0 NQMF=       0 NMMI=     76 NMMIF=      0
                NMic=       0 NMicF=      0.
                    Isotopes and Nuclear Properties:
 (Nuclear quadrupole moments (NQMom) in fm**2, nuclear magnetic moments (NMagM)
  in nuclear magnetons)

  Atom         1           2           3           4           5           6           7           8           9          10
 IAtWgt=          12           1          12           1           1          12          12          12           1           1
 AtmWgt=  12.0000000   1.0078250  12.0000000   1.0078250   1.0078250  12.0000000  12.0000000  12.0000000   1.0078250   1.0078250
 NucSpn=           0           1           0           1           1           0           0           0           1           1
 AtZEff=   0.0000000   0.0000000   0.0000000   0.0000000   0.0000000   0.0000000   0.0000000   0.0000000   0.0000000   0.0000000
 NQMom=    0.0000000   0.0000000   0.0000000   0.0000000   0.0000000   0.0000000   0.0000000   0.0000000   0.0000000   0.0000000
 NMagM=    0.0000000   2.7928460   0.0000000   2.7928460   2.7928460   0.0000000   0.0000000   0.0000000   2.7928460   2.7928460

  Atom        11          12          13          14          15          16          17          18          19          20
 IAtWgt=          12           1           1          12           1          12           1          12           1          12
 AtmWgt=  12.0000000   1.0078250   1.0078250  12.0000000   1.0078250  12.0000000   1.0078250  12.0000000   1.0078250  12.0000000
 NucSpn=           0           1           1           0           1           0           1           0           1           0
 AtZEff=   0.0000000   0.0000000   0.0000000   0.0000000   0.0000000   0.0000000   0.0000000   0.0000000   0.0000000   0.0000000
 NQMom=    0.0000000   0.0000000   0.0000000   0.0000000   0.0000000   0.0000000   0.0000000   0.0000000   0.0000000   0.0000000
 NMagM=    0.0000000   2.7928460   2.7928460   0.0000000   2.7928460   0.0000000   2.7928460   0.0000000   2.7928460   0.0000000

  Atom        21          22          23          24          25          26          27          28          29          30
 IAtWgt=           1          12           1           1          12           1           1          12          12           1
 AtmWgt=   1.0078250  12.0000000   1.0078250   1.0078250  12.0000000   1.0078250   1.0078250  12.0000000  12.0000000   1.0078250
 NucSpn=           1           0           1           1           0           1           1           0           0           1
 AtZEff=   0.0000000   0.0000000   0.0000000   0.0000000   0.0000000   0.0000000   0.0000000   0.0000000   0.0000000   0.0000000
 NQMom=    0.0000000   0.0000000   0.0000000   0.0000000   0.0000000   0.0000000   0.0000000   0.0000000   0.0000000   0.0000000
 NMagM=    2.7928460   0.0000000   2.7928460   2.7928460   0.0000000   2.7928460   2.7928460   0.0000000   0.0000000   2.7928460

  Atom        31          32          33          34          35          36          37          38          39          40
 IAtWgt=          12           1           1          12           1           1          12           1          12           1
 AtmWgt=  12.0000000   1.0078250   1.0078250  12.0000000   1.0078250   1.0078250  12.0000000   1.0078250  12.0000000   1.0078250
 NucSpn=           0           1           1           0           1           1           0           1           0           1
 AtZEff=   0.0000000   0.0000000   0.0000000   0.0000000   0.0000000   0.0000000   0.0000000   0.0000000   0.0000000   0.0000000
 NQMom=    0.0000000   0.0000000   0.0000000   0.0000000   0.0000000   0.0000000   0.0000000   0.0000000   0.0000000   0.0000000
 NMagM=    0.0000000   2.7928460   2.7928460   0.0000000   2.7928460   2.7928460   0.0000000   2.7928460   0.0000000   2.7928460

  Atom        41          42          43          44          45          46          47          48          49          50
 IAtWgt=           1           1          12           1          12           1           1           1          12           1
 AtmWgt=   1.0078250   1.0078250  12.0000000   1.0078250  12.0000000   1.0078250   1.0078250   1.0078250  12.0000000   1.0078250
 NucSpn=           1           1           0           1           0           1           1           1           0           1
 AtZEff=   0.0000000   0.0000000   0.0000000   0.0000000   0.0000000   0.0000000   0.0000000   0.0000000   0.0000000   0.0000000
 NQMom=    0.0000000   0.0000000   0.0000000   0.0000000   0.0000000   0.0000000   0.0000000   0.0000000   0.0000000   0.0000000
 NMagM=    2.7928460   2.7928460   0.0000000   2.7928460   0.0000000   2.7928460   2.7928460   2.7928460   0.0000000   2.7928460

  Atom        51          52          53          54          55          56          57          58          59          60
 IAtWgt=           1           1          16          16           1          16           1          12           1           1
 AtmWgt=   1.0078250   1.0078250  15.9949146  15.9949146   1.0078250  15.9949146   1.0078250  12.0000000   1.0078250   1.0078250
 NucSpn=           1           1           0           0           1           0           1           0           1           1
 AtZEff=   0.0000000   0.0000000   0.0000000   0.0000000   0.0000000   0.0000000   0.0000000   0.0000000   0.0000000   0.0000000
 NQMom=    0.0000000   0.0000000   0.0000000   0.0000000   0.0000000   0.0000000   0.0000000   0.0000000   0.0000000   0.0000000
 NMagM=    2.7928460   2.7928460   0.0000000   0.0000000   2.7928460   0.0000000   2.7928460   0.0000000   2.7928460   2.7928460

  Atom        61          62          63          64          65          66          67          68          69          70
 IAtWgt=          12           1           1          12           1           1          12           1          12           1
 AtmWgt=  12.0000000   1.0078250   1.0078250  12.0000000   1.0078250   1.0078250  12.0000000   1.0078250  12.0000000   1.0078250
 NucSpn=           0           1           1           0           1           1           0           1           0           1
 AtZEff=   0.0000000   0.0000000   0.0000000   0.0000000   0.0000000   0.0000000   0.0000000   0.0000000   0.0000000   0.0000000
 NQMom=    0.0000000   0.0000000   0.0000000   0.0000000   0.0000000   0.0000000   0.0000000   0.0000000   0.0000000   0.0000000
 NMagM=    0.0000000   2.7928460   2.7928460   0.0000000   2.7928460   2.7928460   0.0000000   2.7928460   0.0000000   2.7928460

  Atom        71          72          73          74          75          76
 IAtWgt=           1           1          12           1           1           1
 AtmWgt=   1.0078250   1.0078250  12.0000000   1.0078250   1.0078250   1.0078250
 NucSpn=           1           1           0           1           1           1
 AtZEff=   0.0000000   0.0000000   0.0000000   0.0000000   0.0000000   0.0000000
 NQMom=    0.0000000   0.0000000   0.0000000   0.0000000   0.0000000   0.0000000
 NMagM=    2.7928460   2.7928460   0.0000000   2.7928460   2.7928460   2.7928460
 Leave Link  101 at Fri Apr 28 12:24:08 2017, MaxMem=   33554432 cpu:      10.7
 (Enter /scratch/michal/g09/l202.exe)
 Symmetry turned off by external request.
 Stoichiometry    C27H46O3
 Framework group  C1[X(C27H46O3)]
 Deg. of freedom   222
 Full point group                 C1      NOp   1
                          Input orientation:                          
 ---------------------------------------------------------------------
 Center     Atomic      Atomic             Coordinates (Angstroms)
 Number     Number       Type             X           Y           Z
 ---------------------------------------------------------------------
      1          6           0        1.758600   -1.248328   -0.069936
      2          1           0        1.871039   -1.127989   -1.154380
      3          6           0        3.151224   -1.308844    0.573614
      4          1           0        3.727925   -2.128345    0.133208
      5          1           0        3.013978   -1.555387    1.639086
      6          6           0        3.914515   -0.003735    0.452581
      7          6           0        3.190811    1.278966    0.877103
      8          6           0        1.748669    1.254292    0.281071
      9          1           0        1.819062    1.444207   -0.799005
     10          1           0        1.166942    2.080153    0.703364
     11          6           0        0.979031   -0.059045    0.488928
     12          1           0        0.787023   -0.227588    1.559066
     13          1           0        0.000000    0.000000    0.000000
     14          6           0        5.175601    0.000000    0.000000
     15          1           0        5.636161   -0.936751   -0.315736
     16          6           0        6.060457    1.206958   -0.107486
     17          1           0        6.293861    1.395748   -1.168035
     18          6           0        5.482532    2.478988    0.531347
     19          1           0        5.691419    2.415052    1.604749
     20          6           0        3.946141    2.528592    0.303438
     21          1           0        3.800295    2.483842   -0.788734
     22          6           0        3.349542    3.874101    0.775064
     23          1           0        3.364572    3.922173    1.869307
     24          1           0        2.294786    3.930821    0.484488
     25          6           0        4.073498    5.114318    0.215977
     26          1           0        3.935955    5.156398   -0.874303
     27          1           0        3.591723    6.008299    0.623799
     28          6           0        5.584507    5.086605    0.521801
     29          6           0        6.130643    3.746821   -0.052924
     30          1           0        5.851282    3.759634   -1.121432
     31          6           0        7.657879    3.910532    0.000000
     32          1           0        8.174133    3.257523   -0.708292
     33          1           0        8.040666    3.647481    0.991357
     34          6           0        7.875004    5.415404   -0.312401
     35          1           0        8.547512    5.872588    0.423448
     36          1           0        8.349770    5.552184   -1.288794
     37          6           0        6.470857    6.108773   -0.272587
     38          1           0        6.069811    6.124279   -1.298818
     39          6           0        5.839537    5.221739    2.040797
     40          1           0        5.404493    4.397606    2.611769
     41          1           0        6.907716    5.244843    2.275145
     42          1           0        5.400829    6.148415    2.425246
     43          6           0        6.549665    7.585429    0.195793
     44          1           0        7.012149    7.596171    1.194698
     45          6           0        5.174368    8.267649    0.302731
     46          1           0        4.635110    8.215009   -0.651682
     47          1           0        5.276391    9.324181    0.567769
     48          1           0        4.543844    7.808569    1.067205
     49          6           0        3.115445    1.310682    2.426939
     50          1           0        2.482392    2.131663    2.777470
     51          1           0        2.691702    0.384994    2.825898
     52          1           0        4.109416    1.427329    2.868318
     53          8           0        7.393815    0.896660    0.371484
     54          8           0        7.337993    0.636009    1.805054
     55          1           0        7.380761   -0.334204    1.818767
     56          8           0        1.054331   -2.484607    0.073300
     57          1           0        0.891780   -2.641738    1.014090
     58          6           0        7.478680    8.394071   -0.744284
     59          1           0        8.415505    7.843131   -0.887777
     60          1           0        7.004514    8.450930   -1.734958
     61          6           0        7.839190    9.805981   -0.251364
     62          1           0        6.951371   10.448536   -0.237371
     63          1           0        8.175368    9.736617    0.793001
     64          6           0        8.954301   10.490293   -1.063674
     65          1           0        9.860993    9.871079   -1.003051
     66          1           0        9.206567   11.445392   -0.579300
     67          6           0        8.655437   10.770127   -2.552080
     68          1           0        8.420365    9.813986   -3.041287
     69          6           0        7.451399   11.706086   -2.743110
     70          1           0        7.626344   12.671149   -2.249747
     71          1           0        7.275059   11.904559   -3.806461
     72          1           0        6.529668   11.283360   -2.330346
     73          6           0        9.901141   11.346812   -3.243767
     74          1           0       10.184522   12.309781   -2.799563
     75          1           0        9.722247   11.514000   -4.312100
     76          1           0       10.759404   10.671675   -3.148917
 ---------------------------------------------------------------------
 Rotational constants (GHZ):      0.3694040      0.0537611      0.0506920
 Leave Link  202 at Fri Apr 28 12:24:08 2017, MaxMem=   33554432 cpu:       0.3
 (Enter /scratch/michal/g09/l301.exe)
 Standard basis: 6-31G(d) (6D, 7F)
 Ernie: Thresh=  0.10000D-02 Tol=  0.10000D-05 Strict=F.
 AO basis set in the form of general basis input (Overlap normalization):
      1 0
 S   6 1.00       0.000000000000
      0.3047524880D+04  0.1834737132D-02
      0.4573695180D+03  0.1403732281D-01
      0.1039486850D+03  0.6884262226D-01
      0.2921015530D+02  0.2321844432D+00
      0.9286662960D+01  0.4679413484D+00
      0.3163926960D+01  0.3623119853D+00
 SP   3 1.00       0.000000000000
      0.7868272350D+01 -0.1193324198D+00  0.6899906659D-01
      0.1881288540D+01 -0.1608541517D+00  0.3164239610D+00
      0.5442492580D+00  0.1143456438D+01  0.7443082909D+00
 SP   1 1.00       0.000000000000
      0.1687144782D+00  0.1000000000D+01  0.1000000000D+01
 D   1 1.00       0.000000000000
      0.8000000000D+00  0.1000000000D+01
 ****
      2 0
 S   3 1.00       0.000000000000
      0.1873113696D+02  0.3349460434D-01
      0.2825394365D+01  0.2347269535D+00
      0.6401216923D+00  0.8137573261D+00
 S   1 1.00       0.000000000000
      0.1612777588D+00  0.1000000000D+01
 ****
      3 0
 S   6 1.00       0.000000000000
      0.3047524880D+04  0.1834737132D-02
      0.4573695180D+03  0.1403732281D-01
      0.1039486850D+03  0.6884262226D-01
      0.2921015530D+02  0.2321844432D+00
      0.9286662960D+01  0.4679413484D+00
      0.3163926960D+01  0.3623119853D+00
 SP   3 1.00       0.000000000000
      0.7868272350D+01 -0.1193324198D+00  0.6899906659D-01
      0.1881288540D+01 -0.1608541517D+00  0.3164239610D+00
      0.5442492580D+00  0.1143456438D+01  0.7443082909D+00
 SP   1 1.00       0.000000000000
      0.1687144782D+00  0.1000000000D+01  0.1000000000D+01
 D   1 1.00       0.000000000000
      0.8000000000D+00  0.1000000000D+01
 ****
      4 0
 S   3 1.00       0.000000000000
      0.1873113696D+02  0.3349460434D-01
      0.2825394365D+01  0.2347269535D+00
      0.6401216923D+00  0.8137573261D+00
 S   1 1.00       0.000000000000
      0.1612777588D+00  0.1000000000D+01
 ****
      5 0
 S   3 1.00       0.000000000000
      0.1873113696D+02  0.3349460434D-01
      0.2825394365D+01  0.2347269535D+00
      0.6401216923D+00  0.8137573261D+00
 S   1 1.00       0.000000000000
      0.1612777588D+00  0.1000000000D+01
 ****
      6 0
 S   6 1.00       0.000000000000
      0.3047524880D+04  0.1834737132D-02
      0.4573695180D+03  0.1403732281D-01
      0.1039486850D+03  0.6884262226D-01
      0.2921015530D+02  0.2321844432D+00
      0.9286662960D+01  0.4679413484D+00
      0.3163926960D+01  0.3623119853D+00
 SP   3 1.00       0.000000000000
      0.7868272350D+01 -0.1193324198D+00  0.6899906659D-01
      0.1881288540D+01 -0.1608541517D+00  0.3164239610D+00
      0.5442492580D+00  0.1143456438D+01  0.7443082909D+00
 SP   1 1.00       0.000000000000
      0.1687144782D+00  0.1000000000D+01  0.1000000000D+01
 D   1 1.00       0.000000000000
      0.8000000000D+00  0.1000000000D+01
 ****
      7 0
 S   6 1.00       0.000000000000
      0.3047524880D+04  0.1834737132D-02
      0.4573695180D+03  0.1403732281D-01
      0.1039486850D+03  0.6884262226D-01
      0.2921015530D+02  0.2321844432D+00
      0.9286662960D+01  0.4679413484D+00
      0.3163926960D+01  0.3623119853D+00
 SP   3 1.00       0.000000000000
      0.7868272350D+01 -0.1193324198D+00  0.6899906659D-01
      0.1881288540D+01 -0.1608541517D+00  0.3164239610D+00
      0.5442492580D+00  0.1143456438D+01  0.7443082909D+00
 SP   1 1.00       0.000000000000
      0.1687144782D+00  0.1000000000D+01  0.1000000000D+01
 D   1 1.00       0.000000000000
      0.8000000000D+00  0.1000000000D+01
 ****
      8 0
 S   6 1.00       0.000000000000
      0.3047524880D+04  0.1834737132D-02
      0.4573695180D+03  0.1403732281D-01
      0.1039486850D+03  0.6884262226D-01
      0.2921015530D+02  0.2321844432D+00
      0.9286662960D+01  0.4679413484D+00
      0.3163926960D+01  0.3623119853D+00
 SP   3 1.00       0.000000000000
      0.7868272350D+01 -0.1193324198D+00  0.6899906659D-01
      0.1881288540D+01 -0.1608541517D+00  0.3164239610D+00
      0.5442492580D+00  0.1143456438D+01  0.7443082909D+00
 SP   1 1.00       0.000000000000
      0.1687144782D+00  0.1000000000D+01  0.1000000000D+01
 D   1 1.00       0.000000000000
      0.8000000000D+00  0.1000000000D+01
 ****
      9 0
 S   3 1.00       0.000000000000
      0.1873113696D+02  0.3349460434D-01
      0.2825394365D+01  0.2347269535D+00
      0.6401216923D+00  0.8137573261D+00
 S   1 1.00       0.000000000000
      0.1612777588D+00  0.1000000000D+01
 ****
     10 0
 S   3 1.00       0.000000000000
      0.1873113696D+02  0.3349460434D-01
      0.2825394365D+01  0.2347269535D+00
      0.6401216923D+00  0.8137573261D+00
 S   1 1.00       0.000000000000
      0.1612777588D+00  0.1000000000D+01
 ****
     11 0
 S   6 1.00       0.000000000000
      0.3047524880D+04  0.1834737132D-02
      0.4573695180D+03  0.1403732281D-01
      0.1039486850D+03  0.6884262226D-01
      0.2921015530D+02  0.2321844432D+00
      0.9286662960D+01  0.4679413484D+00
      0.3163926960D+01  0.3623119853D+00
 SP   3 1.00       0.000000000000
      0.7868272350D+01 -0.1193324198D+00  0.6899906659D-01
      0.1881288540D+01 -0.1608541517D+00  0.3164239610D+00
      0.5442492580D+00  0.1143456438D+01  0.7443082909D+00
 SP   1 1.00       0.000000000000
      0.1687144782D+00  0.1000000000D+01  0.1000000000D+01
 D   1 1.00       0.000000000000
      0.8000000000D+00  0.1000000000D+01
 ****
     12 0
 S   3 1.00       0.000000000000
      0.1873113696D+02  0.3349460434D-01
      0.2825394365D+01  0.2347269535D+00
      0.6401216923D+00  0.8137573261D+00
 S   1 1.00       0.000000000000
      0.1612777588D+00  0.1000000000D+01
 ****
     13 0
 S   3 1.00       0.000000000000
      0.1873113696D+02  0.3349460434D-01
      0.2825394365D+01  0.2347269535D+00
      0.6401216923D+00  0.8137573261D+00
 S   1 1.00       0.000000000000
      0.1612777588D+00  0.1000000000D+01
 ****
     14 0
 S   6 1.00       0.000000000000
      0.3047524880D+04  0.1834737132D-02
      0.4573695180D+03  0.1403732281D-01
      0.1039486850D+03  0.6884262226D-01
      0.2921015530D+02  0.2321844432D+00
      0.9286662960D+01  0.4679413484D+00
      0.3163926960D+01  0.3623119853D+00
 SP   3 1.00       0.000000000000
      0.7868272350D+01 -0.1193324198D+00  0.6899906659D-01
      0.1881288540D+01 -0.1608541517D+00  0.3164239610D+00
      0.5442492580D+00  0.1143456438D+01  0.7443082909D+00
 SP   1 1.00       0.000000000000
      0.1687144782D+00  0.1000000000D+01  0.1000000000D+01
 D   1 1.00       0.000000000000
      0.8000000000D+00  0.1000000000D+01
 ****
     15 0
 S   3 1.00       0.000000000000
      0.1873113696D+02  0.3349460434D-01
      0.2825394365D+01  0.2347269535D+00
      0.6401216923D+00  0.8137573261D+00
 S   1 1.00       0.000000000000
      0.1612777588D+00  0.1000000000D+01
 ****
     16 0
 S   6 1.00       0.000000000000
      0.3047524880D+04  0.1834737132D-02
      0.4573695180D+03  0.1403732281D-01
      0.1039486850D+03  0.6884262226D-01
      0.2921015530D+02  0.2321844432D+00
      0.9286662960D+01  0.4679413484D+00
      0.3163926960D+01  0.3623119853D+00
 SP   3 1.00       0.000000000000
      0.7868272350D+01 -0.1193324198D+00  0.6899906659D-01
      0.1881288540D+01 -0.1608541517D+00  0.3164239610D+00
      0.5442492580D+00  0.1143456438D+01  0.7443082909D+00
 SP   1 1.00       0.000000000000
      0.1687144782D+00  0.1000000000D+01  0.1000000000D+01
 D   1 1.00       0.000000000000
      0.8000000000D+00  0.1000000000D+01
 ****
     17 0
 S   3 1.00       0.000000000000
      0.1873113696D+02  0.3349460434D-01
      0.2825394365D+01  0.2347269535D+00
      0.6401216923D+00  0.8137573261D+00
 S   1 1.00       0.000000000000
      0.1612777588D+00  0.1000000000D+01
 ****
     18 0
 S   6 1.00       0.000000000000
      0.3047524880D+04  0.1834737132D-02
      0.4573695180D+03  0.1403732281D-01
      0.1039486850D+03  0.6884262226D-01
      0.2921015530D+02  0.2321844432D+00
      0.9286662960D+01  0.4679413484D+00
      0.3163926960D+01  0.3623119853D+00
 SP   3 1.00       0.000000000000
      0.7868272350D+01 -0.1193324198D+00  0.6899906659D-01
      0.1881288540D+01 -0.1608541517D+00  0.3164239610D+00
      0.5442492580D+00  0.1143456438D+01  0.7443082909D+00
 SP   1 1.00       0.000000000000
      0.1687144782D+00  0.1000000000D+01  0.1000000000D+01
 D   1 1.00       0.000000000000
      0.8000000000D+00  0.1000000000D+01
 ****
     19 0
 S   3 1.00       0.000000000000
      0.1873113696D+02  0.3349460434D-01
      0.2825394365D+01  0.2347269535D+00
      0.6401216923D+00  0.8137573261D+00
 S   1 1.00       0.000000000000
      0.1612777588D+00  0.1000000000D+01
 ****
     20 0
 S   6 1.00       0.000000000000
      0.3047524880D+04  0.1834737132D-02
      0.4573695180D+03  0.1403732281D-01
      0.1039486850D+03  0.6884262226D-01
      0.2921015530D+02  0.2321844432D+00
      0.9286662960D+01  0.4679413484D+00
      0.3163926960D+01  0.3623119853D+00
 SP   3 1.00       0.000000000000
      0.7868272350D+01 -0.1193324198D+00  0.6899906659D-01
      0.1881288540D+01 -0.1608541517D+00  0.3164239610D+00
      0.5442492580D+00  0.1143456438D+01  0.7443082909D+00
 SP   1 1.00       0.000000000000
      0.1687144782D+00  0.1000000000D+01  0.1000000000D+01
 D   1 1.00       0.000000000000
      0.8000000000D+00  0.1000000000D+01
 ****
     21 0
 S   3 1.00       0.000000000000
      0.1873113696D+02  0.3349460434D-01
      0.2825394365D+01  0.2347269535D+00
      0.6401216923D+00  0.8137573261D+00
 S   1 1.00       0.000000000000
      0.1612777588D+00  0.1000000000D+01
 ****
     22 0
 S   6 1.00       0.000000000000
      0.3047524880D+04  0.1834737132D-02
      0.4573695180D+03  0.1403732281D-01
      0.1039486850D+03  0.6884262226D-01
      0.2921015530D+02  0.2321844432D+00
      0.9286662960D+01  0.4679413484D+00
      0.3163926960D+01  0.3623119853D+00
 SP   3 1.00       0.000000000000
      0.7868272350D+01 -0.1193324198D+00  0.6899906659D-01
      0.1881288540D+01 -0.1608541517D+00  0.3164239610D+00
      0.5442492580D+00  0.1143456438D+01  0.7443082909D+00
 SP   1 1.00       0.000000000000
      0.1687144782D+00  0.1000000000D+01  0.1000000000D+01
 D   1 1.00       0.000000000000
      0.8000000000D+00  0.1000000000D+01
 ****
     23 0
 S   3 1.00       0.000000000000
      0.1873113696D+02  0.3349460434D-01
      0.2825394365D+01  0.2347269535D+00
      0.6401216923D+00  0.8137573261D+00
 S   1 1.00       0.000000000000
      0.1612777588D+00  0.1000000000D+01
 ****
     24 0
 S   3 1.00       0.000000000000
      0.1873113696D+02  0.3349460434D-01
      0.2825394365D+01  0.2347269535D+00
      0.6401216923D+00  0.8137573261D+00
 S   1 1.00       0.000000000000
      0.1612777588D+00  0.1000000000D+01
 ****
     25 0
 S   6 1.00       0.000000000000
      0.3047524880D+04  0.1834737132D-02
      0.4573695180D+03  0.1403732281D-01
      0.1039486850D+03  0.6884262226D-01
      0.2921015530D+02  0.2321844432D+00
      0.9286662960D+01  0.4679413484D+00
      0.3163926960D+01  0.3623119853D+00
 SP   3 1.00       0.000000000000
      0.7868272350D+01 -0.1193324198D+00  0.6899906659D-01
      0.1881288540D+01 -0.1608541517D+00  0.3164239610D+00
      0.5442492580D+00  0.1143456438D+01  0.7443082909D+00
 SP   1 1.00       0.000000000000
      0.1687144782D+00  0.1000000000D+01  0.1000000000D+01
 D   1 1.00       0.000000000000
      0.8000000000D+00  0.1000000000D+01
 ****
     26 0
 S   3 1.00       0.000000000000
      0.1873113696D+02  0.3349460434D-01
      0.2825394365D+01  0.2347269535D+00
      0.6401216923D+00  0.8137573261D+00
 S   1 1.00       0.000000000000
      0.1612777588D+00  0.1000000000D+01
 ****
     27 0
 S   3 1.00       0.000000000000
      0.1873113696D+02  0.3349460434D-01
      0.2825394365D+01  0.2347269535D+00
      0.6401216923D+00  0.8137573261D+00
 S   1 1.00       0.000000000000
      0.1612777588D+00  0.1000000000D+01
 ****
     28 0
 S   6 1.00       0.000000000000
      0.3047524880D+04  0.1834737132D-02
      0.4573695180D+03  0.1403732281D-01
      0.1039486850D+03  0.6884262226D-01
      0.2921015530D+02  0.2321844432D+00
      0.9286662960D+01  0.4679413484D+00
      0.3163926960D+01  0.3623119853D+00
 SP   3 1.00       0.000000000000
      0.7868272350D+01 -0.1193324198D+00  0.6899906659D-01
      0.1881288540D+01 -0.1608541517D+00  0.3164239610D+00
      0.5442492580D+00  0.1143456438D+01  0.7443082909D+00
 SP   1 1.00       0.000000000000
      0.1687144782D+00  0.1000000000D+01  0.1000000000D+01
 D   1 1.00       0.000000000000
      0.8000000000D+00  0.1000000000D+01
 ****
     29 0
 S   6 1.00       0.000000000000
      0.3047524880D+04  0.1834737132D-02
      0.4573695180D+03  0.1403732281D-01
      0.1039486850D+03  0.6884262226D-01
      0.2921015530D+02  0.2321844432D+00
      0.9286662960D+01  0.4679413484D+00
      0.3163926960D+01  0.3623119853D+00
 SP   3 1.00       0.000000000000
      0.7868272350D+01 -0.1193324198D+00  0.6899906659D-01
      0.1881288540D+01 -0.1608541517D+00  0.3164239610D+00
      0.5442492580D+00  0.1143456438D+01  0.7443082909D+00
 SP   1 1.00       0.000000000000
      0.1687144782D+00  0.1000000000D+01  0.1000000000D+01
 D   1 1.00       0.000000000000
      0.8000000000D+00  0.1000000000D+01
 ****
     30 0
 S   3 1.00       0.000000000000
      0.1873113696D+02  0.3349460434D-01
      0.2825394365D+01  0.2347269535D+00
      0.6401216923D+00  0.8137573261D+00
 S   1 1.00       0.000000000000
      0.1612777588D+00  0.1000000000D+01
 ****
     31 0
 S   6 1.00       0.000000000000
      0.3047524880D+04  0.1834737132D-02
      0.4573695180D+03  0.1403732281D-01
      0.1039486850D+03  0.6884262226D-01
      0.2921015530D+02  0.2321844432D+00
      0.9286662960D+01  0.4679413484D+00
      0.3163926960D+01  0.3623119853D+00
 SP   3 1.00       0.000000000000
      0.7868272350D+01 -0.1193324198D+00  0.6899906659D-01
      0.1881288540D+01 -0.1608541517D+00  0.3164239610D+00
      0.5442492580D+00  0.1143456438D+01  0.7443082909D+00
 SP   1 1.00       0.000000000000
      0.1687144782D+00  0.1000000000D+01  0.1000000000D+01
 D   1 1.00       0.000000000000
      0.8000000000D+00  0.1000000000D+01
 ****
     32 0
 S   3 1.00       0.000000000000
      0.1873113696D+02  0.3349460434D-01
      0.2825394365D+01  0.2347269535D+00
      0.6401216923D+00  0.8137573261D+00
 S   1 1.00       0.000000000000
      0.1612777588D+00  0.1000000000D+01
 ****
     33 0
 S   3 1.00       0.000000000000
      0.1873113696D+02  0.3349460434D-01
      0.2825394365D+01  0.2347269535D+00
      0.6401216923D+00  0.8137573261D+00
 S   1 1.00       0.000000000000
      0.1612777588D+00  0.1000000000D+01
 ****
     34 0
 S   6 1.00       0.000000000000
      0.3047524880D+04  0.1834737132D-02
      0.4573695180D+03  0.1403732281D-01
      0.1039486850D+03  0.6884262226D-01
      0.2921015530D+02  0.2321844432D+00
      0.9286662960D+01  0.4679413484D+00
      0.3163926960D+01  0.3623119853D+00
 SP   3 1.00       0.000000000000
      0.7868272350D+01 -0.1193324198D+00  0.6899906659D-01
      0.1881288540D+01 -0.1608541517D+00  0.3164239610D+00
      0.5442492580D+00  0.1143456438D+01  0.7443082909D+00
 SP   1 1.00       0.000000000000
      0.1687144782D+00  0.1000000000D+01  0.1000000000D+01
 D   1 1.00       0.000000000000
      0.8000000000D+00  0.1000000000D+01
 ****
     35 0
 S   3 1.00       0.000000000000
      0.1873113696D+02  0.3349460434D-01
      0.2825394365D+01  0.2347269535D+00
      0.6401216923D+00  0.8137573261D+00
 S   1 1.00       0.000000000000
      0.1612777588D+00  0.1000000000D+01
 ****
     36 0
 S   3 1.00       0.000000000000
      0.1873113696D+02  0.3349460434D-01
      0.2825394365D+01  0.2347269535D+00
      0.6401216923D+00  0.8137573261D+00
 S   1 1.00       0.000000000000
      0.1612777588D+00  0.1000000000D+01
 ****
     37 0
 S   6 1.00       0.000000000000
      0.3047524880D+04  0.1834737132D-02
      0.4573695180D+03  0.1403732281D-01
      0.1039486850D+03  0.6884262226D-01
      0.2921015530D+02  0.2321844432D+00
      0.9286662960D+01  0.4679413484D+00
      0.3163926960D+01  0.3623119853D+00
 SP   3 1.00       0.000000000000
      0.7868272350D+01 -0.1193324198D+00  0.6899906659D-01
      0.1881288540D+01 -0.1608541517D+00  0.3164239610D+00
      0.5442492580D+00  0.1143456438D+01  0.7443082909D+00
 SP   1 1.00       0.000000000000
      0.1687144782D+00  0.1000000000D+01  0.1000000000D+01
 D   1 1.00       0.000000000000
      0.8000000000D+00  0.1000000000D+01
 ****
     38 0
 S   3 1.00       0.000000000000
      0.1873113696D+02  0.3349460434D-01
      0.2825394365D+01  0.2347269535D+00
      0.6401216923D+00  0.8137573261D+00
 S   1 1.00       0.000000000000
      0.1612777588D+00  0.1000000000D+01
 ****
     39 0
 S   6 1.00       0.000000000000
      0.3047524880D+04  0.1834737132D-02
      0.4573695180D+03  0.1403732281D-01
      0.1039486850D+03  0.6884262226D-01
      0.2921015530D+02  0.2321844432D+00
      0.9286662960D+01  0.4679413484D+00
      0.3163926960D+01  0.3623119853D+00
 SP   3 1.00       0.000000000000
      0.7868272350D+01 -0.1193324198D+00  0.6899906659D-01
      0.1881288540D+01 -0.1608541517D+00  0.3164239610D+00
      0.5442492580D+00  0.1143456438D+01  0.7443082909D+00
 SP   1 1.00       0.000000000000
      0.1687144782D+00  0.1000000000D+01  0.1000000000D+01
 D   1 1.00       0.000000000000
      0.8000000000D+00  0.1000000000D+01
 ****
     40 0
 S   3 1.00       0.000000000000
      0.1873113696D+02  0.3349460434D-01
      0.2825394365D+01  0.2347269535D+00
      0.6401216923D+00  0.8137573261D+00
 S   1 1.00       0.000000000000
      0.1612777588D+00  0.1000000000D+01
 ****
     41 0
 S   3 1.00       0.000000000000
      0.1873113696D+02  0.3349460434D-01
      0.2825394365D+01  0.2347269535D+00
      0.6401216923D+00  0.8137573261D+00
 S   1 1.00       0.000000000000
      0.1612777588D+00  0.1000000000D+01
 ****
     42 0
 S   3 1.00       0.000000000000
      0.1873113696D+02  0.3349460434D-01
      0.2825394365D+01  0.2347269535D+00
      0.6401216923D+00  0.8137573261D+00
 S   1 1.00       0.000000000000
      0.1612777588D+00  0.1000000000D+01
 ****
     43 0
 S   6 1.00       0.000000000000
      0.3047524880D+04  0.1834737132D-02
      0.4573695180D+03  0.1403732281D-01
      0.1039486850D+03  0.6884262226D-01
      0.2921015530D+02  0.2321844432D+00
      0.9286662960D+01  0.4679413484D+00
      0.3163926960D+01  0.3623119853D+00
 SP   3 1.00       0.000000000000
      0.7868272350D+01 -0.1193324198D+00  0.6899906659D-01
      0.1881288540D+01 -0.1608541517D+00  0.3164239610D+00
      0.5442492580D+00  0.1143456438D+01  0.7443082909D+00
 SP   1 1.00       0.000000000000
      0.1687144782D+00  0.1000000000D+01  0.1000000000D+01
 D   1 1.00       0.000000000000
      0.8000000000D+00  0.1000000000D+01
 ****
     44 0
 S   3 1.00       0.000000000000
      0.1873113696D+02  0.3349460434D-01
      0.2825394365D+01  0.2347269535D+00
      0.6401216923D+00  0.8137573261D+00
 S   1 1.00       0.000000000000
      0.1612777588D+00  0.1000000000D+01
 ****
     45 0
 S   6 1.00       0.000000000000
      0.3047524880D+04  0.1834737132D-02
      0.4573695180D+03  0.1403732281D-01
      0.1039486850D+03  0.6884262226D-01
      0.2921015530D+02  0.2321844432D+00
      0.9286662960D+01  0.4679413484D+00
      0.3163926960D+01  0.3623119853D+00
 SP   3 1.00       0.000000000000
      0.7868272350D+01 -0.1193324198D+00  0.6899906659D-01
      0.1881288540D+01 -0.1608541517D+00  0.3164239610D+00
      0.5442492580D+00  0.1143456438D+01  0.7443082909D+00
 SP   1 1.00       0.000000000000
      0.1687144782D+00  0.1000000000D+01  0.1000000000D+01
 D   1 1.00       0.000000000000
      0.8000000000D+00  0.1000000000D+01
 ****
     46 0
 S   3 1.00       0.000000000000
      0.1873113696D+02  0.3349460434D-01
      0.2825394365D+01  0.2347269535D+00
      0.6401216923D+00  0.8137573261D+00
 S   1 1.00       0.000000000000
      0.1612777588D+00  0.1000000000D+01
 ****
     47 0
 S   3 1.00       0.000000000000
      0.1873113696D+02  0.3349460434D-01
      0.2825394365D+01  0.2347269535D+00
      0.6401216923D+00  0.8137573261D+00
 S   1 1.00       0.000000000000
      0.1612777588D+00  0.1000000000D+01
 ****
     48 0
 S   3 1.00       0.000000000000
      0.1873113696D+02  0.3349460434D-01
      0.2825394365D+01  0.2347269535D+00
      0.6401216923D+00  0.8137573261D+00
 S   1 1.00       0.000000000000
      0.1612777588D+00  0.1000000000D+01
 ****
     49 0
 S   6 1.00       0.000000000000
      0.3047524880D+04  0.1834737132D-02
      0.4573695180D+03  0.1403732281D-01
      0.1039486850D+03  0.6884262226D-01
      0.2921015530D+02  0.2321844432D+00
      0.9286662960D+01  0.4679413484D+00
      0.3163926960D+01  0.3623119853D+00
 SP   3 1.00       0.000000000000
      0.7868272350D+01 -0.1193324198D+00  0.6899906659D-01
      0.1881288540D+01 -0.1608541517D+00  0.3164239610D+00
      0.5442492580D+00  0.1143456438D+01  0.7443082909D+00
 SP   1 1.00       0.000000000000
      0.1687144782D+00  0.1000000000D+01  0.1000000000D+01
 D   1 1.00       0.000000000000
      0.8000000000D+00  0.1000000000D+01
 ****
     50 0
 S   3 1.00       0.000000000000
      0.1873113696D+02  0.3349460434D-01
      0.2825394365D+01  0.2347269535D+00
      0.6401216923D+00  0.8137573261D+00
 S   1 1.00       0.000000000000
      0.1612777588D+00  0.1000000000D+01
 ****
     51 0
 S   3 1.00       0.000000000000
      0.1873113696D+02  0.3349460434D-01
      0.2825394365D+01  0.2347269535D+00
      0.6401216923D+00  0.8137573261D+00
 S   1 1.00       0.000000000000
      0.1612777588D+00  0.1000000000D+01
 ****
     52 0
 S   3 1.00       0.000000000000
      0.1873113696D+02  0.3349460434D-01
      0.2825394365D+01  0.2347269535D+00
      0.6401216923D+00  0.8137573261D+00
 S   1 1.00       0.000000000000
      0.1612777588D+00  0.1000000000D+01
 ****
     53 0
 S   6 1.00       0.000000000000
      0.5484671660D+04  0.1831074430D-02
      0.8252349460D+03  0.1395017220D-01
      0.1880469580D+03  0.6844507810D-01
      0.5296450000D+02  0.2327143360D+00
      0.1689757040D+02  0.4701928980D+00
      0.5799635340D+01  0.3585208530D+00
 SP   3 1.00       0.000000000000
      0.1553961625D+02 -0.1107775495D+00  0.7087426823D-01
      0.3599933586D+01 -0.1480262627D+00  0.3397528391D+00
      0.1013761750D+01  0.1130767015D+01  0.7271585773D+00
 SP   1 1.00       0.000000000000
      0.2700058226D+00  0.1000000000D+01  0.1000000000D+01
 D   1 1.00       0.000000000000
      0.8000000000D+00  0.1000000000D+01
 ****
     54 0
 S   6 1.00       0.000000000000
      0.5484671660D+04  0.1831074430D-02
      0.8252349460D+03  0.1395017220D-01
      0.1880469580D+03  0.6844507810D-01
      0.5296450000D+02  0.2327143360D+00
      0.1689757040D+02  0.4701928980D+00
      0.5799635340D+01  0.3585208530D+00
 SP   3 1.00       0.000000000000
      0.1553961625D+02 -0.1107775495D+00  0.7087426823D-01
      0.3599933586D+01 -0.1480262627D+00  0.3397528391D+00
      0.1013761750D+01  0.1130767015D+01  0.7271585773D+00
 SP   1 1.00       0.000000000000
      0.2700058226D+00  0.1000000000D+01  0.1000000000D+01
 D   1 1.00       0.000000000000
      0.8000000000D+00  0.1000000000D+01
 ****
     55 0
 S   3 1.00       0.000000000000
      0.1873113696D+02  0.3349460434D-01
      0.2825394365D+01  0.2347269535D+00
      0.6401216923D+00  0.8137573261D+00
 S   1 1.00       0.000000000000
      0.1612777588D+00  0.1000000000D+01
 ****
     56 0
 S   6 1.00       0.000000000000
      0.5484671660D+04  0.1831074430D-02
      0.8252349460D+03  0.1395017220D-01
      0.1880469580D+03  0.6844507810D-01
      0.5296450000D+02  0.2327143360D+00
      0.1689757040D+02  0.4701928980D+00
      0.5799635340D+01  0.3585208530D+00
 SP   3 1.00       0.000000000000
      0.1553961625D+02 -0.1107775495D+00  0.7087426823D-01
      0.3599933586D+01 -0.1480262627D+00  0.3397528391D+00
      0.1013761750D+01  0.1130767015D+01  0.7271585773D+00
 SP   1 1.00       0.000000000000
      0.2700058226D+00  0.1000000000D+01  0.1000000000D+01
 D   1 1.00       0.000000000000
      0.8000000000D+00  0.1000000000D+01
 ****
     57 0
 S   3 1.00       0.000000000000
      0.1873113696D+02  0.3349460434D-01
      0.2825394365D+01  0.2347269535D+00
      0.6401216923D+00  0.8137573261D+00
 S   1 1.00       0.000000000000
      0.1612777588D+00  0.1000000000D+01
 ****
     58 0
 S   6 1.00       0.000000000000
      0.3047524880D+04  0.1834737132D-02
      0.4573695180D+03  0.1403732281D-01
      0.1039486850D+03  0.6884262226D-01
      0.2921015530D+02  0.2321844432D+00
      0.9286662960D+01  0.4679413484D+00
      0.3163926960D+01  0.3623119853D+00
 SP   3 1.00       0.000000000000
      0.7868272350D+01 -0.1193324198D+00  0.6899906659D-01
      0.1881288540D+01 -0.1608541517D+00  0.3164239610D+00
      0.5442492580D+00  0.1143456438D+01  0.7443082909D+00
 SP   1 1.00       0.000000000000
      0.1687144782D+00  0.1000000000D+01  0.1000000000D+01
 D   1 1.00       0.000000000000
      0.8000000000D+00  0.1000000000D+01
 ****
     59 0
 S   3 1.00       0.000000000000
      0.1873113696D+02  0.3349460434D-01
      0.2825394365D+01  0.2347269535D+00
      0.6401216923D+00  0.8137573261D+00
 S   1 1.00       0.000000000000
      0.1612777588D+00  0.1000000000D+01
 ****
     60 0
 S   3 1.00       0.000000000000
      0.1873113696D+02  0.3349460434D-01
      0.2825394365D+01  0.2347269535D+00
      0.6401216923D+00  0.8137573261D+00
 S   1 1.00       0.000000000000
      0.1612777588D+00  0.1000000000D+01
 ****
     61 0
 S   6 1.00       0.000000000000
      0.3047524880D+04  0.1834737132D-02
      0.4573695180D+03  0.1403732281D-01
      0.1039486850D+03  0.6884262226D-01
      0.2921015530D+02  0.2321844432D+00
      0.9286662960D+01  0.4679413484D+00
      0.3163926960D+01  0.3623119853D+00
 SP   3 1.00       0.000000000000
      0.7868272350D+01 -0.1193324198D+00  0.6899906659D-01
      0.1881288540D+01 -0.1608541517D+00  0.3164239610D+00
      0.5442492580D+00  0.1143456438D+01  0.7443082909D+00
 SP   1 1.00       0.000000000000
      0.1687144782D+00  0.1000000000D+01  0.1000000000D+01
 D   1 1.00       0.000000000000
      0.8000000000D+00  0.1000000000D+01
 ****
     62 0
 S   3 1.00       0.000000000000
      0.1873113696D+02  0.3349460434D-01
      0.2825394365D+01  0.2347269535D+00
      0.6401216923D+00  0.8137573261D+00
 S   1 1.00       0.000000000000
      0.1612777588D+00  0.1000000000D+01
 ****
     63 0
 S   3 1.00       0.000000000000
      0.1873113696D+02  0.3349460434D-01
      0.2825394365D+01  0.2347269535D+00
      0.6401216923D+00  0.8137573261D+00
 S   1 1.00       0.000000000000
      0.1612777588D+00  0.1000000000D+01
 ****
     64 0
 S   6 1.00       0.000000000000
      0.3047524880D+04  0.1834737132D-02
      0.4573695180D+03  0.1403732281D-01
      0.1039486850D+03  0.6884262226D-01
      0.2921015530D+02  0.2321844432D+00
      0.9286662960D+01  0.4679413484D+00
      0.3163926960D+01  0.3623119853D+00
 SP   3 1.00       0.000000000000
      0.7868272350D+01 -0.1193324198D+00  0.6899906659D-01
      0.1881288540D+01 -0.1608541517D+00  0.3164239610D+00
      0.5442492580D+00  0.1143456438D+01  0.7443082909D+00
 SP   1 1.00       0.000000000000
      0.1687144782D+00  0.1000000000D+01  0.1000000000D+01
 D   1 1.00       0.000000000000
      0.8000000000D+00  0.1000000000D+01
 ****
     65 0
 S   3 1.00       0.000000000000
      0.1873113696D+02  0.3349460434D-01
      0.2825394365D+01  0.2347269535D+00
      0.6401216923D+00  0.8137573261D+00
 S   1 1.00       0.000000000000
      0.1612777588D+00  0.1000000000D+01
 ****
     66 0
 S   3 1.00       0.000000000000
      0.1873113696D+02  0.3349460434D-01
      0.2825394365D+01  0.2347269535D+00
      0.6401216923D+00  0.8137573261D+00
 S   1 1.00       0.000000000000
      0.1612777588D+00  0.1000000000D+01
 ****
     67 0
 S   6 1.00       0.000000000000
      0.3047524880D+04  0.1834737132D-02
      0.4573695180D+03  0.1403732281D-01
      0.1039486850D+03  0.6884262226D-01
      0.2921015530D+02  0.2321844432D+00
      0.9286662960D+01  0.4679413484D+00
      0.3163926960D+01  0.3623119853D+00
 SP   3 1.00       0.000000000000
      0.7868272350D+01 -0.1193324198D+00  0.6899906659D-01
      0.1881288540D+01 -0.1608541517D+00  0.3164239610D+00
      0.5442492580D+00  0.1143456438D+01  0.7443082909D+00
 SP   1 1.00       0.000000000000
      0.1687144782D+00  0.1000000000D+01  0.1000000000D+01
 D   1 1.00       0.000000000000
      0.8000000000D+00  0.1000000000D+01
 ****
     68 0
 S   3 1.00       0.000000000000
      0.1873113696D+02  0.3349460434D-01
      0.2825394365D+01  0.2347269535D+00
      0.6401216923D+00  0.8137573261D+00
 S   1 1.00       0.000000000000
      0.1612777588D+00  0.1000000000D+01
 ****
     69 0
 S   6 1.00       0.000000000000
      0.3047524880D+04  0.1834737132D-02
      0.4573695180D+03  0.1403732281D-01
      0.1039486850D+03  0.6884262226D-01
      0.2921015530D+02  0.2321844432D+00
      0.9286662960D+01  0.4679413484D+00
      0.3163926960D+01  0.3623119853D+00
 SP   3 1.00       0.000000000000
      0.7868272350D+01 -0.1193324198D+00  0.6899906659D-01
      0.1881288540D+01 -0.1608541517D+00  0.3164239610D+00
      0.5442492580D+00  0.1143456438D+01  0.7443082909D+00
 SP   1 1.00       0.000000000000
      0.1687144782D+00  0.1000000000D+01  0.1000000000D+01
 D   1 1.00       0.000000000000
      0.8000000000D+00  0.1000000000D+01
 ****
     70 0
 S   3 1.00       0.000000000000
      0.1873113696D+02  0.3349460434D-01
      0.2825394365D+01  0.2347269535D+00
      0.6401216923D+00  0.8137573261D+00
 S   1 1.00       0.000000000000
      0.1612777588D+00  0.1000000000D+01
 ****
     71 0
 S   3 1.00       0.000000000000
      0.1873113696D+02  0.3349460434D-01
      0.2825394365D+01  0.2347269535D+00
      0.6401216923D+00  0.8137573261D+00
 S   1 1.00       0.000000000000
      0.1612777588D+00  0.1000000000D+01
 ****
     72 0
 S   3 1.00       0.000000000000
      0.1873113696D+02  0.3349460434D-01
      0.2825394365D+01  0.2347269535D+00
      0.6401216923D+00  0.8137573261D+00
 S   1 1.00       0.000000000000
      0.1612777588D+00  0.1000000000D+01
 ****
     73 0
 S   6 1.00       0.000000000000
      0.3047524880D+04  0.1834737132D-02
      0.4573695180D+03  0.1403732281D-01
      0.1039486850D+03  0.6884262226D-01
      0.2921015530D+02  0.2321844432D+00
      0.9286662960D+01  0.4679413484D+00
      0.3163926960D+01  0.3623119853D+00
 SP   3 1.00       0.000000000000
      0.7868272350D+01 -0.1193324198D+00  0.6899906659D-01
      0.1881288540D+01 -0.1608541517D+00  0.3164239610D+00
      0.5442492580D+00  0.1143456438D+01  0.7443082909D+00
 SP   1 1.00       0.000000000000
      0.1687144782D+00  0.1000000000D+01  0.1000000000D+01
 D   1 1.00       0.000000000000
      0.8000000000D+00  0.1000000000D+01
 ****
     74 0
 S   3 1.00       0.000000000000
      0.1873113696D+02  0.3349460434D-01
      0.2825394365D+01  0.2347269535D+00
      0.6401216923D+00  0.8137573261D+00
 S   1 1.00       0.000000000000
      0.1612777588D+00  0.1000000000D+01
 ****
     75 0
 S   3 1.00       0.000000000000
      0.1873113696D+02  0.3349460434D-01
      0.2825394365D+01  0.2347269535D+00
      0.6401216923D+00  0.8137573261D+00
 S   1 1.00       0.000000000000
      0.1612777588D+00  0.1000000000D+01
 ****
     76 0
 S   3 1.00       0.000000000000
      0.1873113696D+02  0.3349460434D-01
      0.2825394365D+01  0.2347269535D+00
      0.6401216923D+00  0.8137573261D+00
 S   1 1.00       0.000000000000
      0.1612777588D+00  0.1000000000D+01
 ****

 AO basis set (Overlap normalization):
 Atom C1       Shell     1 S   6     bf    1 -     1          3.323272207217         -2.358998365266         -0.132160661617
      0.3047524880D+04  0.1834737132D-02
      0.4573695180D+03  0.1403732281D-01
      0.1039486850D+03  0.6884262226D-01
      0.2921015530D+02  0.2321844432D+00
      0.9286662960D+01  0.4679413484D+00
      0.3163926960D+01  0.3623119853D+00
 Atom C1       Shell     2 SP   3    bf    2 -     5          3.323272207217         -2.358998365266         -0.132160661617
      0.7868272350D+01 -0.1193324198D+00  0.6899906659D-01
      0.1881288540D+01 -0.1608541517D+00  0.3164239610D+00
      0.5442492580D+00  0.1143456438D+01  0.7443082909D+00
 Atom C1       Shell     3 SP   1    bf    6 -     9          3.323272207217         -2.358998365266         -0.132160661617
      0.1687144782D+00  0.1000000000D+01  0.1000000000D+01
 Atom C1       Shell     4 D   1     bf   10 -    15          3.323272207217         -2.358998365266         -0.132160661617
      0.8000000000D+00  0.1000000000D+01
 Atom H2       Shell     5 S   3     bf   16 -    16          3.535752144325         -2.131590158627         -2.181461221801
      0.1873113696D+02  0.3349460434D-01
      0.2825394365D+01  0.2347269535D+00
      0.6401216923D+00  0.8137573261D+00
 Atom H2       Shell     6 S   1     bf   17 -    17          3.535752144325         -2.131590158627         -2.181461221801
      0.1612777588D+00  0.1000000000D+01
 Atom C3       Shell     7 S   6     bf   18 -    18          5.954951042575         -2.473356294931          1.083972780174
      0.3047524880D+04  0.1834737132D-02
      0.4573695180D+03  0.1403732281D-01
      0.1039486850D+03  0.6884262226D-01
      0.2921015530D+02  0.2321844432D+00
      0.9286662960D+01  0.4679413484D+00
      0.3163926960D+01  0.3623119853D+00
 Atom C3       Shell     8 SP   3    bf   19 -    22          5.954951042575         -2.473356294931          1.083972780174
      0.7868272350D+01 -0.1193324198D+00  0.6899906659D-01
      0.1881288540D+01 -0.1608541517D+00  0.3164239610D+00
      0.5442492580D+00  0.1143456438D+01  0.7443082909D+00
 Atom C3       Shell     9 SP   1    bf   23 -    26          5.954951042575         -2.473356294931          1.083972780174
      0.1687144782D+00  0.1000000000D+01  0.1000000000D+01
 Atom C3       Shell    10 D   1     bf   27 -    32          5.954951042575         -2.473356294931          1.083972780174
      0.8000000000D+00  0.1000000000D+01
 Atom H4       Shell    11 S   3     bf   33 -    33          7.044757142760         -4.021988693865          0.251727092244
      0.1873113696D+02  0.3349460434D-01
      0.2825394365D+01  0.2347269535D+00
      0.6401216923D+00  0.8137573261D+00
 Atom H4       Shell    12 S   1     bf   34 -    34          7.044757142760         -4.021988693865          0.251727092244
      0.1612777588D+00  0.1000000000D+01
 Atom H5       Shell    13 S   3     bf   35 -    35          5.695592763775         -2.939255328370          3.097422760076
      0.1873113696D+02  0.3349460434D-01
      0.2825394365D+01  0.2347269535D+00
      0.6401216923D+00  0.8137573261D+00
 Atom H5       Shell    14 S   1     bf   36 -    36          5.695592763775         -2.939255328370          3.097422760076
      0.1612777588D+00  0.1000000000D+01
 Atom C6       Shell    15 S   6     bf   37 -    37          7.397360442696         -0.007058826305          0.855255050016
      0.3047524880D+04  0.1834737132D-02
      0.4573695180D+03  0.1403732281D-01
      0.1039486850D+03  0.6884262226D-01
      0.2921015530D+02  0.2321844432D+00
      0.9286662960D+01  0.4679413484D+00
      0.3163926960D+01  0.3623119853D+00
 Atom C6       Shell    16 SP   3    bf   38 -    41          7.397360442696         -0.007058826305          0.855255050016
      0.7868272350D+01 -0.1193324198D+00  0.6899906659D-01
      0.1881288540D+01 -0.1608541517D+00  0.3164239610D+00
      0.5442492580D+00  0.1143456438D+01  0.7443082909D+00
 Atom C6       Shell    17 SP   1    bf   42 -    45          7.397360442696         -0.007058826305          0.855255050016
      0.1687144782D+00  0.1000000000D+01  0.1000000000D+01
 Atom C6       Shell    18 D   1     bf   46 -    51          7.397360442696         -0.007058826305          0.855255050016
      0.8000000000D+00  0.1000000000D+01
 Atom C7       Shell    19 S   6     bf   52 -    52          6.029759555409          2.416896002396          1.657484857175
      0.3047524880D+04  0.1834737132D-02
      0.4573695180D+03  0.1403732281D-01
      0.1039486850D+03  0.6884262226D-01
      0.2921015530D+02  0.2321844432D+00
      0.9286662960D+01  0.4679413484D+00
      0.3163926960D+01  0.3623119853D+00
 Atom C7       Shell    20 SP   3    bf   53 -    56          6.029759555409          2.416896002396          1.657484857175
      0.7868272350D+01 -0.1193324198D+00  0.6899906659D-01
      0.1881288540D+01 -0.1608541517D+00  0.3164239610D+00
      0.5442492580D+00  0.1143456438D+01  0.7443082909D+00
 Atom C7       Shell    21 SP   1    bf   57 -    60          6.029759555409          2.416896002396          1.657484857175
      0.1687144782D+00  0.1000000000D+01  0.1000000000D+01
 Atom C7       Shell    22 D   1     bf   61 -    66          6.029759555409          2.416896002396          1.657484857175
      0.8000000000D+00  0.1000000000D+01
 Atom C8       Shell    23 S   6     bf   67 -    67          3.304504637793          2.370268616334          0.531147875300
      0.3047524880D+04  0.1834737132D-02
      0.4573695180D+03  0.1403732281D-01
      0.1039486850D+03  0.6884262226D-01
      0.2921015530D+02  0.2321844432D+00
      0.9286662960D+01  0.4679413484D+00
      0.3163926960D+01  0.3623119853D+00
 Atom C8       Shell    24 SP   3    bf   68 -    71          3.304504637793          2.370268616334          0.531147875300
      0.7868272350D+01 -0.1193324198D+00  0.6899906659D-01
      0.1881288540D+01 -0.1608541517D+00  0.3164239610D+00
      0.5442492580D+00  0.1143456438D+01  0.7443082909D+00
 Atom C8       Shell    25 SP   1    bf   72 -    75          3.304504637793          2.370268616334          0.531147875300
      0.1687144782D+00  0.1000000000D+01  0.1000000000D+01
 Atom C8       Shell    26 D   1     bf   76 -    81          3.304504637793          2.370268616334          0.531147875300
      0.8000000000D+00  0.1000000000D+01
 Atom H9       Shell    27 S   3     bf   82 -    82          3.437528942047          2.729156559573         -1.509901498080
      0.1873113696D+02  0.3349460434D-01
      0.2825394365D+01  0.2347269535D+00
      0.6401216923D+00  0.8137573261D+00
 Atom H9       Shell    28 S   1     bf   83 -    83          3.437528942047          2.729156559573         -1.509901498080
      0.1612777588D+00  0.1000000000D+01
 Atom H10      Shell    29 S   3     bf   84 -    84          2.205201322085          3.930919522295          1.329165823060
      0.1873113696D+02  0.3349460434D-01
      0.2825394365D+01  0.2347269535D+00
      0.6401216923D+00  0.8137573261D+00
 Atom H10      Shell    30 S   1     bf   85 -    85          2.205201322085          3.930919522295          1.329165823060
      0.1612777588D+00  0.1000000000D+01
 Atom C11      Shell    31 S   6     bf   86 -    86          1.850100938037         -0.111578747235          0.923939716343
      0.3047524880D+04  0.1834737132D-02
      0.4573695180D+03  0.1403732281D-01
      0.1039486850D+03  0.6884262226D-01
      0.2921015530D+02  0.2321844432D+00
      0.9286662960D+01  0.4679413484D+00
      0.3163926960D+01  0.3623119853D+00
 Atom C11      Shell    32 SP   3    bf   87 -    90          1.850100938037         -0.111578747235          0.923939716343
      0.7868272350D+01 -0.1193324198D+00  0.6899906659D-01
      0.1881288540D+01 -0.1608541517D+00  0.3164239610D+00
      0.5442492580D+00  0.1143456438D+01  0.7443082909D+00
 Atom C11      Shell    33 SP   1    bf   91 -    94          1.850100938037         -0.111578747235          0.923939716343
      0.1687144782D+00  0.1000000000D+01  0.1000000000D+01
 Atom C11      Shell    34 D   1     bf   95 -   100          1.850100938037         -0.111578747235          0.923939716343
      0.8000000000D+00  0.1000000000D+01
 Atom H12      Shell    35 S   3     bf  101 -   101          1.487258440508         -0.430078329727          2.946207952066
      0.1873113696D+02  0.3349460434D-01
      0.2825394365D+01  0.2347269535D+00
      0.6401216923D+00  0.8137573261D+00
 Atom H12      Shell    36 S   1     bf  102 -   102          1.487258440508         -0.430078329727          2.946207952066
      0.1612777588D+00  0.1000000000D+01
 Atom H13      Shell    37 S   3     bf  103 -   103          0.000000000000          0.000000000000          0.000000000000
      0.1873113696D+02  0.3349460434D-01
      0.2825394365D+01  0.2347269535D+00
      0.6401216923D+00  0.8137573261D+00
 Atom H13      Shell    38 S   1     bf  104 -   104          0.000000000000          0.000000000000          0.000000000000
      0.1612777588D+00  0.1000000000D+01
 Atom C14      Shell    39 S   6     bf  105 -   105          9.780467593815          0.000000000000          0.000000000000
      0.3047524880D+04  0.1834737132D-02
      0.4573695180D+03  0.1403732281D-01
      0.1039486850D+03  0.6884262226D-01
      0.2921015530D+02  0.2321844432D+00
      0.9286662960D+01  0.4679413484D+00
      0.3163926960D+01  0.3623119853D+00
 Atom C14      Shell    40 SP   3    bf  106 -   109          9.780467593815          0.000000000000          0.000000000000
      0.7868272350D+01 -0.1193324198D+00  0.6899906659D-01
      0.1881288540D+01 -0.1608541517D+00  0.3164239610D+00
      0.5442492580D+00  0.1143456438D+01  0.7443082909D+00
 Atom C14      Shell    41 SP   1    bf  110 -   113          9.780467593815          0.000000000000          0.000000000000
      0.1687144782D+00  0.1000000000D+01  0.1000000000D+01
 Atom C14      Shell    42 D   1     bf  114 -   119          9.780467593815          0.000000000000          0.000000000000
      0.8000000000D+00  0.1000000000D+01
 Atom H15      Shell    43 S   3     bf  120 -   120         10.650801505639         -1.770202013227         -0.596654929341
      0.1873113696D+02  0.3349460434D-01
      0.2825394365D+01  0.2347269535D+00
      0.6401216923D+00  0.8137573261D+00
 Atom H15      Shell    44 S   1     bf  121 -   121         10.650801505639         -1.770202013227         -0.596654929341
      0.1612777588D+00  0.1000000000D+01
 Atom C16      Shell    45 S   6     bf  122 -   122         11.452603327623          2.280819998306         -0.203119594448
      0.3047524880D+04  0.1834737132D-02
      0.4573695180D+03  0.1403732281D-01
      0.1039486850D+03  0.6884262226D-01
      0.2921015530D+02  0.2321844432D+00
      0.9286662960D+01  0.4679413484D+00
      0.3163926960D+01  0.3623119853D+00
 Atom C16      Shell    46 SP   3    bf  123 -   126         11.452603327623          2.280819998306         -0.203119594448
      0.7868272350D+01 -0.1193324198D+00  0.6899906659D-01
      0.1881288540D+01 -0.1608541517D+00  0.3164239610D+00
      0.5442492580D+00  0.1143456438D+01  0.7443082909D+00
 Atom C16      Shell    47 SP   1    bf  127 -   130         11.452603327623          2.280819998306         -0.203119594448
      0.1687144782D+00  0.1000000000D+01  0.1000000000D+01
 Atom C16      Shell    48 D   1     bf  131 -   136         11.452603327623          2.280819998306         -0.203119594448
      0.8000000000D+00  0.1000000000D+01
 Atom H17      Shell    49 S   3     bf  137 -   137         11.893673570655          2.637581810674         -2.207266717159
      0.1873113696D+02  0.3349460434D-01
      0.2825394365D+01  0.2347269535D+00
      0.6401216923D+00  0.8137573261D+00
 Atom H17      Shell    50 S   1     bf  138 -   138         11.893673570655          2.637581810674         -2.207266717159
      0.1612777588D+00  0.1000000000D+01
 Atom C18      Shell    51 S   6     bf  139 -   139         10.360483673528          4.684607480744          1.004100670578
      0.3047524880D+04  0.1834737132D-02
      0.4573695180D+03  0.1403732281D-01
      0.1039486850D+03  0.6884262226D-01
      0.2921015530D+02  0.2321844432D+00
      0.9286662960D+01  0.4679413484D+00
      0.3163926960D+01  0.3623119853D+00
 Atom C18      Shell    52 SP   3    bf  140 -   143         10.360483673528          4.684607480744          1.004100670578
      0.7868272350D+01 -0.1193324198D+00  0.6899906659D-01
      0.1881288540D+01 -0.1608541517D+00  0.3164239610D+00
      0.5442492580D+00  0.1143456438D+01  0.7443082909D+00
 Atom C18      Shell    53 SP   1    bf  144 -   147         10.360483673528          4.684607480744          1.004100670578
      0.1687144782D+00  0.1000000000D+01  0.1000000000D+01
 Atom C18      Shell    54 D   1     bf  148 -   153         10.360483673528          4.684607480744          1.004100670578
      0.8000000000D+00  0.1000000000D+01
 Atom H19      Shell    55 S   3     bf  154 -   154         10.755224086776          4.563786366452          3.032536632248
      0.1873113696D+02  0.3349460434D-01
      0.2825394365D+01  0.2347269535D+00
      0.6401216923D+00  0.8137573261D+00
 Atom H19      Shell    56 S   1     bf  155 -   155         10.755224086776          4.563786366452          3.032536632248
      0.1612777588D+00  0.1000000000D+01
 Atom C20      Shell    57 S   6     bf  156 -   156          7.457125034758          4.778346778648          0.573415209639
      0.3047524880D+04  0.1834737132D-02
      0.4573695180D+03  0.1403732281D-01
      0.1039486850D+03  0.6884262226D-01
      0.2921015530D+02  0.2321844432D+00
      0.9286662960D+01  0.4679413484D+00
      0.3163926960D+01  0.3623119853D+00
 Atom C20      Shell    58 SP   3    bf  157 -   160          7.457125034758          4.778346778648          0.573415209639
      0.7868272350D+01 -0.1193324198D+00  0.6899906659D-01
      0.1881288540D+01 -0.1608541517D+00  0.3164239610D+00
      0.5442492580D+00  0.1143456438D+01  0.7443082909D+00
 Atom C20      Shell    59 SP   1    bf  161 -   164          7.457125034758          4.778346778648          0.573415209639
      0.1687144782D+00  0.1000000000D+01  0.1000000000D+01
 Atom C20      Shell    60 D   1     bf  165 -   170          7.457125034758          4.778346778648          0.573415209639
      0.8000000000D+00  0.1000000000D+01
 Atom H21      Shell    61 S   3     bf  171 -   171          7.181515999387          4.693780891695         -1.490490722572
      0.1873113696D+02  0.3349460434D-01
      0.2825394365D+01  0.2347269535D+00
      0.6401216923D+00  0.8137573261D+00
 Atom H21      Shell    62 S   1     bf  172 -   172          7.181515999387          4.693780891695         -1.490490722572
      0.1612777588D+00  0.1000000000D+01
 Atom C22      Shell    63 S   6     bf  173 -   173          6.329717258468          7.320989277529          1.464658298616
      0.3047524880D+04  0.1834737132D-02
      0.4573695180D+03  0.1403732281D-01
      0.1039486850D+03  0.6884262226D-01
      0.2921015530D+02  0.2321844432D+00
      0.9286662960D+01  0.4679413484D+00
      0.3163926960D+01  0.3623119853D+00
 Atom C22      Shell    64 SP   3    bf  174 -   177          6.329717258468          7.320989277529          1.464658298616
      0.7868272350D+01 -0.1193324198D+00  0.6899906659D-01
      0.1881288540D+01 -0.1608541517D+00  0.3164239610D+00
      0.5442492580D+00  0.1143456438D+01  0.7443082909D+00
 Atom C22      Shell    65 SP   1    bf  178 -   181          6.329717258468          7.320989277529          1.464658298616
      0.1687144782D+00  0.1000000000D+01  0.1000000000D+01
 Atom C22      Shell    66 D   1     bf  182 -   187          6.329717258468          7.320989277529          1.464658298616
      0.8000000000D+00  0.1000000000D+01
 Atom H23      Shell    67 S   3     bf  188 -   188          6.358118802896          7.411833514997          3.532478458361
      0.1873113696D+02  0.3349460434D-01
      0.2825394365D+01  0.2347269535D+00
      0.6401216923D+00  0.8137573261D+00
 Atom H23      Shell    68 S   1     bf  189 -   189          6.358118802896          7.411833514997          3.532478458361
      0.1612777588D+00  0.1000000000D+01
 Atom H24      Shell    69 S   3     bf  190 -   190          4.336516166512          7.428174279224          0.915548878779
      0.1873113696D+02  0.3349460434D-01
      0.2825394365D+01  0.2347269535D+00
      0.6401216923D+00  0.8137573261D+00
 Atom H24      Shell    70 S   1     bf  191 -   191          4.336516166512          7.428174279224          0.915548878779
      0.1612777588D+00  0.1000000000D+01
 Atom C25      Shell    71 S   6     bf  192 -   192          7.697795641755          9.664660773330          0.408138306968
      0.3047524880D+04  0.1834737132D-02
      0.4573695180D+03  0.1403732281D-01
      0.1039486850D+03  0.6884262226D-01
      0.2921015530D+02  0.2321844432D+00
      0.9286662960D+01  0.4679413484D+00
      0.3163926960D+01  0.3623119853D+00
 Atom C25      Shell    72 SP   3    bf  193 -   196          7.697795641755          9.664660773330          0.408138306968
      0.7868272350D+01 -0.1193324198D+00  0.6899906659D-01
      0.1881288540D+01 -0.1608541517D+00  0.3164239610D+00
      0.5442492580D+00  0.1143456438D+01  0.7443082909D+00
 Atom C25      Shell    73 SP   1    bf  197 -   200          7.697795641755          9.664660773330          0.408138306968
      0.1687144782D+00  0.1000000000D+01  0.1000000000D+01
 Atom C25      Shell    74 D   1     bf  201 -   206          7.697795641755          9.664660773330          0.408138306968
      0.8000000000D+00  0.1000000000D+01
 Atom H26      Shell    75 S   3     bf  207 -   207          7.437877153643          9.744180770255         -1.652193642900
      0.1873113696D+02  0.3349460434D-01
      0.2825394365D+01  0.2347269535D+00
      0.6401216923D+00  0.8137573261D+00
 Atom H26      Shell    76 S   1     bf  208 -   208          7.437877153643          9.744180770255         -1.652193642900
      0.1612777588D+00  0.1000000000D+01
 Atom H27      Shell    77 S   3     bf  209 -   209          6.787373268721         11.354039369929          1.178809536530
      0.1873113696D+02  0.3349460434D-01
      0.2825394365D+01  0.2347269535D+00
      0.6401216923D+00  0.8137573261D+00
 Atom H27      Shell    78 S   1     bf  210 -   210          6.787373268721         11.354039369929          1.178809536530
      0.1612777588D+00  0.1000000000D+01
 Atom C28      Shell    79 S   6     bf  211 -   211         10.553189327409          9.612291133160          0.986061155941
      0.3047524880D+04  0.1834737132D-02
      0.4573695180D+03  0.1403732281D-01
      0.1039486850D+03  0.6884262226D-01
      0.2921015530D+02  0.2321844432D+00
      0.9286662960D+01  0.4679413484D+00
      0.3163926960D+01  0.3623119853D+00
 Atom C28      Shell    80 SP   3    bf  212 -   215         10.553189327409          9.612291133160          0.986061155941
      0.7868272350D+01 -0.1193324198D+00  0.6899906659D-01
      0.1881288540D+01 -0.1608541517D+00  0.3164239610D+00
      0.5442492580D+00  0.1143456438D+01  0.7443082909D+00
 Atom C28      Shell    81 SP   1    bf  216 -   219         10.553189327409          9.612291133160          0.986061155941
      0.1687144782D+00  0.1000000000D+01  0.1000000000D+01
 Atom C28      Shell    82 D   1     bf  220 -   225         10.553189327409          9.612291133160          0.986061155941
      0.8000000000D+00  0.1000000000D+01
 Atom C29      Shell    83 S   6     bf  226 -   226         11.585236307390          7.080465105410         -0.100011695781
      0.3047524880D+04  0.1834737132D-02
      0.4573695180D+03  0.1403732281D-01
      0.1039486850D+03  0.6884262226D-01
      0.2921015530D+02  0.2321844432D+00
      0.9286662960D+01  0.4679413484D+00
      0.3163926960D+01  0.3623119853D+00
 Atom C29      Shell    84 SP   3    bf  227 -   230         11.585236307390          7.080465105410         -0.100011695781
      0.7868272350D+01 -0.1193324198D+00  0.6899906659D-01
      0.1881288540D+01 -0.1608541517D+00  0.3164239610D+00
      0.5442492580D+00  0.1143456438D+01  0.7443082909D+00
 Atom C29      Shell    85 SP   1    bf  231 -   234         11.585236307390          7.080465105410         -0.100011695781
      0.1687144782D+00  0.1000000000D+01  0.1000000000D+01
 Atom C29      Shell    86 D   1     bf  235 -   240         11.585236307390          7.080465105410         -0.100011695781
      0.8000000000D+00  0.1000000000D+01
 Atom H30      Shell    87 S   3     bf  241 -   241         11.057320619667          7.104678789961         -2.119199980264
      0.1873113696D+02  0.3349460434D-01
      0.2825394365D+01  0.2347269535D+00
      0.6401216923D+00  0.8137573261D+00
 Atom H30      Shell    88 S   1     bf  242 -   242         11.057320619667          7.104678789961         -2.119199980264
      0.1612777588D+00  0.1000000000D+01
 Atom C31      Shell    89 S   6     bf  243 -   243         14.471294276646          7.389833739098          0.000000000000
      0.3047524880D+04  0.1834737132D-02
      0.4573695180D+03  0.1403732281D-01
      0.1039486850D+03  0.6884262226D-01
      0.2921015530D+02  0.2321844432D+00
      0.9286662960D+01  0.4679413484D+00
      0.3163926960D+01  0.3623119853D+00
 Atom C31      Shell    90 SP   3    bf  244 -   247         14.471294276646          7.389833739098          0.000000000000
      0.7868272350D+01 -0.1193324198D+00  0.6899906659D-01
      0.1881288540D+01 -0.1608541517D+00  0.3164239610D+00
      0.5442492580D+00  0.1143456438D+01  0.7443082909D+00
 Atom C31      Shell    91 SP   1    bf  248 -   251         14.471294276646          7.389833739098          0.000000000000
      0.1687144782D+00  0.1000000000D+01  0.1000000000D+01
 Atom C31      Shell    92 D   1     bf  252 -   257         14.471294276646          7.389833739098          0.000000000000
      0.8000000000D+00  0.1000000000D+01
 Atom H32      Shell    93 S   3     bf  258 -   258         15.446873442982          6.155826379371         -1.338476957251
      0.1873113696D+02  0.3349460434D-01
      0.2825394365D+01  0.2347269535D+00
      0.6401216923D+00  0.8137573261D+00
 Atom H32      Shell    94 S   1     bf  259 -   259         15.446873442982          6.155826379371         -1.338476957251
      0.1612777588D+00  0.1000000000D+01
 Atom H33      Shell    95 S   3     bf  260 -   260         15.194656420341          6.892740467260          1.873392474029
      0.1873113696D+02  0.3349460434D-01
      0.2825394365D+01  0.2347269535D+00
      0.6401216923D+00  0.8137573261D+00
 Atom H33      Shell    96 S   1     bf  261 -   261         15.194656420341          6.892740467260          1.873392474029
      0.1612777588D+00  0.1000000000D+01
 Atom C34      Shell    97 S   6     bf  262 -   262         14.881599967208         10.233630515625         -0.590352522612
      0.3047524880D+04  0.1834737132D-02
      0.4573695180D+03  0.1403732281D-01
      0.1039486850D+03  0.6884262226D-01
      0.2921015530D+02  0.2321844432D+00
      0.9286662960D+01  0.4679413484D+00
      0.3163926960D+01  0.3623119853D+00
 Atom C34      Shell    98 SP   3    bf  263 -   266         14.881599967208         10.233630515625         -0.590352522612
      0.7868272350D+01 -0.1193324198D+00  0.6899906659D-01
      0.1881288540D+01 -0.1608541517D+00  0.3164239610D+00
      0.5442492580D+00  0.1143456438D+01  0.7443082909D+00
 Atom C34      Shell    99 SP   1    bf  267 -   270         14.881599967208         10.233630515625         -0.590352522612
      0.1687144782D+00  0.1000000000D+01  0.1000000000D+01
 Atom C34      Shell   100 D   1     bf  271 -   276         14.881599967208         10.233630515625         -0.590352522612
      0.8000000000D+00  0.1000000000D+01
 Atom H35      Shell   101 S   3     bf  277 -   277         16.152457251088         11.097582633325          0.800200921594
      0.1873113696D+02  0.3349460434D-01
      0.2825394365D+01  0.2347269535D+00
      0.6401216923D+00  0.8137573261D+00
 Atom H35      Shell   102 S   1     bf  278 -   278         16.152457251088         11.097582633325          0.800200921594
      0.1612777588D+00  0.1000000000D+01
 Atom H36      Shell   103 S   3     bf  279 -   279         15.778778912735         10.492108011972         -2.435467304864
      0.1873113696D+02  0.3349460434D-01
      0.2825394365D+01  0.2347269535D+00
      0.6401216923D+00  0.8137573261D+00
 Atom H36      Shell   104 S   1     bf  280 -   280         15.778778912735         10.492108011972         -2.435467304864
      0.1612777588D+00  0.1000000000D+01
 Atom C37      Shell   105 S   6     bf  281 -   281         12.228148160881         11.543908091350         -0.515115136433
      0.3047524880D+04  0.1834737132D-02
      0.4573695180D+03  0.1403732281D-01
      0.1039486850D+03  0.6884262226D-01
      0.2921015530D+02  0.2321844432D+00
      0.9286662960D+01  0.4679413484D+00
      0.3163926960D+01  0.3623119853D+00
 Atom C37      Shell   106 SP   3    bf  282 -   285         12.228148160881         11.543908091350         -0.515115136433
      0.7868272350D+01 -0.1193324198D+00  0.6899906659D-01
      0.1881288540D+01 -0.1608541517D+00  0.3164239610D+00
      0.5442492580D+00  0.1143456438D+01  0.7443082909D+00
 Atom C37      Shell   107 SP   1    bf  286 -   289         12.228148160881         11.543908091350         -0.515115136433
      0.1687144782D+00  0.1000000000D+01  0.1000000000D+01
 Atom C37      Shell   108 D   1     bf  290 -   295         12.228148160881         11.543908091350         -0.515115136433
      0.8000000000D+00  0.1000000000D+01
 Atom H38      Shell   109 S   3     bf  296 -   296         11.470281073089         11.573210298150         -2.454410051901
      0.1873113696D+02  0.3349460434D-01
      0.2825394365D+01  0.2347269535D+00
      0.6401216923D+00  0.8137573261D+00
 Atom H38      Shell   110 S   1     bf  297 -   297         11.470281073089         11.573210298150         -2.454410051901
      0.1612777588D+00  0.1000000000D+01
 Atom C39      Shell   111 S   6     bf  298 -   298         11.035126183079          9.867655910415          3.856547233842
      0.3047524880D+04  0.1834737132D-02
      0.4573695180D+03  0.1403732281D-01
      0.1039486850D+03  0.6884262226D-01
[...]
 **** Fit      -0.003259
 **** Fit      -0.003811
 **** Fit      -0.004279
 **** Fit      -0.004564
 **** Fit      -0.004613
 **** Fit      -0.004494
 **** Fit      -0.004373
 **** Fit      -0.004374
 **** Fit      -0.004433
 **** Fit      -0.004382
 **** Fit      -0.004142
 **** Fit      -0.003777
 **** Fit      -0.003395
 **** Fit      -0.003065
 **** Fit      -0.002208
 **** Fit      -0.002684
 **** Fit      -0.003229
 **** Fit      -0.003801
 **** Fit      -0.004334
 **** Fit      -0.004762
 **** Fit      -0.005043
 **** Fit      -0.005188
 **** Fit      -0.005226
 **** Fit      -0.005165
 **** Fit      -0.004975
 **** Fit      -0.004636
 **** Fit      -0.004183
 **** Fit      -0.003697
 **** Fit      -0.003254
 **** Fit      -0.002892
 **** Fit      -0.002605
 **** Fit      -0.002595
 **** Fit      -0.003107
 **** Fit      -0.003648
 **** Fit      -0.004166
 **** Fit      -0.004606
 **** Fit      -0.004922
 **** Fit      -0.005089
 **** Fit      -0.005089
 **** Fit      -0.004919
 **** Fit      -0.004598
 **** Fit      -0.004172
 **** Fit      -0.003705
 **** Fit      -0.003254
 **** Fit      -0.002862
 **** Fit      -0.002543
 **** Fit      -0.002288
 **** Fit      -0.002916
 **** Fit      -0.003392
 **** Fit      -0.003844
 **** Fit      -0.004219
 **** Fit      -0.004465
 **** Fit      -0.004542
 **** Fit      -0.004433
 **** Fit      -0.004156
 **** Fit      -0.003774
 **** Fit      -0.003361
 **** Fit      -0.002971
 **** Fit      -0.002628
 **** Fit      -0.002340
 **** Fit      -0.002104
 **** Fit      -0.001912
 **** Fit      -0.003073
 **** Fit      -0.003433
 **** Fit      -0.003709
 **** Fit      -0.003852
 **** Fit      -0.003824
 **** Fit      -0.003619
 **** Fit      -0.003280
 **** Fit      -0.002889
 **** Fit      -0.002526
 **** Fit      -0.002228
 **** Fit      -0.001994
 **** Fit      -0.001809
 **** Fit      -0.001661
 **** Fit      -0.001537
 **** Fit      -0.002991
 **** Fit      -0.003169
 **** Fit      -0.003219
 **** Fit      -0.003113
 **** Fit      -0.002861
 **** Fit      -0.002515
 **** Fit      -0.002153
 **** Fit      -0.001846
 **** Fit      -0.001619
 **** Fit      -0.001464
 **** Fit      -0.001356
 **** Fit      -0.001274
 **** Fit      -0.002564
 **** Fit      -0.002662
 **** Fit      -0.002647
 **** Fit      -0.002504
 **** Fit      -0.002250
 **** Fit      -0.001933
 **** Fit      -0.001620
 **** Fit      -0.001365
 **** Fit      -0.001188
 **** Fit      -0.001078
 **** Fit      -0.001014
 **** Fit      -0.000972
 **** Fit      -0.002223
 **** Fit      -0.002172
 **** Fit      -0.002023
 **** Fit      -0.001793
 **** Fit      -0.001524
 **** Fit      -0.001264
 **** Fit      -0.001054
 **** Fit      -0.000909
 **** Fit      -0.000823
 **** Fit      -0.000779
 **** Fit      -0.001659
 **** Fit      -0.001465
 **** Fit      -0.001245
 **** Fit      -0.001034
 **** Fit      -0.000862
 **** Fit      -0.000741
 **** Fit      -0.000667
 **** Fit      -0.001054
 **** Fit      -0.000886
 **** Fit      -0.000328
 **** Fit      -0.000140
 **** Fit       0.000008
 **** Fit       0.000093
 **** Fit       0.000108
 **** Fit       0.000064
 **** Fit      -0.000680
 **** Fit      -0.000435
 **** Fit      -0.000152
 **** Fit       0.000121
 **** Fit       0.000331
 **** Fit       0.000439
 **** Fit       0.000435
 **** Fit       0.000342
 **** Fit       0.000199
 **** Fit       0.000039
 **** Fit      -0.000121
 **** Fit      -0.000280
 **** Fit      -0.000443
 **** Fit      -0.000611
 **** Fit      -0.000935
 **** Fit      -0.000697
 **** Fit      -0.000362
 **** Fit       0.000037
 **** Fit       0.000429
 **** Fit       0.000723
 **** Fit       0.000850
 **** Fit       0.000799
 **** Fit       0.000618
 **** Fit       0.000378
 **** Fit       0.000137
 **** Fit      -0.000082
 **** Fit      -0.000280
 **** Fit      -0.000467
 **** Fit      -0.000650
 **** Fit      -0.000825
 **** Fit      -0.001215
 **** Fit      -0.001062
 **** Fit      -0.000771
 **** Fit      -0.000332
 **** Fit       0.000214
 **** Fit       0.000763
 **** Fit       0.001167
 **** Fit       0.001307
 **** Fit       0.001173
 **** Fit       0.000856
 **** Fit       0.000478
 **** Fit       0.000130
 **** Fit      -0.000160
 **** Fit      -0.000396
 **** Fit      -0.000601
 **** Fit      -0.000787
 **** Fit      -0.000955
 **** Fit      -0.001097
 **** Fit      -0.001409
 **** Fit      -0.001260
 **** Fit      -0.000933
 **** Fit      -0.000396
 **** Fit       0.000312
 **** Fit       0.001048
 **** Fit       0.001583
 **** Fit       0.001729
 **** Fit       0.001475
 **** Fit       0.000980
 **** Fit       0.000439
 **** Fit      -0.000023
 **** Fit      -0.000376
 **** Fit      -0.000639
 **** Fit      -0.000846
 **** Fit      -0.001018
 **** Fit      -0.001162
 **** Fit      -0.001272
 **** Fit      -0.001652
 **** Fit      -0.001541
 **** Fit      -0.001217
 **** Fit      -0.000625
 **** Fit       0.000213
 **** Fit       0.001118
 **** Fit       0.001777
 **** Fit       0.001918
 **** Fit       0.001534
 **** Fit       0.000865
 **** Fit       0.000186
 **** Fit      -0.000354
 **** Fit      -0.000735
 **** Fit      -0.000995
 **** Fit      -0.001179
 **** Fit      -0.001316
 **** Fit      -0.001416
 **** Fit      -0.001481
 **** Fit      -0.001836
 **** Fit      -0.001932
 **** Fit      -0.001896
 **** Fit      -0.001639
 **** Fit      -0.001079
 **** Fit      -0.000220
 **** Fit       0.000750
 **** Fit       0.001461
 **** Fit       0.001588
 **** Fit       0.001126
 **** Fit       0.000377
 **** Fit      -0.000338
 **** Fit      -0.000868
 **** Fit      -0.001211
 **** Fit      -0.001422
 **** Fit      -0.001553
 **** Fit      -0.001634
 **** Fit      -0.001678
 **** Fit      -0.002039
 **** Fit      -0.002219
 **** Fit      -0.002291
 **** Fit      -0.002163
 **** Fit      -0.001748
 **** Fit      -0.001032
 **** Fit      -0.000180
 **** Fit       0.000455
 **** Fit       0.000559
 **** Fit       0.000135
 **** Fit      -0.000522
 **** Fit      -0.001113
 **** Fit      -0.001513
 **** Fit      -0.001741
 **** Fit      -0.001856
 **** Fit      -0.001907
 **** Fit      -0.001919
 **** Fit      -0.002474
 **** Fit      -0.002665
 **** Fit      -0.002704
 **** Fit      -0.002512
 **** Fit      -0.002072
 **** Fit      -0.001502
 **** Fit      -0.001062
 **** Fit      -0.000983
 **** Fit      -0.001258
 **** Fit      -0.001667
 **** Fit      -0.001997
 **** Fit      -0.002176
 **** Fit      -0.002235
 **** Fit      -0.002226
 **** Fit      -0.002663
 **** Fit      -0.002956
 **** Fit      -0.003151
 **** Fit      -0.003188
 **** Fit      -0.003049
 **** Fit      -0.002800
 **** Fit      -0.002585
 **** Fit      -0.002527
 **** Fit      -0.002616
 **** Fit      -0.002730
 **** Fit      -0.002767
 **** Fit      -0.002711
 **** Fit      -0.002598
 **** Fit      -0.002469
 **** Fit      -0.002763
 **** Fit      -0.003123
 **** Fit      -0.003427
 **** Fit      -0.003631
 **** Fit      -0.003716
 **** Fit      -0.003706
 **** Fit      -0.003653
 **** Fit      -0.003600
 **** Fit      -0.003535
 **** Fit      -0.003419
 **** Fit      -0.003233
 **** Fit      -0.003002
 **** Fit      -0.002765
 **** Fit      -0.002550
 **** Fit      -0.003158
 **** Fit      -0.003511
 **** Fit      -0.003797
 **** Fit      -0.003993
 **** Fit      -0.004095
 **** Fit      -0.004108
 **** Fit      -0.004034
 **** Fit      -0.003871
 **** Fit      -0.003625
 **** Fit      -0.003325
 **** Fit      -0.003010
 **** Fit      -0.002719
 **** Fit      -0.003076
 **** Fit      -0.003426
 **** Fit      -0.003721
 **** Fit      -0.003934
 **** Fit      -0.004046
 **** Fit      -0.004046
 **** Fit      -0.003931
 **** Fit      -0.003713
 **** Fit      -0.003421
 **** Fit      -0.003096
 **** Fit      -0.002778
 **** Fit      -0.002495
 **** Fit      -0.002256
 **** Fit      -0.003474
 **** Fit      -0.003647
 **** Fit      -0.003714
 **** Fit      -0.003664
 **** Fit      -0.003504
 **** Fit      -0.003259
 **** Fit      -0.002969
 **** Fit      -0.002674
 **** Fit      -0.002400
 **** Fit      -0.002162
 **** Fit      -0.001964
 **** Fit      -0.003127
 **** Fit      -0.003238
 **** Fit      -0.003245
 **** Fit      -0.003144
 **** Fit      -0.002952
 **** Fit      -0.002703
 **** Fit      -0.002439
 **** Fit      -0.002192
 **** Fit      -0.001976
 **** Fit      -0.001796
 **** Fit      -0.002743
 **** Fit      -0.002795
 **** Fit      -0.002751
 **** Fit      -0.002616
 **** Fit      -0.002413
 **** Fit      -0.002178
 **** Fit      -0.001948
 **** Fit      -0.001748
 **** Fit      -0.001584
 **** Fit      -0.001455
 **** Fit      -0.002374
 **** Fit      -0.002299
 **** Fit      -0.002152
 **** Fit      -0.001956
 **** Fit      -0.001746
 **** Fit      -0.001550
 **** Fit      -0.001389
 **** Fit      -0.001264
 **** Fit      -0.001919
 **** Fit      -0.001776
 **** Fit      -0.001600
 **** Fit      -0.001418
 **** Fit      -0.001254
 **** Fit      -0.001122
 **** Fit      -0.000353
 **** Fit      -0.000167
 **** Fit      -0.000026
 **** Fit       0.000045
 **** Fit       0.000041
 **** Fit      -0.000027
 **** Fit      -0.000744
 **** Fit      -0.000514
 **** Fit      -0.000252
 **** Fit      -0.000002
 **** Fit       0.000184
 **** Fit       0.000269
 **** Fit       0.000244
 **** Fit       0.000132
 **** Fit      -0.000030
 **** Fit      -0.000812
 **** Fit      -0.000528
 **** Fit      -0.000194
 **** Fit       0.000129
 **** Fit       0.000366
 **** Fit       0.000460
 **** Fit       0.000402
 **** Fit       0.000230
 **** Fit       0.000003
 **** Fit      -0.000229
 **** Fit      -0.001166
 **** Fit      -0.000949
 **** Fit      -0.000624
 **** Fit      -0.000225
 **** Fit       0.000169
 **** Fit       0.000455
 **** Fit       0.000554
 **** Fit       0.000455
 **** Fit       0.000217
 **** Fit      -0.000076
 **** Fit      -0.000358
 **** Fit      -0.000598
 **** Fit      -0.001378
 **** Fit      -0.001173
 **** Fit      -0.000837
 **** Fit      -0.000403
 **** Fit       0.000039
 **** Fit       0.000359
 **** Fit       0.000457
 **** Fit       0.000322
 **** Fit       0.000033
 **** Fit      -0.000303
 **** Fit      -0.000608
 **** Fit      -0.000851
 **** Fit      -0.001676
 **** Fit      -0.001642
 **** Fit      -0.001485
 **** Fit      -0.001186
 **** Fit      -0.000771
 **** Fit      -0.000334
 **** Fit      -0.000014
 **** Fit       0.000078
 **** Fit      -0.000070
 **** Fit      -0.000365
 **** Fit      -0.000692
 **** Fit      -0.000973
 **** Fit      -0.001183
 **** Fit      -0.001897
 **** Fit      -0.001934
 **** Fit      -0.001858
 **** Fit      -0.001648
 **** Fit      -0.001320
 **** Fit      -0.000955
 **** Fit      -0.000680
 **** Fit      -0.000599
 **** Fit      -0.000721
 **** Fit      -0.000960
 **** Fit      -0.001212
 **** Fit      -0.001414
 **** Fit      -0.001550
 **** Fit      -0.001631
 **** Fit      -0.002100
 **** Fit      -0.002215
 **** Fit      -0.002240
 **** Fit      -0.002152
 **** Fit      -0.001959
 **** Fit      -0.001719
 **** Fit      -0.001526
 **** Fit      -0.001457
 **** Fit      -0.001519
 **** Fit      -0.001650
 **** Fit      -0.001777
 **** Fit      -0.001860
 **** Fit      -0.001896
 **** Fit      -0.002444
 **** Fit      -0.002565
 **** Fit      -0.002600
 **** Fit      -0.002549
 **** Fit      -0.002444
 **** Fit      -0.002340
 **** Fit      -0.002282
 **** Fit      -0.002272
 **** Fit      -0.002279
 **** Fit      -0.002268
 **** Fit      -0.002227
 **** Fit      -0.002161
 **** Fit      -0.002590
 **** Fit      -0.002782
 **** Fit      -0.002911
 **** Fit      -0.002970
 **** Fit      -0.002969
 **** Fit      -0.002931
 **** Fit      -0.002875
 **** Fit      -0.002803
 **** Fit      -0.002707
 **** Fit      -0.002585
 **** Fit      -0.002445
 **** Fit      -0.002300
 **** Fit      -0.002871
 **** Fit      -0.003050
 **** Fit      -0.003169
 **** Fit      -0.003222
 **** Fit      -0.003214
 **** Fit      -0.003149
 **** Fit      -0.003032
 **** Fit      -0.002871
 **** Fit      -0.002683
 **** Fit      -0.002486
 **** Fit      -0.003028
 **** Fit      -0.003160
 **** Fit      -0.003222
 **** Fit      -0.003211
 **** Fit      -0.003128
 **** Fit      -0.002983
 **** Fit      -0.002793
 **** Fit      -0.002581
 **** Fit      -0.002369
 **** Fit      -0.002994
 **** Fit      -0.003036
 **** Fit      -0.003003
 **** Fit      -0.002899
 **** Fit      -0.002739
 **** Fit      -0.002545
 **** Fit      -0.002339
 **** Fit      -0.002141
 **** Fit      -0.002742
 **** Fit      -0.002683
 **** Fit      -0.002563
 **** Fit      -0.002400
 **** Fit      -0.002216
 **** Fit      -0.002032
 **** Fit      -0.001862
 **** Fit      -0.002408
 **** Fit      -0.002329
 **** Fit      -0.002201
 **** Fit      -0.002044
 **** Fit      -0.001878
 **** Fit      -0.001721
 **** Fit      -0.001866
 **** Fit      -0.001721
 **** Fit      -0.000479
 **** Fit      -0.000322
 **** Fit      -0.000205
 **** Fit      -0.000150
 **** Fit      -0.000163
 **** Fit      -0.000682
 **** Fit      -0.000477
 **** Fit      -0.000284
 **** Fit      -0.000142
 **** Fit      -0.000081
 **** Fit      -0.000107
 **** Fit      -0.000204
 **** Fit      -0.000344
 **** Fit      -0.000975
 **** Fit      -0.000778
 **** Fit      -0.000547
 **** Fit      -0.000325
 **** Fit      -0.000163
 **** Fit      -0.000098
 **** Fit      -0.000139
 **** Fit      -0.000261
 **** Fit      -0.000426
 **** Fit      -0.000601
 **** Fit      -0.001148
 **** Fit      -0.000953
 **** Fit      -0.000715
 **** Fit      -0.000481
 **** Fit      -0.000310
 **** Fit      -0.000245
 **** Fit      -0.000295
 **** Fit      -0.000431
 **** Fit      -0.000607
 **** Fit      -0.000785
 **** Fit      -0.001377
 **** Fit      -0.001210
 **** Fit      -0.000993
 **** Fit      -0.000773
 **** Fit      -0.000609
 **** Fit      -0.000547
 **** Fit      -0.000596
 **** Fit      -0.000724
 **** Fit      -0.000885
 **** Fit      -0.001041
 **** Fit      -0.001686
 **** Fit      -0.001643
 **** Fit      -0.001530
 **** Fit      -0.001364
 **** Fit      -0.001185
 **** Fit      -0.001046
 **** Fit      -0.000990
 **** Fit      -0.001023
 **** Fit      -0.001118
 **** Fit      -0.001235
 **** Fit      -0.001343
 **** Fit      -0.001913
 **** Fit      -0.001869
 **** Fit      -0.001774
 **** Fit      -0.001655
 **** Fit      -0.001555
 **** Fit      -0.001504
 **** Fit      -0.001510
 **** Fit      -0.001552
 **** Fit      -0.001604
 **** Fit      -0.001645
 **** Fit      -0.002147
 **** Fit      -0.002172
 **** Fit      -0.002150
 **** Fit      -0.002095
 **** Fit      -0.002035
 **** Fit      -0.001988
 **** Fit      -0.001961
 **** Fit      -0.001945
 **** Fit      -0.001926
 **** Fit      -0.001896
 **** Fit      -0.002312
 **** Fit      -0.002392
 **** Fit      -0.002428
 **** Fit      -0.002425
 **** Fit      -0.002395
 **** Fit      -0.002348
 **** Fit      -0.002291
 **** Fit      -0.002223
 **** Fit      -0.002143
 **** Fit      -0.002505
 **** Fit      -0.002575
 **** Fit      -0.002600
 **** Fit      -0.002585
 **** Fit      -0.002534
 **** Fit      -0.002453
 **** Fit      -0.002349
 **** Fit      -0.002622
 **** Fit      -0.002607
 **** Fit      -0.002548
 **** Fit      -0.002450
 **** Fit      -0.000615
 **** Fit      -0.000522
 **** Fit      -0.000481
 **** Fit      -0.000498
 **** Fit      -0.000882
 **** Fit      -0.000752
 **** Fit      -0.000655
 **** Fit      -0.000614
 **** Fit      -0.000633
 **** Fit      -0.000702
 **** Fit      -0.001204
 **** Fit      -0.001085
 **** Fit      -0.000966
 **** Fit      -0.000876
 **** Fit      -0.000836
 **** Fit      -0.000851
 **** Fit      -0.000911
 **** Fit      -0.000995
 **** Fit      -0.001427
 **** Fit      -0.001338
 **** Fit      -0.001243
 **** Fit      -0.001166
 **** Fit      -0.001129
 **** Fit      -0.001134
 **** Fit      -0.001175
 **** Fit      -0.001232
 **** Fit      -0.001659
 **** Fit      -0.001609
 **** Fit      -0.001546
 **** Fit      -0.001488
 **** Fit      -0.001453
 **** Fit      -0.001444
 **** Fit      -0.001456
 **** Fit      -0.001857
 **** Fit      -0.001826
 **** Fit      -0.001788
 **** Fit      -0.001754
 **** Fit      -0.001728
 **** Fit      -0.001709
 **** Fit      -0.002041
 **** Fit      -0.002019
 **** Fit      -0.001984
 **** Fit      -0.001942
 -----------------------------------------------------------------
 Leave Link  602 at Fri Apr 28 12:25:32 2017, MaxMem=   33554432 cpu:     102.3
 (Enter /scratch/michal/g09/l9999.exe)

 Test job not archived.
 1\1\GINC-RZEPICHA\SP\RHF\6-31G(d)\C27H46O3\MICHAL\28-Apr-2017\0\\#P HF
 /6-31G* SCF(Conver=6) NoSymm Test Pop=chelpg IOp(6/33=2) GFInput GFPri
 nt\\MEP - Input generated by R.E.D.-III.x MOLECULE\\0,1\C,0,1.75859991
 ,-1.24832817,-0.06993641\H,0,1.87103945,-1.12798893,-1.15437956\C,0,3.
 15122437,-1.30884378,0.57361369\H,0,3.72792492,-2.12834475,0.13320824\
 H,0,3.01397788,-1.55538693,1.63908553\C,0,3.91451455,-0.00373537,0.452
 58148\C,0,3.19081133,1.27896628,0.87710321\C,0,1.74866854,1.25429213,0
 .28107135\H,0,1.81906197,1.44420745,-0.79900546\H,0,1.16694228,2.08015
 302,0.70336426\C,0,0.97903125,-0.05904493,0.48892784\H,0,0.78702327,-0
 .22758765,1.5590661\H,0,0.,0.,0.\C,0,5.17560054,0.,0.\H,0,5.63616141,-
 0.93675056,-0.31573619\C,0,6.06045666,1.20695796,-0.10748626\H,0,6.293
 86098,1.39574818,-1.16803524\C,0,5.48253183,2.47898751,0.53134719\H,0,
 5.69141946,2.41505173,1.60474927\C,0,3.94614061,2.52859221,0.30343826\
 H,0,3.80029459,2.48384187,-0.78873372\C,0,3.34954211,3.87410067,0.7750
 6379\H,0,3.36457156,3.92217337,1.86930709\H,0,2.29478552,3.93082053,0.
 4844876\C,0,4.07349801,5.11431821,0.21597749\H,0,3.93595507,5.15639838
 ,-0.87430322\H,0,3.59172324,6.00829886,0.62379914\C,0,5.58450727,5.086
 60539,0.52180109\C,0,6.13064301,3.74682076,-0.05292391\H,0,5.85128206,
 3.75963409,-1.12143233\C,0,7.65787911,3.91053159,0.\H,0,8.17413337,3.2
 5752302,-0.7082915\H,0,8.04066587,3.64748116,0.9913566\C,0,7.87500353,
 5.41540403,-0.3124011\H,0,8.54751224,5.8725878,0.42344809\H,0,8.349770
 18,5.55218443,-1.28879379\C,0,6.47085731,6.10877306,-0.27258719\H,0,6.
 06981132,6.12427912,-1.29881786\C,0,5.83953727,5.22173861,2.0407969\H,
 0,5.40449276,4.39760618,2.61176876\H,0,6.90771553,5.24484269,2.2751445
 9\H,0,5.40082856,6.1484154,2.42524606\C,0,6.54966472,7.58542924,0.1957
 9336\H,0,7.01214917,7.59617145,1.19469783\C,0,5.1743683,8.26764875,0.3
 0273098\H,0,4.6351098,8.21500874,-0.65168232\H,0,5.27639073,9.32418123
 ,0.56776942\H,0,4.54384354,7.8085694,1.06720485\C,0,3.11544462,1.31068
 202,2.42693898\H,0,2.48239244,2.1316632,2.77747008\H,0,2.69170221,0.38
 499428,2.82589838\H,0,4.10941619,1.42732942,2.86831818\O,0,7.39381549,
 0.89665959,0.37148386\O,0,7.33799304,0.63600929,1.80505379\H,0,7.38076
 108,-0.33420399,1.81876737\O,0,1.05433079,-2.48460667,0.07330046\H,0,0
 .89177977,-2.64173761,1.01409021\C,0,7.4786798,8.39407083,-0.74428427\
 H,0,8.41550533,7.84313129,-0.88777679\H,0,7.00451375,8.45092965,-1.734
 95801\C,0,7.8391895,9.80598127,-0.25136394\H,0,6.95137054,10.44853617,
 -0.2373706\H,0,8.17536849,9.73661723,0.79300058\C,0,8.95430069,10.4902
 9257,-1.06367357\H,0,9.86099305,9.87107886,-1.00305107\H,0,9.20656675,
 11.44539227,-0.57929988\C,0,8.65543711,10.77012726,-2.55208038\H,0,8.4
 203646,9.81398588,-3.04128656\C,0,7.45139892,11.7060864,-2.74310983\H,
 0,7.62634401,12.67114877,-2.24974725\H,0,7.27505884,11.90455899,-3.806
 46088\H,0,6.52966762,11.28336012,-2.33034649\C,0,9.90114056,11.3468123
 4,-3.24376654\H,0,10.18452224,12.30978076,-2.79956295\H,0,9.72224652,1
 1.51400008,-4.31210021\H,0,10.75940385,10.6716747,-3.14891731\\Version
 =EM64L-G09RevC.01\HF=-1273.683594\RMSD=5.043e-07\Dipole=-0.5598547,-0.
 0028518,0.4203612\Quadrupole=-10.5936227,2.416129,8.1774938,-8.089093,
 -1.5390279,-4.3064617\PG=C01 [X(C27H46O3)]\\@


 ON A TOMBSTONE, "HERE LIES LESTER MOORE,
 FOUR SLUGS FROM A 44, NO LES, NO MORE".
 Job cpu time:  0 days  0 hours 42 minutes 17.4 seconds.
 File lengths (MBytes):  RWF=    159 Int=      0 D2E=      0 Chk=     11 Scr=      1
 Normal termination of Gaussian 09 at Fri Apr 28 12:25:32 2017.
