 Entering Gaussian System, Link 0=/scratch/michal/g09//g09
 Input=JOB2-gau_m1-25-2.com
 Output=JOB2-gau_m1-25-2.log
 Initial command:
 /scratch/michal/g09/l1.exe /scratch/michal/gauss_scratch/Gau-30824.inp -scrdir=/scratch/michal/gauss_scratch/
 Entering Link 1 = /scratch/michal/g09/l1.exe PID=     30826.
  
 Copyright (c) 1988,1990,1992,1993,1995,1998,2003,2009,2011,
            Gaussian, Inc.  All Rights Reserved.
  
 This is part of the Gaussian(R) 09 program.  It is based on
 the Gaussian(R) 03 system (copyright 2003, Gaussian, Inc.),
 the Gaussian(R) 98 system (copyright 1998, Gaussian, Inc.),
 the Gaussian(R) 94 system (copyright 1995, Gaussian, Inc.),
 the Gaussian 92(TM) system (copyright 1992, Gaussian, Inc.),
 the Gaussian 90(TM) system (copyright 1990, Gaussian, Inc.),
 the Gaussian 88(TM) system (copyright 1988, Gaussian, Inc.),
 the Gaussian 86(TM) system (copyright 1986, Carnegie Mellon
 University), and the Gaussian 82(TM) system (copyright 1983,
 Carnegie Mellon University). Gaussian is a federally registered
 trademark of Gaussian, Inc.
  
 This software contains proprietary and confidential information,
 including trade secrets, belonging to Gaussian, Inc.
  
 This software is provided under written license and may be
 used, copied, transmitted, or stored only in accord with that
 written license.
  
 The following legend is applicable only to US Government
 contracts under FAR:
  
                    RESTRICTED RIGHTS LEGEND
  
 Use, reproduction and disclosure by the US Government is
 subject to restrictions as set forth in subparagraphs (a)
 and (c) of the Commercial Computer Software - Restricted
 Rights clause in FAR 52.227-19.
  
 Gaussian, Inc.
 340 Quinnipiac St., Bldg. 40, Wallingford CT 06492
  
  
 ---------------------------------------------------------------
 Warning -- This program may not be used in any manner that
 competes with the business of Gaussian, Inc. or will provide
 assistance to any competitor of Gaussian, Inc.  The licensee
 of this program is prohibited from giving any competitor of
 Gaussian, Inc. access to this program.  By using this program,
 the user acknowledges that Gaussian, Inc. is engaged in the
 business of creating and licensing software in the field of
 computational chemistry and represents and warrants to the
 licensee that it is not a competitor of Gaussian, Inc. and that
 it will not use this program in any manner prohibited above.
 ---------------------------------------------------------------
  

 Cite this work as:
 Gaussian 09, Revision C.01,
 M. J. Frisch, G. W. Trucks, H. B. Schlegel, G. E. Scuseria, 
 M. A. Robb, J. R. Cheeseman, G. Scalmani, V. Barone, B. Mennucci, 
 G. A. Petersson, H. Nakatsuji, M. Caricato, X. Li, H. P. Hratchian, 
 A. F. Izmaylov, J. Bloino, G. Zheng, J. L. Sonnenberg, M. Hada, 
 M. Ehara, K. Toyota, R. Fukuda, J. Hasegawa, M. Ishida, T. Nakajima, 
 Y. Honda, O. Kitao, H. Nakai, T. Vreven, J. A. Montgomery, Jr., 
 J. E. Peralta, F. Ogliaro, M. Bearpark, J. J. Heyd, E. Brothers, 
 K. N. Kudin, V. N. Staroverov, T. Keith, R. Kobayashi, J. Normand, 
 K. Raghavachari, A. Rendell, J. C. Burant, S. S. Iyengar, J. Tomasi, 
 M. Cossi, N. Rega, J. M. Millam, M. Klene, J. E. Knox, J. B. Cross, 
 V. Bakken, C. Adamo, J. Jaramillo, R. Gomperts, R. E. Stratmann, 
 O. Yazyev, A. J. Austin, R. Cammi, C. Pomelli, J. W. Ochterski, 
 R. L. Martin, K. Morokuma, V. G. Zakrzewski, G. A. Voth, 
 P. Salvador, J. J. Dannenberg, S. Dapprich, A. D. Daniels, 
 O. Farkas, J. B. Foresman, J. V. Ortiz, J. Cioslowski, 
 and D. J. Fox, Gaussian, Inc., Wallingford CT, 2010.
 
 ******************************************
 Gaussian 09:  EM64L-G09RevC.01 23-Sep-2011
                28-Apr-2017 
 ******************************************
 %Mem=256MB
 %NProc=48
 Will use up to   48 processors via shared memory.
 ----------------------------------------------------------------------
 #P HF/6-31G* SCF(Conver=6) NoSymm Test Pop=chelpg IOp(6/33=2) GFInput 
 GFPrint
 ----------------------------------------------------------------------
 1/38=1/1;
 2/12=2,15=1,17=6,18=5,40=1/2;
 3/5=1,6=6,7=1,11=9,16=1,24=110,25=1,30=1/1,2,3;
 4//1;
 5/5=2,6=6,38=5/2;
 6/7=2,8=2,9=2,10=2,15=8,20=3,28=1,33=2/1,2;
 99/5=1,9=1/99;
 Leave Link    1 at Fri Apr 28 14:10:10 2017, MaxMem=   33554432 cpu:       6.8
 (Enter /scratch/michal/g09/l101.exe)
 ----------------------------------------------
 MEP - Input generated by R.E.D.-III.x MOLECULE
 ----------------------------------------------
 Charge =  0 Multiplicity = 1
 Symbolic Z-Matrix:
 C                     7.51574   2.21795   0.07342 
 H                     7.35132   2.18885   1.15752 
 C                     6.82247   1.00878  -0.5703 
 H                     7.20516   0.08331  -0.12851 
 H                     7.106     0.99196  -1.63527 
 C                     5.31132   1.06299  -0.45175 
 C                     4.616     2.36055  -0.87858 
 C                     5.40854   3.56645  -0.28415 
 H                     5.20839   3.61156   0.79543 
 H                     5.02375   4.49903  -0.70957 
 C                     6.93023   3.5124   -0.48864 
 H                     7.17789   3.58262  -1.55831 
 H                     7.40368   4.37154   0. 
 C                     4.6322    0.        0. 
 H                     5.17625  -0.89047   0.31684 
 C                     3.13895  -0.10072   0.10608 
 H                     2.85389  -0.19726   1.16641 
 C                     2.37456   1.06887  -0.53254 
 H                     2.31602   0.858    -1.60587 
 C                     3.1559    2.3929   -0.30568 
 H                     3.27138   2.49329   0.78642 
 C                     2.33932   3.61692  -0.77876 
 H                     2.28967   3.62802  -1.873 
 H                     2.85693   4.53833  -0.49025 
 C                     0.90492   3.67117  -0.21805 
 H                     0.94464   3.8114    0.87196 
 H                     0.40694   4.55589  -0.62658 
 C                     0.11851   2.38014  -0.52096 
 C                     0.95736   1.20114   0.05284 
 H                     1.09721   1.44342   1.12133 
 C                     0.        0.        0. 
 H                     0.27615  -0.7879    0.70537 
 H                     0.01352  -0.46151  -0.99264 
 C                    -1.38531   0.62361   0.31879 
 H                    -2.13661   0.29894  -0.41118 
 H                    -1.74752   0.29729   1.29847 
 C                    -1.21846   2.18093   0.27559 
 H                    -1.01617   2.52998   1.30102 
 C                    -0.13461   2.23563  -2.03943 
 H                     0.79358   2.15969  -2.61138 
 H                    -0.72788   1.34659  -2.27186 
 H                    -0.6813    3.10269  -2.42436 
 C                    -2.50617   2.90646  -0.19488 
 H                    -2.76362   2.51757  -1.19189 
 C                    -2.33782   4.43263  -0.30641 
 H                    -1.96145   4.85349   0.63439 
 H                    -3.29108   4.92197  -0.52824 
 H                    -1.64341   4.71669  -1.10043 
 C                     4.63035   2.4384   -2.42857 
 H                     4.27398   3.41125  -2.78098 
 H                     5.63959   2.30207  -2.82679 
 H                     4.00142   1.6592   -2.86872 
 O                     2.68662  -1.39253  -0.37376 
 O                     2.93619  -1.48393  -1.80754 
 H                     3.73127  -2.04156  -1.82195 
 O                     8.93729   2.15043  -0.0664 
 H                     9.15928   2.20325  -1.00668 
 C                    -3.69069   2.56984   0.74764 
 H                    -3.66286   1.50481   0.99642 
 H                    -3.54769   3.10778   1.69793 
 C                    -5.08181   2.89899   0.18134 
 H                    -5.12172   3.95134  -0.12477 
 H                    -5.24205   2.31614  -0.73591 
 C                    -6.24217   2.66007   1.16575 
 H                    -7.17453   3.01208   0.69959 
 H                    -6.0864    3.29776   2.04804 
 C                    -6.46529   1.21028   1.64688 
 H                    -5.54236   0.86078   2.13126 
 C                    -7.58147   1.16934   2.70301 
 H                    -8.5359    1.50425   2.27658 
 H                    -7.72831   0.15384   3.08828 
 H                    -7.35073   1.82087   3.55375 
 C                    -6.78347   0.25048   0.48951 
 H                    -7.68867   0.57005  -0.04326 
 H                    -6.95843  -0.76576   0.86068 
 H                    -5.96889   0.19804  -0.24007 
 
 NAtoms=     76 NQM=        0 NQMF=       0 NMMI=     76 NMMIF=      0
                NMic=       0 NMicF=      0.
                    Isotopes and Nuclear Properties:
 (Nuclear quadrupole moments (NQMom) in fm**2, nuclear magnetic moments (NMagM)
  in nuclear magnetons)

  Atom         1           2           3           4           5           6           7           8           9          10
 IAtWgt=          12           1          12           1           1          12          12          12           1           1
 AtmWgt=  12.0000000   1.0078250  12.0000000   1.0078250   1.0078250  12.0000000  12.0000000  12.0000000   1.0078250   1.0078250
 NucSpn=           0           1           0           1           1           0           0           0           1           1
 AtZEff=   0.0000000   0.0000000   0.0000000   0.0000000   0.0000000   0.0000000   0.0000000   0.0000000   0.0000000   0.0000000
 NQMom=    0.0000000   0.0000000   0.0000000   0.0000000   0.0000000   0.0000000   0.0000000   0.0000000   0.0000000   0.0000000
 NMagM=    0.0000000   2.7928460   0.0000000   2.7928460   2.7928460   0.0000000   0.0000000   0.0000000   2.7928460   2.7928460

  Atom        11          12          13          14          15          16          17          18          19          20
 IAtWgt=          12           1           1          12           1          12           1          12           1          12
 AtmWgt=  12.0000000   1.0078250   1.0078250  12.0000000   1.0078250  12.0000000   1.0078250  12.0000000   1.0078250  12.0000000
 NucSpn=           0           1           1           0           1           0           1           0           1           0
 AtZEff=   0.0000000   0.0000000   0.0000000   0.0000000   0.0000000   0.0000000   0.0000000   0.0000000   0.0000000   0.0000000
 NQMom=    0.0000000   0.0000000   0.0000000   0.0000000   0.0000000   0.0000000   0.0000000   0.0000000   0.0000000   0.0000000
 NMagM=    0.0000000   2.7928460   2.7928460   0.0000000   2.7928460   0.0000000   2.7928460   0.0000000   2.7928460   0.0000000

  Atom        21          22          23          24          25          26          27          28          29          30
 IAtWgt=           1          12           1           1          12           1           1          12          12           1
 AtmWgt=   1.0078250  12.0000000   1.0078250   1.0078250  12.0000000   1.0078250   1.0078250  12.0000000  12.0000000   1.0078250
 NucSpn=           1           0           1           1           0           1           1           0           0           1
 AtZEff=   0.0000000   0.0000000   0.0000000   0.0000000   0.0000000   0.0000000   0.0000000   0.0000000   0.0000000   0.0000000
 NQMom=    0.0000000   0.0000000   0.0000000   0.0000000   0.0000000   0.0000000   0.0000000   0.0000000   0.0000000   0.0000000
 NMagM=    2.7928460   0.0000000   2.7928460   2.7928460   0.0000000   2.7928460   2.7928460   0.0000000   0.0000000   2.7928460

  Atom        31          32          33          34          35          36          37          38          39          40
 IAtWgt=          12           1           1          12           1           1          12           1          12           1
 AtmWgt=  12.0000000   1.0078250   1.0078250  12.0000000   1.0078250   1.0078250  12.0000000   1.0078250  12.0000000   1.0078250
 NucSpn=           0           1           1           0           1           1           0           1           0           1
 AtZEff=   0.0000000   0.0000000   0.0000000   0.0000000   0.0000000   0.0000000   0.0000000   0.0000000   0.0000000   0.0000000
 NQMom=    0.0000000   0.0000000   0.0000000   0.0000000   0.0000000   0.0000000   0.0000000   0.0000000   0.0000000   0.0000000
 NMagM=    0.0000000   2.7928460   2.7928460   0.0000000   2.7928460   2.7928460   0.0000000   2.7928460   0.0000000   2.7928460

  Atom        41          42          43          44          45          46          47          48          49          50
 IAtWgt=           1           1          12           1          12           1           1           1          12           1
 AtmWgt=   1.0078250   1.0078250  12.0000000   1.0078250  12.0000000   1.0078250   1.0078250   1.0078250  12.0000000   1.0078250
 NucSpn=           1           1           0           1           0           1           1           1           0           1
 AtZEff=   0.0000000   0.0000000   0.0000000   0.0000000   0.0000000   0.0000000   0.0000000   0.0000000   0.0000000   0.0000000
 NQMom=    0.0000000   0.0000000   0.0000000   0.0000000   0.0000000   0.0000000   0.0000000   0.0000000   0.0000000   0.0000000
 NMagM=    2.7928460   2.7928460   0.0000000   2.7928460   0.0000000   2.7928460   2.7928460   2.7928460   0.0000000   2.7928460

  Atom        51          52          53          54          55          56          57          58          59          60
 IAtWgt=           1           1          16          16           1          16           1          12           1           1
 AtmWgt=   1.0078250   1.0078250  15.9949146  15.9949146   1.0078250  15.9949146   1.0078250  12.0000000   1.0078250   1.0078250
 NucSpn=           1           1           0           0           1           0           1           0           1           1
 AtZEff=   0.0000000   0.0000000   0.0000000   0.0000000   0.0000000   0.0000000   0.0000000   0.0000000   0.0000000   0.0000000
 NQMom=    0.0000000   0.0000000   0.0000000   0.0000000   0.0000000   0.0000000   0.0000000   0.0000000   0.0000000   0.0000000
 NMagM=    2.7928460   2.7928460   0.0000000   0.0000000   2.7928460   0.0000000   2.7928460   0.0000000   2.7928460   2.7928460

  Atom        61          62          63          64          65          66          67          68          69          70
 IAtWgt=          12           1           1          12           1           1          12           1          12           1
 AtmWgt=  12.0000000   1.0078250   1.0078250  12.0000000   1.0078250   1.0078250  12.0000000   1.0078250  12.0000000   1.0078250
 NucSpn=           0           1           1           0           1           1           0           1           0           1
 AtZEff=   0.0000000   0.0000000   0.0000000   0.0000000   0.0000000   0.0000000   0.0000000   0.0000000   0.0000000   0.0000000
 NQMom=    0.0000000   0.0000000   0.0000000   0.0000000   0.0000000   0.0000000   0.0000000   0.0000000   0.0000000   0.0000000
 NMagM=    0.0000000   2.7928460   2.7928460   0.0000000   2.7928460   2.7928460   0.0000000   2.7928460   0.0000000   2.7928460

  Atom        71          72          73          74          75          76
 IAtWgt=           1           1          12           1           1           1
 AtmWgt=   1.0078250   1.0078250  12.0000000   1.0078250   1.0078250   1.0078250
 NucSpn=           1           1           0           1           1           1
 AtZEff=   0.0000000   0.0000000   0.0000000   0.0000000   0.0000000   0.0000000
 NQMom=    0.0000000   0.0000000   0.0000000   0.0000000   0.0000000   0.0000000
 NMagM=    2.7928460   2.7928460   0.0000000   2.7928460   2.7928460   2.7928460
 Leave Link  101 at Fri Apr 28 14:10:10 2017, MaxMem=   33554432 cpu:      13.7
 (Enter /scratch/michal/g09/l202.exe)
 Symmetry turned off by external request.
 Stoichiometry    C27H46O3
 Framework group  C1[X(C27H46O3)]
 Deg. of freedom   222
 Full point group                 C1      NOp   1
                          Input orientation:                          
 ---------------------------------------------------------------------
 Center     Atomic      Atomic             Coordinates (Angstroms)
 Number     Number       Type             X           Y           Z
 ---------------------------------------------------------------------
      1          6           0        7.515743    2.217948    0.073423
      2          1           0        7.351319    2.188853    1.157516
      3          6           0        6.822474    1.008779   -0.570296
      4          1           0        7.205162    0.083312   -0.128506
      5          1           0        7.106002    0.991965   -1.635268
      6          6           0        5.311317    1.062985   -0.451747
      7          6           0        4.616005    2.360546   -0.878585
      8          6           0        5.408537    3.566447   -0.284155
      9          1           0        5.208385    3.611563    0.795429
     10          1           0        5.023751    4.499033   -0.709575
     11          6           0        6.930226    3.512396   -0.488636
     12          1           0        7.177891    3.582618   -1.558307
     13          1           0        7.403681    4.371539    0.000000
     14          6           0        4.632200    0.000000    0.000000
     15          1           0        5.176245   -0.890465    0.316835
     16          6           0        3.138954   -0.100722    0.106084
     17          1           0        2.853894   -0.197258    1.166413
     18          6           0        2.374564    1.068869   -0.532545
     19          1           0        2.316024    0.857999   -1.605875
     20          6           0        3.155905    2.392901   -0.305685
     21          1           0        3.271381    2.493285    0.786417
     22          6           0        2.339321    3.616921   -0.778761
     23          1           0        2.289666    3.628021   -1.873004
     24          1           0        2.856934    4.538330   -0.490253
     25          6           0        0.904920    3.671166   -0.218047
     26          1           0        0.944642    3.811405    0.871964
     27          1           0        0.406937    4.555890   -0.626578
     28          6           0        0.118507    2.380136   -0.520959
     29          6           0        0.957358    1.201137    0.052836
     30          1           0        1.097208    1.443419    1.121329
     31          6           0        0.000000    0.000000    0.000000
     32          1           0        0.276145   -0.787895    0.705369
     33          1           0        0.013521   -0.461506   -0.992638
     34          6           0       -1.385307    0.623614    0.318794
     35          1           0       -2.136606    0.298938   -0.411175
     36          1           0       -1.747515    0.297289    1.298470
     37          6           0       -1.218460    2.180926    0.275585
     38          1           0       -1.016170    2.529976    1.301025
     39          6           0       -0.134612    2.235631   -2.039434
     40          1           0        0.793581    2.159691   -2.611376
     41          1           0       -0.727883    1.346594   -2.271864
     42          1           0       -0.681302    3.102688   -2.424361
     43          6           0       -2.506174    2.906460   -0.194879
     44          1           0       -2.763618    2.517573   -1.191892
     45          6           0       -2.337823    4.432627   -0.306413
     46          1           0       -1.961447    4.853492    0.634392
     47          1           0       -3.291079    4.921969   -0.528238
     48          1           0       -1.643411    4.716688   -1.100426
     49          6           0        4.630349    2.438396   -2.428566
     50          1           0        4.273985    3.411254   -2.780981
     51          1           0        5.639587    2.302072   -2.826785
     52          1           0        4.001420    1.659196   -2.868715
     53          8           0        2.686623   -1.392533   -0.373765
     54          8           0        2.936188   -1.483931   -1.807544
     55          1           0        3.731271   -2.041564   -1.821952
     56          8           0        8.937288    2.150430   -0.066401
     57          1           0        9.159279    2.203252   -1.006681
     58          6           0       -3.690686    2.569842    0.747635
     59          1           0       -3.662855    1.504808    0.996423
     60          1           0       -3.547688    3.107782    1.697932
     61          6           0       -5.081805    2.898989    0.181345
     62          1           0       -5.121717    3.951342   -0.124768
     63          1           0       -5.242052    2.316137   -0.735912
     64          6           0       -6.242171    2.660070    1.165749
     65          1           0       -7.174532    3.012078    0.699589
     66          1           0       -6.086397    3.297764    2.048039
     67          6           0       -6.465287    1.210283    1.646879
     68          1           0       -5.542361    0.860782    2.131256
     69          6           0       -7.581469    1.169339    2.703012
     70          1           0       -8.535895    1.504248    2.276578
     71          1           0       -7.728313    0.153836    3.088278
     72          1           0       -7.350725    1.820873    3.553749
     73          6           0       -6.783474    0.250476    0.489515
     74          1           0       -7.688670    0.570052   -0.043257
     75          1           0       -6.958427   -0.765758    0.860681
     76          1           0       -5.968895    0.198038   -0.240065
 ---------------------------------------------------------------------
 Rotational constants (GHZ):      0.3858676      0.0547522      0.0510286
 Leave Link  202 at Fri Apr 28 14:10:10 2017, MaxMem=   33554432 cpu:       0.1
 (Enter /scratch/michal/g09/l301.exe)
 Standard basis: 6-31G(d) (6D, 7F)
 Ernie: Thresh=  0.10000D-02 Tol=  0.10000D-05 Strict=F.
 AO basis set in the form of general basis input (Overlap normalization):
      1 0
 S   6 1.00       0.000000000000
      0.3047524880D+04  0.1834737132D-02
      0.4573695180D+03  0.1403732281D-01
      0.1039486850D+03  0.6884262226D-01
      0.2921015530D+02  0.2321844432D+00
      0.9286662960D+01  0.4679413484D+00
      0.3163926960D+01  0.3623119853D+00
 SP   3 1.00       0.000000000000
      0.7868272350D+01 -0.1193324198D+00  0.6899906659D-01
      0.1881288540D+01 -0.1608541517D+00  0.3164239610D+00
      0.5442492580D+00  0.1143456438D+01  0.7443082909D+00
 SP   1 1.00       0.000000000000
      0.1687144782D+00  0.1000000000D+01  0.1000000000D+01
 D   1 1.00       0.000000000000
      0.8000000000D+00  0.1000000000D+01
 ****
      2 0
 S   3 1.00       0.000000000000
      0.1873113696D+02  0.3349460434D-01
      0.2825394365D+01  0.2347269535D+00
      0.6401216923D+00  0.8137573261D+00
 S   1 1.00       0.000000000000
      0.1612777588D+00  0.1000000000D+01
 ****
      3 0
 S   6 1.00       0.000000000000
      0.3047524880D+04  0.1834737132D-02
      0.4573695180D+03  0.1403732281D-01
      0.1039486850D+03  0.6884262226D-01
      0.2921015530D+02  0.2321844432D+00
      0.9286662960D+01  0.4679413484D+00
      0.3163926960D+01  0.3623119853D+00
 SP   3 1.00       0.000000000000
      0.7868272350D+01 -0.1193324198D+00  0.6899906659D-01
      0.1881288540D+01 -0.1608541517D+00  0.3164239610D+00
      0.5442492580D+00  0.1143456438D+01  0.7443082909D+00
 SP   1 1.00       0.000000000000
      0.1687144782D+00  0.1000000000D+01  0.1000000000D+01
 D   1 1.00       0.000000000000
      0.8000000000D+00  0.1000000000D+01
 ****
      4 0
 S   3 1.00       0.000000000000
      0.1873113696D+02  0.3349460434D-01
      0.2825394365D+01  0.2347269535D+00
      0.6401216923D+00  0.8137573261D+00
 S   1 1.00       0.000000000000
      0.1612777588D+00  0.1000000000D+01
 ****
      5 0
 S   3 1.00       0.000000000000
      0.1873113696D+02  0.3349460434D-01
      0.2825394365D+01  0.2347269535D+00
      0.6401216923D+00  0.8137573261D+00
 S   1 1.00       0.000000000000
      0.1612777588D+00  0.1000000000D+01
 ****
      6 0
 S   6 1.00       0.000000000000
      0.3047524880D+04  0.1834737132D-02
      0.4573695180D+03  0.1403732281D-01
      0.1039486850D+03  0.6884262226D-01
      0.2921015530D+02  0.2321844432D+00
      0.9286662960D+01  0.4679413484D+00
      0.3163926960D+01  0.3623119853D+00
 SP   3 1.00       0.000000000000
      0.7868272350D+01 -0.1193324198D+00  0.6899906659D-01
      0.1881288540D+01 -0.1608541517D+00  0.3164239610D+00
      0.5442492580D+00  0.1143456438D+01  0.7443082909D+00
 SP   1 1.00       0.000000000000
      0.1687144782D+00  0.1000000000D+01  0.1000000000D+01
 D   1 1.00       0.000000000000
      0.8000000000D+00  0.1000000000D+01
 ****
      7 0
 S   6 1.00       0.000000000000
      0.3047524880D+04  0.1834737132D-02
      0.4573695180D+03  0.1403732281D-01
      0.1039486850D+03  0.6884262226D-01
      0.2921015530D+02  0.2321844432D+00
      0.9286662960D+01  0.4679413484D+00
      0.3163926960D+01  0.3623119853D+00
 SP   3 1.00       0.000000000000
      0.7868272350D+01 -0.1193324198D+00  0.6899906659D-01
      0.1881288540D+01 -0.1608541517D+00  0.3164239610D+00
      0.5442492580D+00  0.1143456438D+01  0.7443082909D+00
 SP   1 1.00       0.000000000000
      0.1687144782D+00  0.1000000000D+01  0.1000000000D+01
 D   1 1.00       0.000000000000
      0.8000000000D+00  0.1000000000D+01
 ****
      8 0
 S   6 1.00       0.000000000000
      0.3047524880D+04  0.1834737132D-02
      0.4573695180D+03  0.1403732281D-01
      0.1039486850D+03  0.6884262226D-01
      0.2921015530D+02  0.2321844432D+00
      0.9286662960D+01  0.4679413484D+00
      0.3163926960D+01  0.3623119853D+00
 SP   3 1.00       0.000000000000
      0.7868272350D+01 -0.1193324198D+00  0.6899906659D-01
      0.1881288540D+01 -0.1608541517D+00  0.3164239610D+00
      0.5442492580D+00  0.1143456438D+01  0.7443082909D+00
 SP   1 1.00       0.000000000000
      0.1687144782D+00  0.1000000000D+01  0.1000000000D+01
 D   1 1.00       0.000000000000
      0.8000000000D+00  0.1000000000D+01
 ****
      9 0
 S   3 1.00       0.000000000000
      0.1873113696D+02  0.3349460434D-01
      0.2825394365D+01  0.2347269535D+00
      0.6401216923D+00  0.8137573261D+00
 S   1 1.00       0.000000000000
      0.1612777588D+00  0.1000000000D+01
 ****
     10 0
 S   3 1.00       0.000000000000
      0.1873113696D+02  0.3349460434D-01
      0.2825394365D+01  0.2347269535D+00
      0.6401216923D+00  0.8137573261D+00
 S   1 1.00       0.000000000000
      0.1612777588D+00  0.1000000000D+01
 ****
     11 0
 S   6 1.00       0.000000000000
      0.3047524880D+04  0.1834737132D-02
      0.4573695180D+03  0.1403732281D-01
      0.1039486850D+03  0.6884262226D-01
      0.2921015530D+02  0.2321844432D+00
      0.9286662960D+01  0.4679413484D+00
      0.3163926960D+01  0.3623119853D+00
 SP   3 1.00       0.000000000000
      0.7868272350D+01 -0.1193324198D+00  0.6899906659D-01
      0.1881288540D+01 -0.1608541517D+00  0.3164239610D+00
      0.5442492580D+00  0.1143456438D+01  0.7443082909D+00
 SP   1 1.00       0.000000000000
      0.1687144782D+00  0.1000000000D+01  0.1000000000D+01
 D   1 1.00       0.000000000000
      0.8000000000D+00  0.1000000000D+01
 ****
     12 0
 S   3 1.00       0.000000000000
      0.1873113696D+02  0.3349460434D-01
      0.2825394365D+01  0.2347269535D+00
      0.6401216923D+00  0.8137573261D+00
 S   1 1.00       0.000000000000
      0.1612777588D+00  0.1000000000D+01
 ****
     13 0
 S   3 1.00       0.000000000000
      0.1873113696D+02  0.3349460434D-01
      0.2825394365D+01  0.2347269535D+00
      0.6401216923D+00  0.8137573261D+00
 S   1 1.00       0.000000000000
      0.1612777588D+00  0.1000000000D+01
 ****
     14 0
 S   6 1.00       0.000000000000
      0.3047524880D+04  0.1834737132D-02
      0.4573695180D+03  0.1403732281D-01
      0.1039486850D+03  0.6884262226D-01
      0.2921015530D+02  0.2321844432D+00
      0.9286662960D+01  0.4679413484D+00
      0.3163926960D+01  0.3623119853D+00
 SP   3 1.00       0.000000000000
      0.7868272350D+01 -0.1193324198D+00  0.6899906659D-01
      0.1881288540D+01 -0.1608541517D+00  0.3164239610D+00
      0.5442492580D+00  0.1143456438D+01  0.7443082909D+00
 SP   1 1.00       0.000000000000
      0.1687144782D+00  0.1000000000D+01  0.1000000000D+01
 D   1 1.00       0.000000000000
      0.8000000000D+00  0.1000000000D+01
 ****
     15 0
 S   3 1.00       0.000000000000
      0.1873113696D+02  0.3349460434D-01
      0.2825394365D+01  0.2347269535D+00
      0.6401216923D+00  0.8137573261D+00
 S   1 1.00       0.000000000000
      0.1612777588D+00  0.1000000000D+01
 ****
     16 0
 S   6 1.00       0.000000000000
      0.3047524880D+04  0.1834737132D-02
      0.4573695180D+03  0.1403732281D-01
      0.1039486850D+03  0.6884262226D-01
      0.2921015530D+02  0.2321844432D+00
      0.9286662960D+01  0.4679413484D+00
      0.3163926960D+01  0.3623119853D+00
 SP   3 1.00       0.000000000000
      0.7868272350D+01 -0.1193324198D+00  0.6899906659D-01
      0.1881288540D+01 -0.1608541517D+00  0.3164239610D+00
      0.5442492580D+00  0.1143456438D+01  0.7443082909D+00
 SP   1 1.00       0.000000000000
      0.1687144782D+00  0.1000000000D+01  0.1000000000D+01
 D   1 1.00       0.000000000000
      0.8000000000D+00  0.1000000000D+01
 ****
     17 0
 S   3 1.00       0.000000000000
      0.1873113696D+02  0.3349460434D-01
      0.2825394365D+01  0.2347269535D+00
      0.6401216923D+00  0.8137573261D+00
 S   1 1.00       0.000000000000
      0.1612777588D+00  0.1000000000D+01
 ****
     18 0
 S   6 1.00       0.000000000000
      0.3047524880D+04  0.1834737132D-02
      0.4573695180D+03  0.1403732281D-01
      0.1039486850D+03  0.6884262226D-01
      0.2921015530D+02  0.2321844432D+00
      0.9286662960D+01  0.4679413484D+00
      0.3163926960D+01  0.3623119853D+00
 SP   3 1.00       0.000000000000
      0.7868272350D+01 -0.1193324198D+00  0.6899906659D-01
      0.1881288540D+01 -0.1608541517D+00  0.3164239610D+00
      0.5442492580D+00  0.1143456438D+01  0.7443082909D+00
 SP   1 1.00       0.000000000000
      0.1687144782D+00  0.1000000000D+01  0.1000000000D+01
 D   1 1.00       0.000000000000
      0.8000000000D+00  0.1000000000D+01
 ****
     19 0
 S   3 1.00       0.000000000000
      0.1873113696D+02  0.3349460434D-01
      0.2825394365D+01  0.2347269535D+00
      0.6401216923D+00  0.8137573261D+00
 S   1 1.00       0.000000000000
      0.1612777588D+00  0.1000000000D+01
 ****
     20 0
 S   6 1.00       0.000000000000
      0.3047524880D+04  0.1834737132D-02
      0.4573695180D+03  0.1403732281D-01
      0.1039486850D+03  0.6884262226D-01
      0.2921015530D+02  0.2321844432D+00
      0.9286662960D+01  0.4679413484D+00
      0.3163926960D+01  0.3623119853D+00
 SP   3 1.00       0.000000000000
      0.7868272350D+01 -0.1193324198D+00  0.6899906659D-01
      0.1881288540D+01 -0.1608541517D+00  0.3164239610D+00
      0.5442492580D+00  0.1143456438D+01  0.7443082909D+00
 SP   1 1.00       0.000000000000
      0.1687144782D+00  0.1000000000D+01  0.1000000000D+01
 D   1 1.00       0.000000000000
      0.8000000000D+00  0.1000000000D+01
 ****
     21 0
 S   3 1.00       0.000000000000
      0.1873113696D+02  0.3349460434D-01
      0.2825394365D+01  0.2347269535D+00
      0.6401216923D+00  0.8137573261D+00
 S   1 1.00       0.000000000000
      0.1612777588D+00  0.1000000000D+01
 ****
     22 0
 S   6 1.00       0.000000000000
      0.3047524880D+04  0.1834737132D-02
      0.4573695180D+03  0.1403732281D-01
      0.1039486850D+03  0.6884262226D-01
      0.2921015530D+02  0.2321844432D+00
      0.9286662960D+01  0.4679413484D+00
      0.3163926960D+01  0.3623119853D+00
 SP   3 1.00       0.000000000000
      0.7868272350D+01 -0.1193324198D+00  0.6899906659D-01
      0.1881288540D+01 -0.1608541517D+00  0.3164239610D+00
      0.5442492580D+00  0.1143456438D+01  0.7443082909D+00
 SP   1 1.00       0.000000000000
      0.1687144782D+00  0.1000000000D+01  0.1000000000D+01
 D   1 1.00       0.000000000000
      0.8000000000D+00  0.1000000000D+01
 ****
     23 0
 S   3 1.00       0.000000000000
      0.1873113696D+02  0.3349460434D-01
      0.2825394365D+01  0.2347269535D+00
      0.6401216923D+00  0.8137573261D+00
 S   1 1.00       0.000000000000
      0.1612777588D+00  0.1000000000D+01
 ****
     24 0
 S   3 1.00       0.000000000000
      0.1873113696D+02  0.3349460434D-01
      0.2825394365D+01  0.2347269535D+00
      0.6401216923D+00  0.8137573261D+00
 S   1 1.00       0.000000000000
      0.1612777588D+00  0.1000000000D+01
 ****
     25 0
 S   6 1.00       0.000000000000
      0.3047524880D+04  0.1834737132D-02
      0.4573695180D+03  0.1403732281D-01
      0.1039486850D+03  0.6884262226D-01
      0.2921015530D+02  0.2321844432D+00
      0.9286662960D+01  0.4679413484D+00
      0.3163926960D+01  0.3623119853D+00
 SP   3 1.00       0.000000000000
      0.7868272350D+01 -0.1193324198D+00  0.6899906659D-01
      0.1881288540D+01 -0.1608541517D+00  0.3164239610D+00
      0.5442492580D+00  0.1143456438D+01  0.7443082909D+00
 SP   1 1.00       0.000000000000
      0.1687144782D+00  0.1000000000D+01  0.1000000000D+01
 D   1 1.00       0.000000000000
      0.8000000000D+00  0.1000000000D+01
 ****
     26 0
 S   3 1.00       0.000000000000
      0.1873113696D+02  0.3349460434D-01
      0.2825394365D+01  0.2347269535D+00
      0.6401216923D+00  0.8137573261D+00
 S   1 1.00       0.000000000000
      0.1612777588D+00  0.1000000000D+01
 ****
     27 0
 S   3 1.00       0.000000000000
      0.1873113696D+02  0.3349460434D-01
      0.2825394365D+01  0.2347269535D+00
      0.6401216923D+00  0.8137573261D+00
 S   1 1.00       0.000000000000
      0.1612777588D+00  0.1000000000D+01
 ****
     28 0
 S   6 1.00       0.000000000000
      0.3047524880D+04  0.1834737132D-02
      0.4573695180D+03  0.1403732281D-01
      0.1039486850D+03  0.6884262226D-01
      0.2921015530D+02  0.2321844432D+00
      0.9286662960D+01  0.4679413484D+00
      0.3163926960D+01  0.3623119853D+00
 SP   3 1.00       0.000000000000
      0.7868272350D+01 -0.1193324198D+00  0.6899906659D-01
      0.1881288540D+01 -0.1608541517D+00  0.3164239610D+00
      0.5442492580D+00  0.1143456438D+01  0.7443082909D+00
 SP   1 1.00       0.000000000000
      0.1687144782D+00  0.1000000000D+01  0.1000000000D+01
 D   1 1.00       0.000000000000
      0.8000000000D+00  0.1000000000D+01
 ****
     29 0
 S   6 1.00       0.000000000000
      0.3047524880D+04  0.1834737132D-02
      0.4573695180D+03  0.1403732281D-01
      0.1039486850D+03  0.6884262226D-01
      0.2921015530D+02  0.2321844432D+00
      0.9286662960D+01  0.4679413484D+00
      0.3163926960D+01  0.3623119853D+00
 SP   3 1.00       0.000000000000
      0.7868272350D+01 -0.1193324198D+00  0.6899906659D-01
      0.1881288540D+01 -0.1608541517D+00  0.3164239610D+00
      0.5442492580D+00  0.1143456438D+01  0.7443082909D+00
 SP   1 1.00       0.000000000000
      0.1687144782D+00  0.1000000000D+01  0.1000000000D+01
 D   1 1.00       0.000000000000
      0.8000000000D+00  0.1000000000D+01
 ****
     30 0
 S   3 1.00       0.000000000000
      0.1873113696D+02  0.3349460434D-01
      0.2825394365D+01  0.2347269535D+00
      0.6401216923D+00  0.8137573261D+00
 S   1 1.00       0.000000000000
      0.1612777588D+00  0.1000000000D+01
 ****
     31 0
 S   6 1.00       0.000000000000
      0.3047524880D+04  0.1834737132D-02
      0.4573695180D+03  0.1403732281D-01
      0.1039486850D+03  0.6884262226D-01
      0.2921015530D+02  0.2321844432D+00
      0.9286662960D+01  0.4679413484D+00
      0.3163926960D+01  0.3623119853D+00
 SP   3 1.00       0.000000000000
      0.7868272350D+01 -0.1193324198D+00  0.6899906659D-01
      0.1881288540D+01 -0.1608541517D+00  0.3164239610D+00
      0.5442492580D+00  0.1143456438D+01  0.7443082909D+00
 SP   1 1.00       0.000000000000
      0.1687144782D+00  0.1000000000D+01  0.1000000000D+01
 D   1 1.00       0.000000000000
      0.8000000000D+00  0.1000000000D+01
 ****
     32 0
 S   3 1.00       0.000000000000
      0.1873113696D+02  0.3349460434D-01
      0.2825394365D+01  0.2347269535D+00
      0.6401216923D+00  0.8137573261D+00
 S   1 1.00       0.000000000000
      0.1612777588D+00  0.1000000000D+01
 ****
     33 0
 S   3 1.00       0.000000000000
      0.1873113696D+02  0.3349460434D-01
      0.2825394365D+01  0.2347269535D+00
      0.6401216923D+00  0.8137573261D+00
 S   1 1.00       0.000000000000
      0.1612777588D+00  0.1000000000D+01
 ****
     34 0
 S   6 1.00       0.000000000000
      0.3047524880D+04  0.1834737132D-02
      0.4573695180D+03  0.1403732281D-01
      0.1039486850D+03  0.6884262226D-01
      0.2921015530D+02  0.2321844432D+00
      0.9286662960D+01  0.4679413484D+00
      0.3163926960D+01  0.3623119853D+00
 SP   3 1.00       0.000000000000
      0.7868272350D+01 -0.1193324198D+00  0.6899906659D-01
      0.1881288540D+01 -0.1608541517D+00  0.3164239610D+00
      0.5442492580D+00  0.1143456438D+01  0.7443082909D+00
 SP   1 1.00       0.000000000000
      0.1687144782D+00  0.1000000000D+01  0.1000000000D+01
 D   1 1.00       0.000000000000
      0.8000000000D+00  0.1000000000D+01
 ****
     35 0
 S   3 1.00       0.000000000000
      0.1873113696D+02  0.3349460434D-01
      0.2825394365D+01  0.2347269535D+00
      0.6401216923D+00  0.8137573261D+00
 S   1 1.00       0.000000000000
      0.1612777588D+00  0.1000000000D+01
 ****
     36 0
 S   3 1.00       0.000000000000
      0.1873113696D+02  0.3349460434D-01
      0.2825394365D+01  0.2347269535D+00
      0.6401216923D+00  0.8137573261D+00
 S   1 1.00       0.000000000000
      0.1612777588D+00  0.1000000000D+01
 ****
     37 0
 S   6 1.00       0.000000000000
      0.3047524880D+04  0.1834737132D-02
      0.4573695180D+03  0.1403732281D-01
      0.1039486850D+03  0.6884262226D-01
      0.2921015530D+02  0.2321844432D+00
      0.9286662960D+01  0.4679413484D+00
      0.3163926960D+01  0.3623119853D+00
 SP   3 1.00       0.000000000000
      0.7868272350D+01 -0.1193324198D+00  0.6899906659D-01
      0.1881288540D+01 -0.1608541517D+00  0.3164239610D+00
      0.5442492580D+00  0.1143456438D+01  0.7443082909D+00
 SP   1 1.00       0.000000000000
      0.1687144782D+00  0.1000000000D+01  0.1000000000D+01
 D   1 1.00       0.000000000000
      0.8000000000D+00  0.1000000000D+01
 ****
     38 0
 S   3 1.00       0.000000000000
      0.1873113696D+02  0.3349460434D-01
      0.2825394365D+01  0.2347269535D+00
      0.6401216923D+00  0.8137573261D+00
 S   1 1.00       0.000000000000
      0.1612777588D+00  0.1000000000D+01
 ****
     39 0
 S   6 1.00       0.000000000000
      0.3047524880D+04  0.1834737132D-02
      0.4573695180D+03  0.1403732281D-01
      0.1039486850D+03  0.6884262226D-01
      0.2921015530D+02  0.2321844432D+00
      0.9286662960D+01  0.4679413484D+00
      0.3163926960D+01  0.3623119853D+00
 SP   3 1.00       0.000000000000
      0.7868272350D+01 -0.1193324198D+00  0.6899906659D-01
      0.1881288540D+01 -0.1608541517D+00  0.3164239610D+00
      0.5442492580D+00  0.1143456438D+01  0.7443082909D+00
 SP   1 1.00       0.000000000000
      0.1687144782D+00  0.1000000000D+01  0.1000000000D+01
 D   1 1.00       0.000000000000
      0.8000000000D+00  0.1000000000D+01
 ****
     40 0
 S   3 1.00       0.000000000000
      0.1873113696D+02  0.3349460434D-01
      0.2825394365D+01  0.2347269535D+00
      0.6401216923D+00  0.8137573261D+00
 S   1 1.00       0.000000000000
      0.1612777588D+00  0.1000000000D+01
 ****
     41 0
 S   3 1.00       0.000000000000
      0.1873113696D+02  0.3349460434D-01
      0.2825394365D+01  0.2347269535D+00
      0.6401216923D+00  0.8137573261D+00
 S   1 1.00       0.000000000000
      0.1612777588D+00  0.1000000000D+01
 ****
     42 0
 S   3 1.00       0.000000000000
      0.1873113696D+02  0.3349460434D-01
      0.2825394365D+01  0.2347269535D+00
      0.6401216923D+00  0.8137573261D+00
 S   1 1.00       0.000000000000
      0.1612777588D+00  0.1000000000D+01
 ****
     43 0
 S   6 1.00       0.000000000000
      0.3047524880D+04  0.1834737132D-02
      0.4573695180D+03  0.1403732281D-01
      0.1039486850D+03  0.6884262226D-01
      0.2921015530D+02  0.2321844432D+00
      0.9286662960D+01  0.4679413484D+00
      0.3163926960D+01  0.3623119853D+00
 SP   3 1.00       0.000000000000
      0.7868272350D+01 -0.1193324198D+00  0.6899906659D-01
      0.1881288540D+01 -0.1608541517D+00  0.3164239610D+00
      0.5442492580D+00  0.1143456438D+01  0.7443082909D+00
 SP   1 1.00       0.000000000000
      0.1687144782D+00  0.1000000000D+01  0.1000000000D+01
 D   1 1.00       0.000000000000
      0.8000000000D+00  0.1000000000D+01
 ****
     44 0
 S   3 1.00       0.000000000000
      0.1873113696D+02  0.3349460434D-01
      0.2825394365D+01  0.2347269535D+00
      0.6401216923D+00  0.8137573261D+00
 S   1 1.00       0.000000000000
      0.1612777588D+00  0.1000000000D+01
 ****
     45 0
 S   6 1.00       0.000000000000
      0.3047524880D+04  0.1834737132D-02
      0.4573695180D+03  0.1403732281D-01
      0.1039486850D+03  0.6884262226D-01
      0.2921015530D+02  0.2321844432D+00
      0.9286662960D+01  0.4679413484D+00
      0.3163926960D+01  0.3623119853D+00
 SP   3 1.00       0.000000000000
      0.7868272350D+01 -0.1193324198D+00  0.6899906659D-01
      0.1881288540D+01 -0.1608541517D+00  0.3164239610D+00
      0.5442492580D+00  0.1143456438D+01  0.7443082909D+00
 SP   1 1.00       0.000000000000
      0.1687144782D+00  0.1000000000D+01  0.1000000000D+01
 D   1 1.00       0.000000000000
      0.8000000000D+00  0.1000000000D+01
 ****
     46 0
 S   3 1.00       0.000000000000
      0.1873113696D+02  0.3349460434D-01
      0.2825394365D+01  0.2347269535D+00
      0.6401216923D+00  0.8137573261D+00
 S   1 1.00       0.000000000000
      0.1612777588D+00  0.1000000000D+01
 ****
     47 0
 S   3 1.00       0.000000000000
      0.1873113696D+02  0.3349460434D-01
      0.2825394365D+01  0.2347269535D+00
      0.6401216923D+00  0.8137573261D+00
 S   1 1.00       0.000000000000
      0.1612777588D+00  0.1000000000D+01
 ****
     48 0
 S   3 1.00       0.000000000000
      0.1873113696D+02  0.3349460434D-01
      0.2825394365D+01  0.2347269535D+00
      0.6401216923D+00  0.8137573261D+00
 S   1 1.00       0.000000000000
      0.1612777588D+00  0.1000000000D+01
 ****
     49 0
 S   6 1.00       0.000000000000
      0.3047524880D+04  0.1834737132D-02
      0.4573695180D+03  0.1403732281D-01
      0.1039486850D+03  0.6884262226D-01
      0.2921015530D+02  0.2321844432D+00
      0.9286662960D+01  0.4679413484D+00
      0.3163926960D+01  0.3623119853D+00
 SP   3 1.00       0.000000000000
      0.7868272350D+01 -0.1193324198D+00  0.6899906659D-01
      0.1881288540D+01 -0.1608541517D+00  0.3164239610D+00
      0.5442492580D+00  0.1143456438D+01  0.7443082909D+00
 SP   1 1.00       0.000000000000
      0.1687144782D+00  0.1000000000D+01  0.1000000000D+01
 D   1 1.00       0.000000000000
      0.8000000000D+00  0.1000000000D+01
 ****
     50 0
 S   3 1.00       0.000000000000
      0.1873113696D+02  0.3349460434D-01
      0.2825394365D+01  0.2347269535D+00
      0.6401216923D+00  0.8137573261D+00
 S   1 1.00       0.000000000000
      0.1612777588D+00  0.1000000000D+01
 ****
     51 0
 S   3 1.00       0.000000000000
      0.1873113696D+02  0.3349460434D-01
      0.2825394365D+01  0.2347269535D+00
      0.6401216923D+00  0.8137573261D+00
 S   1 1.00       0.000000000000
      0.1612777588D+00  0.1000000000D+01
 ****
     52 0
 S   3 1.00       0.000000000000
      0.1873113696D+02  0.3349460434D-01
      0.2825394365D+01  0.2347269535D+00
      0.6401216923D+00  0.8137573261D+00
 S   1 1.00       0.000000000000
      0.1612777588D+00  0.1000000000D+01
 ****
     53 0
 S   6 1.00       0.000000000000
      0.5484671660D+04  0.1831074430D-02
      0.8252349460D+03  0.1395017220D-01
      0.1880469580D+03  0.6844507810D-01
      0.5296450000D+02  0.2327143360D+00
      0.1689757040D+02  0.4701928980D+00
      0.5799635340D+01  0.3585208530D+00
 SP   3 1.00       0.000000000000
      0.1553961625D+02 -0.1107775495D+00  0.7087426823D-01
      0.3599933586D+01 -0.1480262627D+00  0.3397528391D+00
      0.1013761750D+01  0.1130767015D+01  0.7271585773D+00
 SP   1 1.00       0.000000000000
      0.2700058226D+00  0.1000000000D+01  0.1000000000D+01
 D   1 1.00       0.000000000000
      0.8000000000D+00  0.1000000000D+01
 ****
     54 0
 S   6 1.00       0.000000000000
      0.5484671660D+04  0.1831074430D-02
      0.8252349460D+03  0.1395017220D-01
      0.1880469580D+03  0.6844507810D-01
      0.5296450000D+02  0.2327143360D+00
      0.1689757040D+02  0.4701928980D+00
      0.5799635340D+01  0.3585208530D+00
 SP   3 1.00       0.000000000000
      0.1553961625D+02 -0.1107775495D+00  0.7087426823D-01
      0.3599933586D+01 -0.1480262627D+00  0.3397528391D+00
      0.1013761750D+01  0.1130767015D+01  0.7271585773D+00
 SP   1 1.00       0.000000000000
      0.2700058226D+00  0.1000000000D+01  0.1000000000D+01
 D   1 1.00       0.000000000000
      0.8000000000D+00  0.1000000000D+01
 ****
     55 0
 S   3 1.00       0.000000000000
      0.1873113696D+02  0.3349460434D-01
      0.2825394365D+01  0.2347269535D+00
      0.6401216923D+00  0.8137573261D+00
 S   1 1.00       0.000000000000
      0.1612777588D+00  0.1000000000D+01
 ****
     56 0
 S   6 1.00       0.000000000000
      0.5484671660D+04  0.1831074430D-02
      0.8252349460D+03  0.1395017220D-01
      0.1880469580D+03  0.6844507810D-01
      0.5296450000D+02  0.2327143360D+00
      0.1689757040D+02  0.4701928980D+00
      0.5799635340D+01  0.3585208530D+00
 SP   3 1.00       0.000000000000
      0.1553961625D+02 -0.1107775495D+00  0.7087426823D-01
      0.3599933586D+01 -0.1480262627D+00  0.3397528391D+00
      0.1013761750D+01  0.1130767015D+01  0.7271585773D+00
 SP   1 1.00       0.000000000000
      0.2700058226D+00  0.1000000000D+01  0.1000000000D+01
 D   1 1.00       0.000000000000
      0.8000000000D+00  0.1000000000D+01
 ****
     57 0
 S   3 1.00       0.000000000000
      0.1873113696D+02  0.3349460434D-01
      0.2825394365D+01  0.2347269535D+00
      0.6401216923D+00  0.8137573261D+00
 S   1 1.00       0.000000000000
      0.1612777588D+00  0.1000000000D+01
 ****
     58 0
 S   6 1.00       0.000000000000
      0.3047524880D+04  0.1834737132D-02
      0.4573695180D+03  0.1403732281D-01
      0.1039486850D+03  0.6884262226D-01
      0.2921015530D+02  0.2321844432D+00
      0.9286662960D+01  0.4679413484D+00
      0.3163926960D+01  0.3623119853D+00
 SP   3 1.00       0.000000000000
      0.7868272350D+01 -0.1193324198D+00  0.6899906659D-01
      0.1881288540D+01 -0.1608541517D+00  0.3164239610D+00
      0.5442492580D+00  0.1143456438D+01  0.7443082909D+00
 SP   1 1.00       0.000000000000
      0.1687144782D+00  0.1000000000D+01  0.1000000000D+01
 D   1 1.00       0.000000000000
      0.8000000000D+00  0.1000000000D+01
 ****
     59 0
 S   3 1.00       0.000000000000
      0.1873113696D+02  0.3349460434D-01
      0.2825394365D+01  0.2347269535D+00
      0.6401216923D+00  0.8137573261D+00
 S   1 1.00       0.000000000000
      0.1612777588D+00  0.1000000000D+01
 ****
     60 0
 S   3 1.00       0.000000000000
      0.1873113696D+02  0.3349460434D-01
      0.2825394365D+01  0.2347269535D+00
      0.6401216923D+00  0.8137573261D+00
 S   1 1.00       0.000000000000
      0.1612777588D+00  0.1000000000D+01
 ****
     61 0
 S   6 1.00       0.000000000000
      0.3047524880D+04  0.1834737132D-02
      0.4573695180D+03  0.1403732281D-01
      0.1039486850D+03  0.6884262226D-01
      0.2921015530D+02  0.2321844432D+00
      0.9286662960D+01  0.4679413484D+00
      0.3163926960D+01  0.3623119853D+00
 SP   3 1.00       0.000000000000
      0.7868272350D+01 -0.1193324198D+00  0.6899906659D-01
      0.1881288540D+01 -0.1608541517D+00  0.3164239610D+00
      0.5442492580D+00  0.1143456438D+01  0.7443082909D+00
 SP   1 1.00       0.000000000000
      0.1687144782D+00  0.1000000000D+01  0.1000000000D+01
 D   1 1.00       0.000000000000
      0.8000000000D+00  0.1000000000D+01
 ****
     62 0
 S   3 1.00       0.000000000000
      0.1873113696D+02  0.3349460434D-01
      0.2825394365D+01  0.2347269535D+00
      0.6401216923D+00  0.8137573261D+00
 S   1 1.00       0.000000000000
      0.1612777588D+00  0.1000000000D+01
 ****
     63 0
 S   3 1.00       0.000000000000
      0.1873113696D+02  0.3349460434D-01
      0.2825394365D+01  0.2347269535D+00
      0.6401216923D+00  0.8137573261D+00
 S   1 1.00       0.000000000000
      0.1612777588D+00  0.1000000000D+01
 ****
     64 0
 S   6 1.00       0.000000000000
      0.3047524880D+04  0.1834737132D-02
      0.4573695180D+03  0.1403732281D-01
      0.1039486850D+03  0.6884262226D-01
      0.2921015530D+02  0.2321844432D+00
      0.9286662960D+01  0.4679413484D+00
      0.3163926960D+01  0.3623119853D+00
 SP   3 1.00       0.000000000000
      0.7868272350D+01 -0.1193324198D+00  0.6899906659D-01
      0.1881288540D+01 -0.1608541517D+00  0.3164239610D+00
      0.5442492580D+00  0.1143456438D+01  0.7443082909D+00
 SP   1 1.00       0.000000000000
      0.1687144782D+00  0.1000000000D+01  0.1000000000D+01
 D   1 1.00       0.000000000000
      0.8000000000D+00  0.1000000000D+01
 ****
     65 0
 S   3 1.00       0.000000000000
      0.1873113696D+02  0.3349460434D-01
      0.2825394365D+01  0.2347269535D+00
      0.6401216923D+00  0.8137573261D+00
 S   1 1.00       0.000000000000
      0.1612777588D+00  0.1000000000D+01
 ****
     66 0
 S   3 1.00       0.000000000000
      0.1873113696D+02  0.3349460434D-01
      0.2825394365D+01  0.2347269535D+00
      0.6401216923D+00  0.8137573261D+00
 S   1 1.00       0.000000000000
      0.1612777588D+00  0.1000000000D+01
 ****
     67 0
 S   6 1.00       0.000000000000
      0.3047524880D+04  0.1834737132D-02
      0.4573695180D+03  0.1403732281D-01
      0.1039486850D+03  0.6884262226D-01
      0.2921015530D+02  0.2321844432D+00
      0.9286662960D+01  0.4679413484D+00
      0.3163926960D+01  0.3623119853D+00
 SP   3 1.00       0.000000000000
      0.7868272350D+01 -0.1193324198D+00  0.6899906659D-01
      0.1881288540D+01 -0.1608541517D+00  0.3164239610D+00
      0.5442492580D+00  0.1143456438D+01  0.7443082909D+00
 SP   1 1.00       0.000000000000
      0.1687144782D+00  0.1000000000D+01  0.1000000000D+01
 D   1 1.00       0.000000000000
      0.8000000000D+00  0.1000000000D+01
 ****
     68 0
 S   3 1.00       0.000000000000
      0.1873113696D+02  0.3349460434D-01
      0.2825394365D+01  0.2347269535D+00
      0.6401216923D+00  0.8137573261D+00
 S   1 1.00       0.000000000000
      0.1612777588D+00  0.1000000000D+01
 ****
     69 0
 S   6 1.00       0.000000000000
      0.3047524880D+04  0.1834737132D-02
      0.4573695180D+03  0.1403732281D-01
      0.1039486850D+03  0.6884262226D-01
      0.2921015530D+02  0.2321844432D+00
      0.9286662960D+01  0.4679413484D+00
      0.3163926960D+01  0.3623119853D+00
 SP   3 1.00       0.000000000000
      0.7868272350D+01 -0.1193324198D+00  0.6899906659D-01
      0.1881288540D+01 -0.1608541517D+00  0.3164239610D+00
      0.5442492580D+00  0.1143456438D+01  0.7443082909D+00
 SP   1 1.00       0.000000000000
      0.1687144782D+00  0.1000000000D+01  0.1000000000D+01
 D   1 1.00       0.000000000000
      0.8000000000D+00  0.1000000000D+01
 ****
     70 0
 S   3 1.00       0.000000000000
      0.1873113696D+02  0.3349460434D-01
      0.2825394365D+01  0.2347269535D+00
      0.6401216923D+00  0.8137573261D+00
 S   1 1.00       0.000000000000
      0.1612777588D+00  0.1000000000D+01
 ****
     71 0
 S   3 1.00       0.000000000000
      0.1873113696D+02  0.3349460434D-01
      0.2825394365D+01  0.2347269535D+00
      0.6401216923D+00  0.8137573261D+00
 S   1 1.00       0.000000000000
      0.1612777588D+00  0.1000000000D+01
 ****
     72 0
 S   3 1.00       0.000000000000
      0.1873113696D+02  0.3349460434D-01
      0.2825394365D+01  0.2347269535D+00
      0.6401216923D+00  0.8137573261D+00
 S   1 1.00       0.000000000000
      0.1612777588D+00  0.1000000000D+01
 ****
     73 0
 S   6 1.00       0.000000000000
      0.3047524880D+04  0.1834737132D-02
      0.4573695180D+03  0.1403732281D-01
      0.1039486850D+03  0.6884262226D-01
      0.2921015530D+02  0.2321844432D+00
      0.9286662960D+01  0.4679413484D+00
      0.3163926960D+01  0.3623119853D+00
 SP   3 1.00       0.000000000000
      0.7868272350D+01 -0.1193324198D+00  0.6899906659D-01
      0.1881288540D+01 -0.1608541517D+00  0.3164239610D+00
      0.5442492580D+00  0.1143456438D+01  0.7443082909D+00
 SP   1 1.00       0.000000000000
      0.1687144782D+00  0.1000000000D+01  0.1000000000D+01
 D   1 1.00       0.000000000000
      0.8000000000D+00  0.1000000000D+01
 ****
     74 0
 S   3 1.00       0.000000000000
      0.1873113696D+02  0.3349460434D-01
      0.2825394365D+01  0.2347269535D+00
      0.6401216923D+00  0.8137573261D+00
 S   1 1.00       0.000000000000
      0.1612777588D+00  0.1000000000D+01
 ****
     75 0
 S   3 1.00       0.000000000000
      0.1873113696D+02  0.3349460434D-01
      0.2825394365D+01  0.2347269535D+00
      0.6401216923D+00  0.8137573261D+00
 S   1 1.00       0.000000000000
      0.1612777588D+00  0.1000000000D+01
 ****
     76 0
 S   3 1.00       0.000000000000
      0.1873113696D+02  0.3349460434D-01
      0.2825394365D+01  0.2347269535D+00
      0.6401216923D+00  0.8137573261D+00
 S   1 1.00       0.000000000000
      0.1612777588D+00  0.1000000000D+01
 ****

 AO basis set (Overlap normalization):
 Atom C1       Shell     1 S   6     bf    1 -     1         14.202696635454          4.191313673372          0.138748435889
      0.3047524880D+04  0.1834737132D-02
      0.4573695180D+03  0.1403732281D-01
      0.1039486850D+03  0.6884262226D-01
      0.2921015530D+02  0.2321844432D+00
      0.9286662960D+01  0.4679413484D+00
      0.3163926960D+01  0.3623119853D+00
 Atom C1       Shell     2 SP   3    bf    2 -     5         14.202696635454          4.191313673372          0.138748435889
      0.7868272350D+01 -0.1193324198D+00  0.6899906659D-01
      0.1881288540D+01 -0.1608541517D+00  0.3164239610D+00
      0.5442492580D+00  0.1143456438D+01  0.7443082909D+00
 Atom C1       Shell     3 SP   1    bf    6 -     9         14.202696635454          4.191313673372          0.138748435889
      0.1687144782D+00  0.1000000000D+01  0.1000000000D+01
 Atom C1       Shell     4 D   1     bf   10 -    15         14.202696635454          4.191313673372          0.138748435889
      0.8000000000D+00  0.1000000000D+01
 Atom H2       Shell     5 S   3     bf   16 -    16         13.891979171944          4.136333168679          2.187388687968
      0.1873113696D+02  0.3349460434D-01
      0.2825394365D+01  0.2347269535D+00
      0.6401216923D+00  0.8137573261D+00
 Atom H2       Shell     6 S   1     bf   17 -    17         13.891979171944          4.136333168679          2.187388687968
      0.1612777588D+00  0.1000000000D+01
 Atom C3       Shell     7 S   6     bf   18 -    18         12.892607068582          1.906316888983         -1.077703424756
      0.3047524880D+04  0.1834737132D-02
      0.4573695180D+03  0.1403732281D-01
      0.1039486850D+03  0.6884262226D-01
      0.2921015530D+02  0.2321844432D+00
      0.9286662960D+01  0.4679413484D+00
      0.3163926960D+01  0.3623119853D+00
 Atom C3       Shell     8 SP   3    bf   19 -    22         12.892607068582          1.906316888983         -1.077703424756
      0.7868272350D+01 -0.1193324198D+00  0.6899906659D-01
      0.1881288540D+01 -0.1608541517D+00  0.3164239610D+00
      0.5442492580D+00  0.1143456438D+01  0.7443082909D+00
 Atom C3       Shell     9 SP   1    bf   23 -    26         12.892607068582          1.906316888983         -1.077703424756
      0.1687144782D+00  0.1000000000D+01  0.1000000000D+01
 Atom C3       Shell    10 D   1     bf   27 -    32         12.892607068582          1.906316888983         -1.077703424756
      0.8000000000D+00  0.1000000000D+01
 Atom H4       Shell    11 S   3     bf   33 -    33         13.615783811246          0.157437298220         -0.242841864529
      0.1873113696D+02  0.3349460434D-01
      0.2825394365D+01  0.2347269535D+00
      0.6401216923D+00  0.8137573261D+00
 Atom H4       Shell    12 S   1     bf   34 -    34         13.615783811246          0.157437298220         -0.242841864529
      0.1612777588D+00  0.1000000000D+01
 Atom H5       Shell    13 S   3     bf   35 -    35         13.428398567909          1.874541748771         -3.090208144748
      0.1873113696D+02  0.3349460434D-01
      0.2825394365D+01  0.2347269535D+00
      0.6401216923D+00  0.8137573261D+00
 Atom H5       Shell    14 S   1     bf   36 -    36         13.428398567909          1.874541748771         -3.090208144748
      0.1612777588D+00  0.1000000000D+01
 Atom C6       Shell    15 S   6     bf   37 -    37         10.036934100303          2.008750873516         -0.853678357017
      0.3047524880D+04  0.1834737132D-02
      0.4573695180D+03  0.1403732281D-01
      0.1039486850D+03  0.6884262226D-01
      0.2921015530D+02  0.2321844432D+00
      0.9286662960D+01  0.4679413484D+00
      0.3163926960D+01  0.3623119853D+00
 Atom C6       Shell    16 SP   3    bf   38 -    41         10.036934100303          2.008750873516         -0.853678357017
      0.7868272350D+01 -0.1193324198D+00  0.6899906659D-01
      0.1881288540D+01 -0.1608541517D+00  0.3164239610D+00
      0.5442492580D+00  0.1143456438D+01  0.7443082909D+00
 Atom C6       Shell    17 SP   1    bf   42 -    45         10.036934100303          2.008750873516         -0.853678357017
      0.1687144782D+00  0.1000000000D+01  0.1000000000D+01
 Atom C6       Shell    18 D   1     bf   46 -    51         10.036934100303          2.008750873516         -0.853678357017
      0.8000000000D+00  0.1000000000D+01
 Atom C7       Shell    19 S   6     bf   52 -    52          8.722984711113          4.460785294003         -1.660284826591
      0.3047524880D+04  0.1834737132D-02
      0.4573695180D+03  0.1403732281D-01
      0.1039486850D+03  0.6884262226D-01
      0.2921015530D+02  0.2321844432D+00
      0.9286662960D+01  0.4679413484D+00
      0.3163926960D+01  0.3623119853D+00
 Atom C7       Shell    20 SP   3    bf   53 -    56          8.722984711113          4.460785294003         -1.660284826591
      0.7868272350D+01 -0.1193324198D+00  0.6899906659D-01
      0.1881288540D+01 -0.1608541517D+00  0.3164239610D+00
      0.5442492580D+00  0.1143456438D+01  0.7443082909D+00
 Atom C7       Shell    21 SP   1    bf   57 -    60          8.722984711113          4.460785294003         -1.660284826591
      0.1687144782D+00  0.1000000000D+01  0.1000000000D+01
 Atom C7       Shell    22 D   1     bf   61 -    66          8.722984711113          4.460785294003         -1.660284826591
      0.8000000000D+00  0.1000000000D+01
 Atom C8       Shell    23 S   6     bf   67 -    67         10.220653804065          6.739607662815         -0.536974808037
      0.3047524880D+04  0.1834737132D-02
      0.4573695180D+03  0.1403732281D-01
      0.1039486850D+03  0.6884262226D-01
      0.2921015530D+02  0.2321844432D+00
      0.9286662960D+01  0.4679413484D+00
      0.3163926960D+01  0.3623119853D+00
 Atom C8       Shell    24 SP   3    bf   68 -    71         10.220653804065          6.739607662815         -0.536974808037
      0.7868272350D+01 -0.1193324198D+00  0.6899906659D-01
      0.1881288540D+01 -0.1608541517D+00  0.3164239610D+00
      0.5442492580D+00  0.1143456438D+01  0.7443082909D+00
 Atom C8       Shell    25 SP   1    bf   72 -    75         10.220653804065          6.739607662815         -0.536974808037
      0.1687144782D+00  0.1000000000D+01  0.1000000000D+01
 Atom C8       Shell    26 D   1     bf   76 -    81         10.220653804065          6.739607662815         -0.536974808037
      0.8000000000D+00  0.1000000000D+01
 Atom H9       Shell    27 S   3     bf   82 -    82          9.842421641472          6.824864225772          1.503143553970
      0.1873113696D+02  0.3349460434D-01
      0.2825394365D+01  0.2347269535D+00
      0.6401216923D+00  0.8137573261D+00
 Atom H9       Shell    28 S   1     bf   83 -    83          9.842421641472          6.824864225772          1.503143553970
      0.1612777588D+00  0.1000000000D+01
 Atom H10      Shell    29 S   3     bf   84 -    84          9.493513039584          8.501939609205         -1.340902288462
      0.1873113696D+02  0.3349460434D-01
      0.2825394365D+01  0.2347269535D+00
      0.6401216923D+00  0.8137573261D+00
 Atom H10      Shell    30 S   1     bf   85 -    85          9.493513039584          8.501939609205         -1.340902288462
      0.1612777588D+00  0.1000000000D+01
 Atom C11      Shell    31 S   6     bf   86 -    86         13.096228328627          6.637467228339         -0.923388161977
      0.3047524880D+04  0.1834737132D-02
      0.4573695180D+03  0.1403732281D-01
      0.1039486850D+03  0.6884262226D-01
      0.2921015530D+02  0.2321844432D+00
      0.9286662960D+01  0.4679413484D+00
      0.3163926960D+01  0.3623119853D+00
 Atom C11      Shell    32 SP   3    bf   87 -    90         13.096228328627          6.637467228339         -0.923388161977
      0.7868272350D+01 -0.1193324198D+00  0.6899906659D-01
      0.1881288540D+01 -0.1608541517D+00  0.3164239610D+00
      0.5442492580D+00  0.1143456438D+01  0.7443082909D+00
 Atom C11      Shell    33 SP   1    bf   91 -    94         13.096228328627          6.637467228339         -0.923388161977
      0.1687144782D+00  0.1000000000D+01  0.1000000000D+01
 Atom C11      Shell    34 D   1     bf   95 -   100         13.096228328627          6.637467228339         -0.923388161977
      0.8000000000D+00  0.1000000000D+01
 Atom H12      Shell    35 S   3     bf  101 -   101         13.564247502506          6.770167671329         -2.944772648376
      0.1873113696D+02  0.3349460434D-01
      0.2825394365D+01  0.2347269535D+00
      0.6401216923D+00  0.8137573261D+00
 Atom H12      Shell    36 S   1     bf  102 -   102         13.564247502506          6.770167671329         -2.944772648376
      0.1612777588D+00  0.1000000000D+01
 Atom H13      Shell    37 S   3     bf  103 -   103         13.990929616427          8.261011262462          0.000000000000
      0.1873113696D+02  0.3349460434D-01
      0.2825394365D+01  0.2347269535D+00
      0.6401216923D+00  0.8137573261D+00
 Atom H13      Shell    38 S   1     bf  104 -   104         13.990929616427          8.261011262462          0.000000000000
      0.1612777588D+00  0.1000000000D+01
 Atom C14      Shell    39 S   6     bf  105 -   105          8.753590054157          0.000000000000          0.000000000000
      0.3047524880D+04  0.1834737132D-02
      0.4573695180D+03  0.1403732281D-01
      0.1039486850D+03  0.6884262226D-01
      0.2921015530D+02  0.2321844432D+00
      0.9286662960D+01  0.4679413484D+00
      0.3163926960D+01  0.3623119853D+00
 Atom C14      Shell    40 SP   3    bf  106 -   109          8.753590054157          0.000000000000          0.000000000000
      0.7868272350D+01 -0.1193324198D+00  0.6899906659D-01
      0.1881288540D+01 -0.1608541517D+00  0.3164239610D+00
      0.5442492580D+00  0.1143456438D+01  0.7443082909D+00
 Atom C14      Shell    41 SP   1    bf  110 -   113          8.753590054157          0.000000000000          0.000000000000
      0.1687144782D+00  0.1000000000D+01  0.1000000000D+01
 Atom C14      Shell    42 D   1     bf  114 -   119          8.753590054157          0.000000000000          0.000000000000
      0.8000000000D+00  0.1000000000D+01
 Atom H15      Shell    43 S   3     bf  120 -   120          9.781686372684         -1.682735585632          0.598732002922
      0.1873113696D+02  0.3349460434D-01
      0.2825394365D+01  0.2347269535D+00
      0.6401216923D+00  0.8137573261D+00
 Atom H15      Shell    44 S   1     bf  121 -   121          9.781686372684         -1.682735585632          0.598732002922
      0.1612777588D+00  0.1000000000D+01
 Atom C16      Shell    45 S   6     bf  122 -   122          5.931763214753         -0.190336371947          0.200468988985
      0.3047524880D+04  0.1834737132D-02
      0.4573695180D+03  0.1403732281D-01
      0.1039486850D+03  0.6884262226D-01
      0.2921015530D+02  0.2321844432D+00
      0.9286662960D+01  0.4679413484D+00
      0.3163926960D+01  0.3623119853D+00
 Atom C16      Shell    46 SP   3    bf  123 -   126          5.931763214753         -0.190336371947          0.200468988985
      0.7868272350D+01 -0.1193324198D+00  0.6899906659D-01
      0.1881288540D+01 -0.1608541517D+00  0.3164239610D+00
      0.5442492580D+00  0.1143456438D+01  0.7443082909D+00
 Atom C16      Shell    47 SP   1    bf  127 -   130          5.931763214753         -0.190336371947          0.200468988985
      0.1687144782D+00  0.1000000000D+01  0.1000000000D+01
 Atom C16      Shell    48 D   1     bf  131 -   136          5.931763214753         -0.190336371947          0.200468988985
      0.8000000000D+00  0.1000000000D+01
 Atom H17      Shell    49 S   3     bf  137 -   137          5.393078960457         -0.372763087295          2.204201751447
      0.1873113696D+02  0.3349460434D-01
      0.2825394365D+01  0.2347269535D+00
      0.6401216923D+00  0.8137573261D+00
 Atom H17      Shell    50 S   1     bf  138 -   138          5.393078960457         -0.372763087295          2.204201751447
      0.1612777588D+00  0.1000000000D+01
 Atom C18      Shell    51 S   6     bf  139 -   139          4.487275229270          2.019870286644         -1.006363334164
      0.3047524880D+04  0.1834737132D-02
      0.4573695180D+03  0.1403732281D-01
      0.1039486850D+03  0.6884262226D-01
      0.2921015530D+02  0.2321844432D+00
      0.9286662960D+01  0.4679413484D+00
      0.3163926960D+01  0.3623119853D+00
 Atom C18      Shell    52 SP   3    bf  140 -   143          4.487275229270          2.019870286644         -1.006363334164
      0.7868272350D+01 -0.1193324198D+00  0.6899906659D-01
      0.1881288540D+01 -0.1608541517D+00  0.3164239610D+00
      0.5442492580D+00  0.1143456438D+01  0.7443082909D+00
 Atom C18      Shell    53 SP   1    bf  144 -   147          4.487275229270          2.019870286644         -1.006363334164
      0.1687144782D+00  0.1000000000D+01  0.1000000000D+01
 Atom C18      Shell    54 D   1     bf  148 -   153          4.487275229270          2.019870286644         -1.006363334164
      0.8000000000D+00  0.1000000000D+01
 Atom H19      Shell    55 S   3     bf  154 -   154          4.376652003156          1.621382773242         -3.034663821367
      0.1873113696D+02  0.3349460434D-01
      0.2825394365D+01  0.2347269535D+00
      0.6401216923D+00  0.8137573261D+00
 Atom H19      Shell    56 S   1     bf  155 -   155          4.376652003156          1.621382773242         -3.034663821367
      0.1612777588D+00  0.1000000000D+01
 Atom C20      Shell    57 S   6     bf  156 -   156          5.963796094713          4.521928327896         -0.577660838445
      0.3047524880D+04  0.1834737132D-02
      0.4573695180D+03  0.1403732281D-01
      0.1039486850D+03  0.6884262226D-01
      0.2921015530D+02  0.2321844432D+00
      0.9286662960D+01  0.4679413484D+00
      0.3163926960D+01  0.3623119853D+00
 Atom C20      Shell    58 SP   3    bf  157 -   160          5.963796094713          4.521928327896         -0.577660838445
      0.7868272350D+01 -0.1193324198D+00  0.6899906659D-01
      0.1881288540D+01 -0.1608541517D+00  0.3164239610D+00
      0.5442492580D+00  0.1143456438D+01  0.7443082909D+00
 Atom C20      Shell    59 SP   1    bf  161 -   164          5.963796094713          4.521928327896         -0.577660838445
      0.1687144782D+00  0.1000000000D+01  0.1000000000D+01
 Atom C20      Shell    60 D   1     bf  165 -   170          5.963796094713          4.521928327896         -0.577660838445
      0.8000000000D+00  0.1000000000D+01
 Atom H21      Shell    61 S   3     bf  171 -   171          6.182014865524          4.711626369252          1.486112434992
      0.1873113696D+02  0.3349460434D-01
      0.2825394365D+01  0.2347269535D+00
      0.6401216923D+00  0.8137573261D+00
 Atom H21      Shell    62 S   1     bf  172 -   172          6.182014865524          4.711626369252          1.486112434992
      0.1612777588D+00  0.1000000000D+01
 Atom C22      Shell    63 S   6     bf  173 -   173          4.420676858388          6.834989737440         -1.471644332671
      0.3047524880D+04  0.1834737132D-02
      0.4573695180D+03  0.1403732281D-01
      0.1039486850D+03  0.6884262226D-01
      0.2921015530D+02  0.2321844432D+00
      0.9286662960D+01  0.4679413484D+00
      0.3163926960D+01  0.3623119853D+00
 Atom C22      Shell    64 SP   3    bf  174 -   177          4.420676858388          6.834989737440         -1.471644332671
      0.7868272350D+01 -0.1193324198D+00  0.6899906659D-01
      0.1881288540D+01 -0.1608541517D+00  0.3164239610D+00
      0.5442492580D+00  0.1143456438D+01  0.7443082909D+00
 Atom C22      Shell    65 SP   1    bf  178 -   181          4.420676858388          6.834989737440         -1.471644332671
      0.1687144782D+00  0.1000000000D+01  0.1000000000D+01
 Atom C22      Shell    66 D   1     bf  182 -   187          4.420676858388          6.834989737440         -1.471644332671
      0.8000000000D+00  0.1000000000D+01
 Atom H23      Shell    67 S   3     bf  188 -   188          4.326841959239          6.855966547892         -3.539465248306
      0.1873113696D+02  0.3349460434D-01
      0.2825394365D+01  0.2347269535D+00
      0.6401216923D+00  0.8137573261D+00
 Atom H23      Shell    68 S   1     bf  189 -   189          4.326841959239          6.855966547892         -3.539465248306
      0.1612777588D+00  0.1000000000D+01
 Atom H24      Shell    69 S   3     bf  190 -   190          5.398823406647          8.576200460508         -0.926443811339
      0.1873113696D+02  0.3349460434D-01
      0.2825394365D+01  0.2347269535D+00
      0.6401216923D+00  0.8137573261D+00
 Atom H24      Shell    70 S   1     bf  191 -   191          5.398823406647          8.576200460508         -0.926443811339
      0.1612777588D+00  0.1000000000D+01
 Atom C25      Shell    71 S   6     bf  192 -   192          1.710051123349          6.937498517334         -0.412048263721
      0.3047524880D+04  0.1834737132D-02
      0.4573695180D+03  0.1403732281D-01
      0.1039486850D+03  0.6884262226D-01
      0.2921015530D+02  0.2321844432D+00
      0.9286662960D+01  0.4679413484D+00
      0.3163926960D+01  0.3623119853D+00
 Atom C25      Shell    72 SP   3    bf  193 -   196          1.710051123349          6.937498517334         -0.412048263721
      0.7868272350D+01 -0.1193324198D+00  0.6899906659D-01
      0.1881288540D+01 -0.1608541517D+00  0.3164239610D+00
      0.5442492580D+00  0.1143456438D+01  0.7443082909D+00
 Atom C25      Shell    73 SP   1    bf  197 -   200          1.710051123349          6.937498517334         -0.412048263721
      0.1687144782D+00  0.1000000000D+01  0.1000000000D+01
 Atom C25      Shell    74 D   1     bf  201 -   206          1.710051123349          6.937498517334         -0.412048263721
      0.8000000000D+00  0.1000000000D+01
 Atom H26      Shell    75 S   3     bf  207 -   207          1.785114068909          7.202511612614          1.647772930968
      0.1873113696D+02  0.3349460434D-01
      0.2825394365D+01  0.2347269535D+00
      0.6401216923D+00  0.8137573261D+00
 Atom H26      Shell    76 S   1     bf  208 -   208          1.785114068909          7.202511612614          1.647772930968
      0.1612777588D+00  0.1000000000D+01
 Atom H27      Shell    77 S   3     bf  209 -   209          0.768999162085          8.609384656114         -1.184061746857
      0.1873113696D+02  0.3349460434D-01
      0.2825394365D+01  0.2347269535D+00
      0.6401216923D+00  0.8137573261D+00
 Atom H27      Shell    78 S   1     bf  210 -   210          0.768999162085          8.609384656114         -1.184061746857
      0.1612777588D+00  0.1000000000D+01
 Atom C28      Shell    79 S   6     bf  211 -   211          0.223945396885          4.497805293508         -0.984470460072
      0.3047524880D+04  0.1834737132D-02
      0.4573695180D+03  0.1403732281D-01
      0.1039486850D+03  0.6884262226D-01
      0.2921015530D+02  0.2321844432D+00
      0.9286662960D+01  0.4679413484D+00
      0.3163926960D+01  0.3623119853D+00
 Atom C28      Shell    80 SP   3    bf  212 -   215          0.223945396885          4.497805293508         -0.984470460072
      0.7868272350D+01 -0.1193324198D+00  0.6899906659D-01
      0.1881288540D+01 -0.1608541517D+00  0.3164239610D+00
      0.5442492580D+00  0.1143456438D+01  0.7443082909D+00
 Atom C28      Shell    81 SP   1    bf  216 -   219          0.223945396885          4.497805293508         -0.984470460072
      0.1687144782D+00  0.1000000000D+01  0.1000000000D+01
 Atom C28      Shell    82 D   1     bf  220 -   225          0.223945396885          4.497805293508         -0.984470460072
      0.8000000000D+00  0.1000000000D+01
 Atom C29      Shell    83 S   6     bf  226 -   226          1.809145073634          2.269820771761          0.099845437676
      0.3047524880D+04  0.1834737132D-02
      0.4573695180D+03  0.1403732281D-01
      0.1039486850D+03  0.6884262226D-01
      0.2921015530D+02  0.2321844432D+00
      0.9286662960D+01  0.4679413484D+00
      0.3163926960D+01  0.3623119853D+00
 Atom C29      Shell    84 SP   3    bf  227 -   230          1.809145073634          2.269820771761          0.099845437676
      0.7868272350D+01 -0.1193324198D+00  0.6899906659D-01
      0.1881288540D+01 -0.1608541517D+00  0.3164239610D+00
      0.5442492580D+00  0.1143456438D+01  0.7443082909D+00
 Atom C29      Shell    85 SP   1    bf  231 -   234          1.809145073634          2.269820771761          0.099845437676
      0.1687144782D+00  0.1000000000D+01  0.1000000000D+01
 Atom C29      Shell    86 D   1     bf  235 -   240          1.809145073634          2.269820771761          0.099845437676
      0.8000000000D+00  0.1000000000D+01
 Atom H30      Shell    87 S   3     bf  241 -   241          2.073422177277          2.727666926257          2.119004960527
      0.1873113696D+02  0.3349460434D-01
      0.2825394365D+01  0.2347269535D+00
      0.6401216923D+00  0.8137573261D+00
 Atom H30      Shell    88 S   1     bf  242 -   242          2.073422177277          2.727666926257          2.119004960527
      0.1612777588D+00  0.1000000000D+01
 Atom C31      Shell    89 S   6     bf  243 -   243          0.000000000000          0.000000000000          0.000000000000
      0.3047524880D+04  0.1834737132D-02
      0.4573695180D+03  0.1403732281D-01
      0.1039486850D+03  0.6884262226D-01
      0.2921015530D+02  0.2321844432D+00
      0.9286662960D+01  0.4679413484D+00
      0.3163926960D+01  0.3623119853D+00
 Atom C31      Shell    90 SP   3    bf  244 -   247          0.000000000000          0.000000000000          0.000000000000
      0.7868272350D+01 -0.1193324198D+00  0.6899906659D-01
      0.1881288540D+01 -0.1608541517D+00  0.3164239610D+00
      0.5442492580D+00  0.1143456438D+01  0.7443082909D+00
 Atom C31      Shell    91 SP   1    bf  248 -   251          0.000000000000          0.000000000000          0.000000000000
      0.1687144782D+00  0.1000000000D+01  0.1000000000D+01
 Atom C31      Shell    92 D   1     bf  252 -   257          0.000000000000          0.000000000000          0.000000000000
      0.8000000000D+00  0.1000000000D+01
 Atom H32      Shell    93 S   3     bf  258 -   258          0.521838460760         -1.488905771470          1.332955120799
      0.1873113696D+02  0.3349460434D-01
      0.2825394365D+01  0.2347269535D+00
      0.6401216923D+00  0.8137573261D+00
 Atom H32      Shell    94 S   1     bf  259 -   259          0.521838460760         -1.488905771470          1.332955120799
      0.1612777588D+00  0.1000000000D+01
 Atom H33      Shell    95 S   3     bf  260 -   260          0.025550363433         -0.872119986478         -1.875814895061
      0.1873113696D+02  0.3349460434D-01
      0.2825394365D+01  0.2347269535D+00
      0.6401216923D+00  0.8137573261D+00
 Atom H33      Shell    96 S   1     bf  261 -   261          0.025550363433         -0.872119986478         -1.875814895061
      0.1612777588D+00  0.1000000000D+01
 Atom C34      Shell    97 S   6     bf  262 -   262         -2.617850443127          1.178459200202          0.602434278773
      0.3047524880D+04  0.1834737132D-02
      0.4573695180D+03  0.1403732281D-01
      0.1039486850D+03  0.6884262226D-01
      0.2921015530D+02  0.2321844432D+00
      0.9286662960D+01  0.4679413484D+00
      0.3163926960D+01  0.3623119853D+00
 Atom C34      Shell    98 SP   3    bf  263 -   266         -2.617850443127          1.178459200202          0.602434278773
      0.7868272350D+01 -0.1193324198D+00  0.6899906659D-01
      0.1881288540D+01 -0.1608541517D+00  0.3164239610D+00
      0.5442492580D+00  0.1143456438D+01  0.7443082909D+00
 Atom C34      Shell    99 SP   1    bf  267 -   270         -2.617850443127          1.178459200202          0.602434278773
      0.1687144782D+00  0.1000000000D+01  0.1000000000D+01
 Atom C34      Shell   100 D   1     bf  271 -   276         -2.617850443127          1.178459200202          0.602434278773
      0.8000000000D+00  0.1000000000D+01
 Atom H35      Shell   101 S   3     bf  277 -   277         -4.037599570271          0.564910742843         -0.777008577326
      0.1873113696D+02  0.3349460434D-01
      0.2825394365D+01  0.2347269535D+00
      0.6401216923D+00  0.8137573261D+00
 Atom H35      Shell   102 S   1     bf  278 -   278         -4.037599570271          0.564910742843         -0.777008577326
      0.1612777588D+00  0.1000000000D+01
 Atom H36      Shell   103 S   3     bf  279 -   279         -3.302324933185          0.561794678936          2.453752011467
      0.1873113696D+02  0.3349460434D-01
      0.2825394365D+01  0.2347269535D+00
      0.6401216923D+00  0.8137573261D+00
 Atom H36      Shell   104 S   1     bf  280 -   280         -3.302324933185          0.561794678936          2.453752011467
      0.1612777588D+00  0.1000000000D+01
 Atom C37      Shell   105 S   6     bf  281 -   281         -2.302556403075          4.121353763158          0.520780743249
      0.3047524880D+04  0.1834737132D-02
      0.4573695180D+03  0.1403732281D-01
      0.1039486850D+03  0.6884262226D-01
      0.2921015530D+02  0.2321844432D+00
      0.9286662960D+01  0.4679413484D+00
      0.3163926960D+01  0.3623119853D+00
 Atom C37      Shell   106 SP   3    bf  282 -   285         -2.302556403075          4.121353763158          0.520780743249
      0.7868272350D+01 -0.1193324198D+00  0.6899906659D-01
      0.1881288540D+01 -0.1608541517D+00  0.3164239610D+00
      0.5442492580D+00  0.1143456438D+01  0.7443082909D+00
 Atom C37      Shell   107 SP   1    bf  286 -   289         -2.302556403075          4.121353763158          0.520780743249
      0.1687144782D+00  0.1000000000D+01  0.1000000000D+01
 Atom C37      Shell   108 D   1     bf  290 -   295         -2.302556403075          4.121353763158          0.520780743249
      0.8000000000D+00  0.1000000000D+01
 Atom H38      Shell   109 S   3     bf  296 -   296         -1.920283609167          4.780961006883          2.458580790859
      0.1873113696D+02  0.3349460434D-01
      0.2825394365D+01  0.2347269535D+00
      0.6401216923D+00  0.8137573261D+00
 Atom H38      Shell   110 S   1     bf  297 -   297         -1.920283609167          4.780961006883          2.458580790859
      0.1612777588D+00  0.1000000000D+01
 Atom C39      Shell   111 S   6     bf  298 -   298         -0.254380059864          4.224731098977         -3.853971045794
      0.3047524880D+04  0.1834737132D-02
      0.4573695180D+03  0.1403732281D-01
      0.1039486850D+03  0.6884262226D-01
[...]
 **** Fit       0.029668
 **** Fit      -0.054781
 **** Fit      -0.048974
 **** Fit      -0.041516
 **** Fit      -0.034261
 **** Fit      -0.027972
 **** Fit       0.014814
 **** Fit       0.016886
 **** Fit       0.019292
 **** Fit       0.021970
 **** Fit       0.024657
 **** Fit       0.026669
 **** Fit       0.026648
 **** Fit       0.022610
 **** Fit      -0.002103
 **** Fit      -0.052814
 **** Fit      -0.051512
 **** Fit      -0.046197
 **** Fit      -0.039386
 **** Fit      -0.032704
 **** Fit      -0.026849
 **** Fit       0.015826
 **** Fit       0.017796
 **** Fit       0.019847
 **** Fit       0.021666
 **** Fit       0.022598
 **** Fit       0.021510
 **** Fit       0.016947
 **** Fit       0.007877
 **** Fit      -0.005231
 **** Fit      -0.020143
 **** Fit      -0.033743
 **** Fit      -0.043222
 **** Fit      -0.047135
 **** Fit      -0.045965
 **** Fit      -0.041546
 **** Fit      -0.035821
 **** Fit      -0.030086
 **** Fit      -0.024954
 **** Fit       0.014401
 **** Fit       0.015847
 **** Fit       0.017185
 **** Fit       0.018093
 **** Fit       0.018005
 **** Fit       0.016081
 **** Fit       0.011392
 **** Fit       0.003433
 **** Fit      -0.007277
 **** Fit      -0.019050
 **** Fit      -0.029582
 **** Fit      -0.036842
 **** Fit      -0.039882
 **** Fit      -0.039109
 **** Fit      -0.035814
 **** Fit      -0.031374
 **** Fit      -0.026767
 **** Fit       0.013743
 **** Fit       0.014440
 **** Fit       0.014608
 **** Fit       0.013808
 **** Fit       0.011482
 **** Fit       0.007108
 **** Fit       0.000517
 **** Fit      -0.007801
 **** Fit      -0.016645
 **** Fit      -0.024454
 **** Fit      -0.029886
 **** Fit      -0.032328
 **** Fit      -0.032036
 **** Fit      -0.029831
 **** Fit      -0.026630
 **** Fit      -0.023141
 **** Fit       0.011713
 **** Fit       0.011919
 **** Fit       0.011587
 **** Fit       0.010410
 **** Fit       0.008049
 **** Fit       0.004248
 **** Fit      -0.000988
 **** Fit      -0.007247
 **** Fit      -0.013716
 **** Fit      -0.019393
 **** Fit      -0.023432
 **** Fit      -0.025438
 **** Fit      -0.025537
 **** Fit      -0.024213
 **** Fit      -0.022049
 **** Fit       0.009767
 **** Fit       0.009154
 **** Fit       0.007855
 **** Fit       0.005680
 **** Fit       0.002526
 **** Fit      -0.001530
 **** Fit      -0.006172
 **** Fit      -0.010861
 **** Fit      -0.014973
 **** Fit      -0.017985
 **** Fit      -0.019639
 **** Fit      -0.019983
 **** Fit      -0.019289
 **** Fit       0.006020
 **** Fit       0.004128
 **** Fit       0.001584
 **** Fit      -0.001519
 **** Fit      -0.004949
 **** Fit      -0.008355
 **** Fit      -0.011350
 **** Fit      -0.013612
 **** Fit       0.004616
 **** Fit       0.002370
 **** Fit      -0.000603
 **** Fit      -0.004193
 **** Fit      -0.008129
 **** Fit      -0.012002
 **** Fit      -0.015359
 **** Fit      -0.017823
 **** Fit      -0.019203
 **** Fit       0.008689
 **** Fit       0.007857
 **** Fit       0.006293
 **** Fit       0.003805
 **** Fit       0.000291
 **** Fit      -0.004158
 **** Fit      -0.009198
 **** Fit      -0.014253
 **** Fit      -0.018650
 **** Fit      -0.021823
 **** Fit      -0.023487
 **** Fit      -0.023696
 **** Fit      -0.022752
 **** Fit       0.010560
 **** Fit       0.010546
 **** Fit       0.009968
 **** Fit       0.008532
 **** Fit       0.005922
 **** Fit       0.001915
 **** Fit      -0.003463
 **** Fit      -0.009799
 **** Fit      -0.016306
 **** Fit      -0.022015
 **** Fit      -0.026093
 **** Fit      -0.028123
 **** Fit      -0.028199
 **** Fit      -0.026783
 **** Fit      -0.024463
 **** Fit       0.012203
 **** Fit       0.012578
 **** Fit       0.012397
 **** Fit       0.011271
 **** Fit       0.008728
 **** Fit       0.004364
 **** Fit      -0.001911
 **** Fit      -0.009641
 **** Fit      -0.017799
 **** Fit      -0.025057
 **** Fit      -0.030237
 **** Fit      -0.032737
 **** Fit      -0.032690
 **** Fit      -0.030760
 **** Fit      -0.027765
 **** Fit      -0.024381
 **** Fit       0.012738
 **** Fit       0.013761
 **** Fit       0.014579
 **** Fit       0.014897
 **** Fit       0.014240
 **** Fit       0.011973
 **** Fit       0.007465
 **** Fit       0.000451
 **** Fit      -0.008601
 **** Fit      -0.018424
 **** Fit      -0.027314
 **** Fit      -0.033713
 **** Fit      -0.036783
 **** Fit      -0.036674
 **** Fit      -0.034269
 **** Fit      -0.030636
 **** Fit      -0.026626
 **** Fit       0.013689
 **** Fit       0.015027
 **** Fit       0.016254
 **** Fit       0.017065
 **** Fit       0.016925
 **** Fit       0.015055
 **** Fit       0.010603
 **** Fit       0.003107
 **** Fit      -0.006982
 **** Fit      -0.018198
 **** Fit      -0.028512
 **** Fit      -0.036030
 **** Fit      -0.039678
 **** Fit      -0.039594
 **** Fit      -0.036842
 **** Fit      -0.032720
 **** Fit      -0.028233
 **** Fit       0.014258
 **** Fit       0.015798
 **** Fit       0.017292
 **** Fit       0.018438
 **** Fit       0.018673
 **** Fit       0.017131
 **** Fit       0.012812
 **** Fit       0.005109
 **** Fit      -0.005550
 **** Fit      -0.017576
 **** Fit      -0.028745
 **** Fit      -0.036960
 **** Fit      -0.041000
 **** Fit      -0.040982
 **** Fit      -0.038076
 **** Fit      -0.033713
 **** Fit      -0.028986
 **** Fit      -0.024520
 **** Fit       0.014360
 **** Fit       0.015935
 **** Fit       0.017476
 **** Fit       0.018681
 **** Fit       0.018987
 **** Fit       0.017521
 **** Fit       0.013269
 **** Fit       0.005609
 **** Fit      -0.005038
 **** Fit      -0.017075
 **** Fit      -0.028262
 **** Fit      -0.036497
 **** Fit      -0.040568
 **** Fit      -0.040597
 **** Fit      -0.037750
 **** Fit      -0.033445
 **** Fit      -0.028770
 **** Fit      -0.024347
 **** Fit       0.013984
 **** Fit       0.015423
 **** Fit       0.016781
 **** Fit       0.017756
 **** Fit       0.017813
 **** Fit       0.016155
 **** Fit       0.011894
 **** Fit       0.004530
 **** Fit      -0.005506
 **** Fit      -0.016729
 **** Fit      -0.027081
 **** Fit      -0.034661
 **** Fit      -0.038410
 **** Fit      -0.038472
 **** Fit      -0.035893
 **** Fit      -0.031942
 **** Fit      -0.027604
 **** Fit       0.013197
 **** Fit       0.014369
 **** Fit       0.015382
 **** Fit       0.015941
 **** Fit       0.015569
 **** Fit       0.013606
 **** Fit       0.009383
 **** Fit       0.002587
 **** Fit      -0.006340
 **** Fit      -0.016127
 **** Fit      -0.025050
 **** Fit      -0.031549
 **** Fit      -0.034794
 **** Fit      -0.034925
 **** Fit      -0.032790
 **** Fit      -0.029419
 **** Fit      -0.025639
 **** Fit       0.012963
 **** Fit       0.013569
 **** Fit       0.013670
 **** Fit       0.012871
 **** Fit       0.010680
 **** Fit       0.006654
 **** Fit       0.000658
 **** Fit      -0.006880
 **** Fit      -0.014947
 **** Fit      -0.022218
 **** Fit      -0.027520
 **** Fit      -0.030245
 **** Fit      -0.030497
 **** Fit      -0.028897
 **** Fit      -0.026220
 **** Fit      -0.023115
 **** Fit       0.011406
 **** Fit       0.011633
 **** Fit       0.011346
 **** Fit       0.010244
 **** Fit       0.007992
 **** Fit       0.004334
 **** Fit      -0.000738
 **** Fit      -0.006846
 **** Fit      -0.013227
 **** Fit      -0.018930
 **** Fit      -0.023128
 **** Fit      -0.025391
 **** Fit      -0.025777
 **** Fit      -0.024704
 **** Fit      -0.022717
 **** Fit       0.009793
 **** Fit       0.009239
 **** Fit       0.007989
 **** Fit       0.005835
 **** Fit       0.002653
 **** Fit      -0.001499
 **** Fit      -0.006309
 **** Fit      -0.011228
 **** Fit      -0.015603
 **** Fit      -0.018876
 **** Fit      -0.020748
 **** Fit      -0.021240
 **** Fit      -0.020612
 **** Fit       0.006205
 **** Fit       0.004255
 **** Fit       0.001577
 **** Fit      -0.001747
 **** Fit      -0.005471
 **** Fit      -0.009212
 **** Fit      -0.012537
 **** Fit      -0.015074
 **** Fit      -0.016619
 **** Fit       0.000968
 **** Fit      -0.001656
 **** Fit      -0.004516
 **** Fit      -0.000919
 **** Fit      -0.003808
 **** Fit      -0.006922
 **** Fit       0.004634
 **** Fit       0.002485
 **** Fit      -0.000378
 **** Fit      -0.003859
 **** Fit      -0.007708
 **** Fit      -0.011540
 **** Fit      -0.014917
 **** Fit      -0.017471
 **** Fit      -0.018992
 **** Fit       0.007563
 **** Fit       0.006116
 **** Fit       0.003819
 **** Fit       0.000579
 **** Fit      -0.003526
 **** Fit      -0.008196
 **** Fit      -0.012927
 **** Fit      -0.017127
 **** Fit      -0.020280
 **** Fit      -0.022098
 **** Fit      -0.022582
 **** Fit      -0.021958
 **** Fit       0.009760
 **** Fit       0.009188
 **** Fit       0.007853
 **** Fit       0.005499
 **** Fit       0.001954
 **** Fit      -0.002747
 **** Fit      -0.008264
 **** Fit      -0.013965
 **** Fit      -0.019074
 **** Fit      -0.022902
 **** Fit      -0.025064
 **** Fit      -0.025562
 **** Fit      -0.024709
 **** Fit       0.010943
 **** Fit       0.011132
 **** Fit       0.010806
 **** Fit       0.009659
 **** Fit       0.007348
 **** Fit       0.003603
 **** Fit      -0.001600
 **** Fit      -0.007897
 **** Fit      -0.014531
 **** Fit      -0.020541
 **** Fit      -0.025057
 **** Fit      -0.027582
 **** Fit      -0.028117
 **** Fit      -0.027062
 **** Fit      -0.024980
 **** Fit       0.011844
 **** Fit       0.012259
 **** Fit       0.012175
 **** Fit       0.011240
 **** Fit       0.009036
 **** Fit       0.005202
 **** Fit      -0.000351
 **** Fit      -0.007247
 **** Fit      -0.014634
 **** Fit      -0.021393
 **** Fit      -0.026496
 **** Fit      -0.029346
 **** Fit      -0.029938
 **** Fit      -0.028741
 **** Fit      -0.026415
 **** Fit       0.012393
 **** Fit       0.012957
 **** Fit       0.013039
 **** Fit       0.012263
 **** Fit       0.010164
 **** Fit       0.006323
 **** Fit       0.000606
 **** Fit      -0.006613
 **** Fit      -0.014423
 **** Fit      -0.021615
 **** Fit      -0.027068
 **** Fit      -0.030125
 **** Fit      -0.030772
 **** Fit      -0.029518
 **** Fit      -0.027078
 **** Fit      -0.024098
 **** Fit       0.012503
 **** Fit       0.013099
 **** Fit       0.013219
 **** Fit       0.012487
 **** Fit       0.010433
 **** Fit       0.006632
 **** Fit       0.000945
 **** Fit      -0.006257
 **** Fit      -0.014063
 **** Fit      -0.021260
 **** Fit      -0.026728
 **** Fit      -0.029809
 **** Fit      -0.030489
 **** Fit      -0.029273
 **** Fit      -0.026871
 **** Fit       0.012164
 **** Fit       0.012670
 **** Fit       0.012694
 **** Fit       0.011882
 **** Fit       0.009805
 **** Fit       0.006087
 **** Fit       0.000623
 **** Fit      -0.006220
 **** Fit      -0.013589
 **** Fit      -0.020361
 **** Fit      -0.025506
 **** Fit      -0.028428
 **** Fit      -0.029116
 **** Fit      -0.028028
 **** Fit      -0.025813
 **** Fit       0.011440
 **** Fit       0.011766
 **** Fit       0.011603
 **** Fit       0.010640
 **** Fit       0.008518
 **** Fit       0.004950
 **** Fit      -0.000112
 **** Fit      -0.006315
 **** Fit      -0.012909
 **** Fit      -0.018932
 **** Fit      -0.023511
 **** Fit      -0.026148
 **** Fit      -0.026833
 **** Fit      -0.025946
 **** Fit      -0.024033
 **** Fit       0.010557
 **** Fit       0.010180
 **** Fit       0.009065
 **** Fit       0.006939
 **** Fit       0.003610
 **** Fit      -0.000911
 **** Fit      -0.006301
 **** Fit      -0.011938
 **** Fit      -0.017051
 **** Fit      -0.020954
 **** Fit      -0.023252
 **** Fit      -0.023934
 **** Fit      -0.023288
 **** Fit       0.008664
 **** Fit       0.007450
 **** Fit       0.005394
 **** Fit       0.002387
 **** Fit      -0.001519
 **** Fit      -0.006041
 **** Fit      -0.010691
 **** Fit      -0.014886
 **** Fit      -0.018112
 **** Fit      -0.020073
 **** Fit      -0.020750
 **** Fit       0.005993
 **** Fit       0.004081
 **** Fit       0.001446
 **** Fit      -0.001836
 **** Fit      -0.005532
 **** Fit      -0.009274
 **** Fit      -0.012637
 **** Fit      -0.015253
 **** Fit       0.000820
 **** Fit      -0.001882
 **** Fit      -0.004850
 **** Fit      -0.003569
 **** Fit       0.004295
 **** Fit       0.002318
 **** Fit      -0.000291
 **** Fit      -0.003449
 **** Fit      -0.006939
 **** Fit      -0.010436
 **** Fit      -0.013567
 **** Fit       0.006739
 **** Fit       0.005391
 **** Fit       0.003322
 **** Fit       0.000472
 **** Fit      -0.003084
 **** Fit      -0.007101
 **** Fit      -0.011182
 **** Fit      -0.014861
 **** Fit      -0.017725
 **** Fit      -0.019522
 **** Fit       0.007786
 **** Fit       0.006497
 **** Fit       0.004390
 **** Fit       0.001363
 **** Fit      -0.002527
 **** Fit      -0.007015
 **** Fit      -0.011637
 **** Fit      -0.015834
 **** Fit      -0.019103
 **** Fit      -0.021139
 **** Fit      -0.021893
 **** Fit       0.009191
 **** Fit       0.008658
 **** Fit       0.007447
 **** Fit       0.005345
 **** Fit       0.002213
 **** Fit      -0.001914
 **** Fit      -0.006756
 **** Fit      -0.011799
 **** Fit      -0.016408
 **** Fit      -0.020008
 **** Fit      -0.022243
 **** Fit      -0.023059
 **** Fit      -0.022659
 **** Fit       0.009662
 **** Fit       0.009210
 **** Fit       0.008064
 **** Fit       0.005989
 **** Fit       0.002821
 **** Fit      -0.001420
 **** Fit      -0.006448
 **** Fit      -0.011720
 **** Fit      -0.016562
 **** Fit      -0.020352
 **** Fit      -0.022709
 **** Fit      -0.023571
 **** Fit      -0.023157
 **** Fit       0.009773
 **** Fit       0.009346
 **** Fit       0.008229
 **** Fit       0.006181
 **** Fit       0.003039
 **** Fit      -0.001182
 **** Fit      -0.006196
 **** Fit      -0.011463
 **** Fit      -0.016307
 **** Fit      -0.020106
 **** Fit      -0.022478
 **** Fit      -0.023362
 **** Fit      -0.022972
 **** Fit       0.009513
 **** Fit       0.009052
 **** Fit       0.007921
 **** Fit       0.005900
 **** Fit       0.002842
 **** Fit      -0.001226
 **** Fit      -0.006028
 **** Fit      -0.011053
 **** Fit      -0.015667
 **** Fit      -0.019292
 **** Fit      -0.021573
 **** Fit      -0.022449
 **** Fit      -0.022120
 **** Fit       0.008400
 **** Fit       0.007233
 **** Fit       0.005249
 **** Fit       0.002336
 **** Fit      -0.001461
 **** Fit      -0.005884
 **** Fit      -0.010474
 **** Fit      -0.014675
 **** Fit      -0.017983
 **** Fit      -0.020088
 **** Fit      -0.020936
 **** Fit       0.007517
 **** Fit       0.006318
 **** Fit       0.004401
 **** Fit       0.001693
 **** Fit      -0.001743
 **** Fit      -0.005675
 **** Fit      -0.009712
 **** Fit      -0.013391
 **** Fit      -0.016300
 **** Fit      -0.018181
 **** Fit       0.005338
 **** Fit       0.003528
 **** Fit       0.001075
 **** Fit      -0.001949
 **** Fit      -0.005341
 **** Fit      -0.008782
 **** Fit      -0.011908
 **** Fit      -0.002017
 **** Fit      -0.000408
 **** Fit      -0.003130
 **** Fit      -0.006114
 **** Fit       0.002500
 **** Fit       0.000077
 **** Fit      -0.002869
 **** Fit      -0.006146
 **** Fit      -0.009463
 **** Fit       0.004910
 **** Fit       0.003055
 **** Fit       0.000542
 **** Fit      -0.002562
 **** Fit      -0.006055
 **** Fit      -0.009619
 **** Fit      -0.012879
 **** Fit       0.005295
 **** Fit       0.003438
 **** Fit       0.000889
 **** Fit      -0.002291
 **** Fit      -0.005895
 **** Fit      -0.009590
 **** Fit      -0.012982
 **** Fit      -0.015710
 **** Fit       0.005418
 **** Fit       0.003580
 **** Fit       0.001047
 **** Fit      -0.002119
 **** Fit      -0.005714
 **** Fit      -0.009404
 **** Fit      -0.012796
 **** Fit      -0.015530
 **** Fit       0.005268
 **** Fit       0.003466
 **** Fit       0.001001
 **** Fit      -0.002062
 **** Fit      -0.005527
 **** Fit      -0.009077
 **** Fit      -0.012338
 **** Fit       0.003143
 **** Fit       0.000796
 **** Fit      -0.002087
 **** Fit      -0.005319
 **** Fit      -0.008614
 **** Fit       0.000509
 **** Fit      -0.002132
 **** Fit      -0.005058
 -----------------------------------------------------------------
 Leave Link  602 at Fri Apr 28 14:11:24 2017, MaxMem=   33554432 cpu:      93.5
 (Enter /scratch/michal/g09/l9999.exe)

 Test job not archived.
 1\1\GINC-RZEPICHA\SP\RHF\6-31G(d)\C27H46O3\MICHAL\28-Apr-2017\0\\#P HF
 /6-31G* SCF(Conver=6) NoSymm Test Pop=chelpg IOp(6/33=2) GFInput GFPri
 nt\\MEP - Input generated by R.E.D.-III.x MOLECULE\\0,1\C,0,7.51574336
 ,2.21794767,0.07342251\H,0,7.35131876,2.18885324,1.15751624\C,0,6.8224
 7382,1.00877945,-0.57029609\H,0,7.20516247,0.08331223,-0.12850638\H,0,
 7.10600247,0.99196477,-1.63526772\C,0,5.31131677,1.06298518,-0.4517471
 3\C,0,4.6160047,2.36054591,-0.87858489\C,0,5.40853705,3.56644677,-0.28
 415483\H,0,5.20838521,3.6115626,0.79542931\H,0,5.02375073,4.49903267,-
 0.70957493\C,0,6.93022555,3.51239638,-0.48863597\H,0,7.17789063,3.5826
 1843,-1.55830657\H,0,7.40368108,4.37153888,0.\C,0,4.63220035,0.,0.\H,0
 ,5.17624549,-0.89046532,0.31683533\C,0,3.1389539,-0.10072167,0.1060836
 2\H,0,2.85389447,-0.19725773,1.16641333\C,0,2.37456378,1.06886932,-0.5
 3254454\H,0,2.31602449,0.85799881,-1.60587493\C,0,3.15590497,2.3929014
 1,-0.30568495\H,0,3.27138137,2.49328529,0.78641683\C,0,2.33932144,3.61
 692079,-0.77876064\H,0,2.28966615,3.62802124,-1.87300434\H,0,2.8569343
 ,4.53832982,-0.49025295\C,0,0.90492008,3.6711661,-0.21804655\H,0,0.944
 64168,3.81140499,0.87196388\H,0,0.40693683,4.55589014,-0.62657849\C,0,
 0.1185068,2.38013605,-0.52095933\C,0,0.95735834,1.20113742,0.05283593\
 H,0,1.09720776,1.44341917,1.12132913\C,0,0.,0.,0.\H,0,0.27614502,-0.78
 7895,0.70536947\H,0,0.01352067,-0.46150602,-0.99263849\C,0,-1.38530679
 ,0.62361375,0.31879449\H,0,-2.13660567,0.29893789,-0.41117523\H,0,-1.7
 4751509,0.29728894,1.29846964\C,0,-1.21846037,2.18092648,0.2755853\H,0
 ,-1.01617032,2.5299756,1.30102492\C,0,-0.13461213,2.23563141,-2.039433
 64\H,0,0.79358135,2.15969075,-2.61137581\H,0,-0.72788286,1.34659418,-2
 .2718637\H,0,-0.68130226,3.1026878,-2.42436105\C,0,-2.50617394,2.90645
 982,-0.19487866\H,0,-2.76361765,2.51757309,-1.19189216\C,0,-2.3378231,
 4.43262688,-0.30641254\H,0,-1.96144749,4.85349171,0.63439151\H,0,-3.29
 107868,4.92196865,-0.52823783\H,0,-1.64341058,4.7166883,-1.10042557\C,
 0,4.63034935,2.4383956,-2.42856603\H,0,4.2739848,3.41125391,-2.7809806
 5\H,0,5.6395874,2.30207155,-2.82678526\H,0,4.00141982,1.65919567,-2.86
 871527\O,0,2.68662301,-1.39253289,-0.37376471\O,0,2.93618771,-1.483931
 08,-1.80754399\H,0,3.73127085,-2.04156374,-1.82195214\O,0,8.93728757,2
 .15043047,-0.06640126\H,0,9.15927889,2.20325219,-1.00668111\C,0,-3.690
 68601,2.56984234,0.74763507\H,0,-3.66285509,1.50480803,0.99642282\H,0,
 -3.54768825,3.10778197,1.69793218\C,0,-5.0818052,2.89898883,0.18134473
 \H,0,-5.12171707,3.95134159,-0.1247682\H,0,-5.2420519,2.31613659,-0.73
 59121\C,0,-6.24217096,2.66007027,1.16574945\H,0,-7.17453229,3.01207769
 ,0.69958911\H,0,-6.08639709,3.29776387,2.04803944\C,0,-6.46528692,1.21
 028309,1.64687938\H,0,-5.54236132,0.86078229,2.13125569\C,0,-7.5814693
 8,1.16933887,2.70301241\H,0,-8.53589534,1.50424783,2.27657786\H,0,-7.7
 2831319,0.15383577,3.08827756\H,0,-7.35072522,1.8208731,3.55374875\C,0
 ,-6.78347351,0.25047589,0.4895147\H,0,-7.68866994,0.57005176,-0.043256
 71\H,0,-6.95842699,-0.76575835,0.86068081\H,0,-5.9688947,0.19803813,-0
 .24006526\\Version=EM64L-G09RevC.01\HF=-1273.6832187\RMSD=5.046e-07\Di
 pole=0.3074083,0.4860494,-0.4097929\Quadrupole=-5.7024402,3.115843,2.5
 865972,-0.5047,-10.5533871,-2.4691074\PG=C01 [X(C27H46O3)]\\@


 CLIMB THE MOUNTAINS AND GET THEIR GOOD TIDINGS.
 NATURE'S PEACE WILL FLOW INTO YOU AS SUNSHINE FLOWS INTO TREES.
 THE WINDS WILL BLOW THEIR OWN FRESHNESS INTO YOU, 
 AND CARES WILL DROP OFF LIKE AUTUMN LEAVES.

                                         -- JOHN MUIR
 Job cpu time:  0 days  0 hours 38 minutes 28.6 seconds.
 File lengths (MBytes):  RWF=    159 Int=      0 D2E=      0 Chk=     11 Scr=      1
 Normal termination of Gaussian 09 at Fri Apr 28 14:11:25 2017.
