 Entering Gaussian System, Link 0=/scratch/michal/g09//g09
 Input=JOB2-gau_m1-8-2.com
 Output=JOB2-gau_m1-8-2.log
 Initial command:
 /scratch/michal/g09/l1.exe /scratch/michal/gauss_scratch/Gau-44062.inp -scrdir=/scratch/michal/gauss_scratch/
 Entering Link 1 = /scratch/michal/g09/l1.exe PID=     44064.
  
 Copyright (c) 1988,1990,1992,1993,1995,1998,2003,2009,2011,
            Gaussian, Inc.  All Rights Reserved.
  
 This is part of the Gaussian(R) 09 program.  It is based on
 the Gaussian(R) 03 system (copyright 2003, Gaussian, Inc.),
 the Gaussian(R) 98 system (copyright 1998, Gaussian, Inc.),
 the Gaussian(R) 94 system (copyright 1995, Gaussian, Inc.),
 the Gaussian 92(TM) system (copyright 1992, Gaussian, Inc.),
 the Gaussian 90(TM) system (copyright 1990, Gaussian, Inc.),
 the Gaussian 88(TM) system (copyright 1988, Gaussian, Inc.),
 the Gaussian 86(TM) system (copyright 1986, Carnegie Mellon
 University), and the Gaussian 82(TM) system (copyright 1983,
 Carnegie Mellon University). Gaussian is a federally registered
 trademark of Gaussian, Inc.
  
 This software contains proprietary and confidential information,
 including trade secrets, belonging to Gaussian, Inc.
  
 This software is provided under written license and may be
 used, copied, transmitted, or stored only in accord with that
 written license.
  
 The following legend is applicable only to US Government
 contracts under FAR:
  
                    RESTRICTED RIGHTS LEGEND
  
 Use, reproduction and disclosure by the US Government is
 subject to restrictions as set forth in subparagraphs (a)
 and (c) of the Commercial Computer Software - Restricted
 Rights clause in FAR 52.227-19.
  
 Gaussian, Inc.
 340 Quinnipiac St., Bldg. 40, Wallingford CT 06492
  
  
 ---------------------------------------------------------------
 Warning -- This program may not be used in any manner that
 competes with the business of Gaussian, Inc. or will provide
 assistance to any competitor of Gaussian, Inc.  The licensee
 of this program is prohibited from giving any competitor of
 Gaussian, Inc. access to this program.  By using this program,
 the user acknowledges that Gaussian, Inc. is engaged in the
 business of creating and licensing software in the field of
 computational chemistry and represents and warrants to the
 licensee that it is not a competitor of Gaussian, Inc. and that
 it will not use this program in any manner prohibited above.
 ---------------------------------------------------------------
  

 Cite this work as:
 Gaussian 09, Revision C.01,
 M. J. Frisch, G. W. Trucks, H. B. Schlegel, G. E. Scuseria, 
 M. A. Robb, J. R. Cheeseman, G. Scalmani, V. Barone, B. Mennucci, 
 G. A. Petersson, H. Nakatsuji, M. Caricato, X. Li, H. P. Hratchian, 
 A. F. Izmaylov, J. Bloino, G. Zheng, J. L. Sonnenberg, M. Hada, 
 M. Ehara, K. Toyota, R. Fukuda, J. Hasegawa, M. Ishida, T. Nakajima, 
 Y. Honda, O. Kitao, H. Nakai, T. Vreven, J. A. Montgomery, Jr., 
 J. E. Peralta, F. Ogliaro, M. Bearpark, J. J. Heyd, E. Brothers, 
 K. N. Kudin, V. N. Staroverov, T. Keith, R. Kobayashi, J. Normand, 
 K. Raghavachari, A. Rendell, J. C. Burant, S. S. Iyengar, J. Tomasi, 
 M. Cossi, N. Rega, J. M. Millam, M. Klene, J. E. Knox, J. B. Cross, 
 V. Bakken, C. Adamo, J. Jaramillo, R. Gomperts, R. E. Stratmann, 
 O. Yazyev, A. J. Austin, R. Cammi, C. Pomelli, J. W. Ochterski, 
 R. L. Martin, K. Morokuma, V. G. Zakrzewski, G. A. Voth, 
 P. Salvador, J. J. Dannenberg, S. Dapprich, A. D. Daniels, 
 O. Farkas, J. B. Foresman, J. V. Ortiz, J. Cioslowski, 
 and D. J. Fox, Gaussian, Inc., Wallingford CT, 2010.
 
 ******************************************
 Gaussian 09:  EM64L-G09RevC.01 23-Sep-2011
                28-Apr-2017 
 ******************************************
 %Mem=256MB
 %NProc=48
 Will use up to   48 processors via shared memory.
 ----------------------------------------------------------------------
 #P HF/6-31G* SCF(Conver=6) NoSymm Test Pop=chelpg IOp(6/33=2) GFInput 
 GFPrint
 ----------------------------------------------------------------------
 1/38=1/1;
 2/12=2,15=1,17=6,18=5,40=1/2;
 3/5=1,6=6,7=1,11=9,16=1,24=110,25=1,30=1/1,2,3;
 4//1;
 5/5=2,6=6,38=5/2;
 6/7=2,8=2,9=2,10=2,15=8,20=3,28=1,33=2/1,2;
 99/5=1,9=1/99;
 Leave Link    1 at Fri Apr 28 12:36:15 2017, MaxMem=   33554432 cpu:       3.0
 (Enter /scratch/michal/g09/l101.exe)
 ----------------------------------------------
 MEP - Input generated by R.E.D.-III.x MOLECULE
 ----------------------------------------------
 Charge =  0 Multiplicity = 1
 Symbolic Z-Matrix:
 C                     7.52774   2.21469   0.06305 
 H                     7.36934   2.18074   1.1479 
 C                     6.83      1.00904  -0.58237 
 H                     7.21472   0.08125  -0.14729 
 H                     7.10714   0.99723  -1.64907 
 C                     5.31957   1.06359  -0.45419 
 C                     4.6226    2.36309  -0.87259 
 C                     5.41924   3.56579  -0.27671 
 H                     5.22507   3.60578   0.80417 
 H                     5.03288   4.50071  -0.6955 
 C                     6.9398    3.51192  -0.48987 
 H                     7.18149   3.58678  -1.56057 
 H                     7.41632   4.36866   0. 
 C                     4.64314   0.        0. 
 H                     5.18892  -0.8914    0.31115 
 C                     3.15068  -0.09967   0.1167 
 H                     2.87236  -0.19175   1.17925 
 C                     2.38355   1.06838  -0.52151 
 H                     2.32677   0.85677  -1.59454 
 C                     3.1647    2.39385  -0.29346 
 H                     3.28479   2.48964   0.79859 
 C                     2.34894   3.62362  -0.75685 
 H                     2.29196   3.64086  -1.85049 
 H                     2.87214   4.54115  -0.46629 
 C                     0.91921   3.67653  -0.18437 
 H                     0.97025   3.8127    0.90515 
 H                     0.4114    4.56035  -0.58814 
 C                     0.13224   2.3894   -0.49242 
 C                     0.96722   1.19785   0.06613 
 H                     1.11285   1.42567   1.13647 
 C                     0.        0.        0. 
 H                     0.2624   -0.78616   0.71258 
 H                     0.0292   -0.4646   -0.99085 
 C                    -1.39169   0.62965   0.29076 
 H                    -2.11328   0.34613  -0.4822 
 H                    -1.80919   0.27876   1.24116 
 C                    -1.18377   2.17629   0.33288 
 H                    -0.89511   2.41277   1.36629 
 C                    -0.10062   2.26069  -2.01608 
 H                     0.83153   2.09161  -2.56102 
 H                    -0.76961   1.43304  -2.26366 
 H                    -0.54498   3.17613  -2.41741 
 C                    -2.50007   2.9732    0.0995 
 H                    -3.20286   2.52196   0.81928 
 C                    -3.1647    2.82747  -1.28448 
 H                    -2.66543   3.43361  -2.04602 
 H                    -4.20438   3.16994  -1.23015 
 H                    -3.18166   1.79307  -1.63932 
 C                     4.62968   2.44782  -2.42221 
 H                     4.27227   3.42246  -2.76852 
 H                     5.63682   2.31251  -2.8259 
 H                     3.99815   1.6711   -2.86293 
 O                     2.69415  -1.39271  -0.35489 
 O                     2.93568  -1.49057  -1.78971 
 H                     3.72765  -2.05255  -1.8061 
 O                     8.94844   2.147    -0.08512 
 H                     9.16503   2.20301  -1.02648 
 C                    -2.42478   4.47442   0.46724 
 H                    -1.70359   4.98196  -0.18705 
 H                    -3.40168   4.91947   0.22906 
 C                    -2.10421   4.79848   1.93489 
 H                    -2.79985   4.2429    2.57858 
 H                    -1.09883   4.44364   2.18756 
 C                    -2.20596   6.30355   2.23242 
 H                    -3.21706   6.64611   1.96877 
 H                    -1.52072   6.84092   1.56073 
 C                    -1.90766   6.74514   3.68426 
 H                    -2.03262   7.83806   3.69808 
 C                    -2.90786   6.16405   4.69743 
 H                    -2.80404   5.07682   4.79036 
 H                    -2.7482    6.59339   5.69313 
 H                    -3.94247   6.37734   4.40392 
 C                    -0.45889   6.4523    4.10861 
 H                    -0.26865   5.37531   4.182 
 H                    -0.24476   6.88875   5.0909 
 H                     0.25889   6.8713    3.39349 
 
 NAtoms=     76 NQM=        0 NQMF=       0 NMMI=     76 NMMIF=      0
                NMic=       0 NMicF=      0.
                    Isotopes and Nuclear Properties:
 (Nuclear quadrupole moments (NQMom) in fm**2, nuclear magnetic moments (NMagM)
  in nuclear magnetons)

  Atom         1           2           3           4           5           6           7           8           9          10
 IAtWgt=          12           1          12           1           1          12          12          12           1           1
 AtmWgt=  12.0000000   1.0078250  12.0000000   1.0078250   1.0078250  12.0000000  12.0000000  12.0000000   1.0078250   1.0078250
 NucSpn=           0           1           0           1           1           0           0           0           1           1
 AtZEff=   0.0000000   0.0000000   0.0000000   0.0000000   0.0000000   0.0000000   0.0000000   0.0000000   0.0000000   0.0000000
 NQMom=    0.0000000   0.0000000   0.0000000   0.0000000   0.0000000   0.0000000   0.0000000   0.0000000   0.0000000   0.0000000
 NMagM=    0.0000000   2.7928460   0.0000000   2.7928460   2.7928460   0.0000000   0.0000000   0.0000000   2.7928460   2.7928460

  Atom        11          12          13          14          15          16          17          18          19          20
 IAtWgt=          12           1           1          12           1          12           1          12           1          12
 AtmWgt=  12.0000000   1.0078250   1.0078250  12.0000000   1.0078250  12.0000000   1.0078250  12.0000000   1.0078250  12.0000000
 NucSpn=           0           1           1           0           1           0           1           0           1           0
 AtZEff=   0.0000000   0.0000000   0.0000000   0.0000000   0.0000000   0.0000000   0.0000000   0.0000000   0.0000000   0.0000000
 NQMom=    0.0000000   0.0000000   0.0000000   0.0000000   0.0000000   0.0000000   0.0000000   0.0000000   0.0000000   0.0000000
 NMagM=    0.0000000   2.7928460   2.7928460   0.0000000   2.7928460   0.0000000   2.7928460   0.0000000   2.7928460   0.0000000

  Atom        21          22          23          24          25          26          27          28          29          30
 IAtWgt=           1          12           1           1          12           1           1          12          12           1
 AtmWgt=   1.0078250  12.0000000   1.0078250   1.0078250  12.0000000   1.0078250   1.0078250  12.0000000  12.0000000   1.0078250
 NucSpn=           1           0           1           1           0           1           1           0           0           1
 AtZEff=   0.0000000   0.0000000   0.0000000   0.0000000   0.0000000   0.0000000   0.0000000   0.0000000   0.0000000   0.0000000
 NQMom=    0.0000000   0.0000000   0.0000000   0.0000000   0.0000000   0.0000000   0.0000000   0.0000000   0.0000000   0.0000000
 NMagM=    2.7928460   0.0000000   2.7928460   2.7928460   0.0000000   2.7928460   2.7928460   0.0000000   0.0000000   2.7928460

  Atom        31          32          33          34          35          36          37          38          39          40
 IAtWgt=          12           1           1          12           1           1          12           1          12           1
 AtmWgt=  12.0000000   1.0078250   1.0078250  12.0000000   1.0078250   1.0078250  12.0000000   1.0078250  12.0000000   1.0078250
 NucSpn=           0           1           1           0           1           1           0           1           0           1
 AtZEff=   0.0000000   0.0000000   0.0000000   0.0000000   0.0000000   0.0000000   0.0000000   0.0000000   0.0000000   0.0000000
 NQMom=    0.0000000   0.0000000   0.0000000   0.0000000   0.0000000   0.0000000   0.0000000   0.0000000   0.0000000   0.0000000
 NMagM=    0.0000000   2.7928460   2.7928460   0.0000000   2.7928460   2.7928460   0.0000000   2.7928460   0.0000000   2.7928460

  Atom        41          42          43          44          45          46          47          48          49          50
 IAtWgt=           1           1          12           1          12           1           1           1          12           1
 AtmWgt=   1.0078250   1.0078250  12.0000000   1.0078250  12.0000000   1.0078250   1.0078250   1.0078250  12.0000000   1.0078250
 NucSpn=           1           1           0           1           0           1           1           1           0           1
 AtZEff=   0.0000000   0.0000000   0.0000000   0.0000000   0.0000000   0.0000000   0.0000000   0.0000000   0.0000000   0.0000000
 NQMom=    0.0000000   0.0000000   0.0000000   0.0000000   0.0000000   0.0000000   0.0000000   0.0000000   0.0000000   0.0000000
 NMagM=    2.7928460   2.7928460   0.0000000   2.7928460   0.0000000   2.7928460   2.7928460   2.7928460   0.0000000   2.7928460

  Atom        51          52          53          54          55          56          57          58          59          60
 IAtWgt=           1           1          16          16           1          16           1          12           1           1
 AtmWgt=   1.0078250   1.0078250  15.9949146  15.9949146   1.0078250  15.9949146   1.0078250  12.0000000   1.0078250   1.0078250
 NucSpn=           1           1           0           0           1           0           1           0           1           1
 AtZEff=   0.0000000   0.0000000   0.0000000   0.0000000   0.0000000   0.0000000   0.0000000   0.0000000   0.0000000   0.0000000
 NQMom=    0.0000000   0.0000000   0.0000000   0.0000000   0.0000000   0.0000000   0.0000000   0.0000000   0.0000000   0.0000000
 NMagM=    2.7928460   2.7928460   0.0000000   0.0000000   2.7928460   0.0000000   2.7928460   0.0000000   2.7928460   2.7928460

  Atom        61          62          63          64          65          66          67          68          69          70
 IAtWgt=          12           1           1          12           1           1          12           1          12           1
 AtmWgt=  12.0000000   1.0078250   1.0078250  12.0000000   1.0078250   1.0078250  12.0000000   1.0078250  12.0000000   1.0078250
 NucSpn=           0           1           1           0           1           1           0           1           0           1
 AtZEff=   0.0000000   0.0000000   0.0000000   0.0000000   0.0000000   0.0000000   0.0000000   0.0000000   0.0000000   0.0000000
 NQMom=    0.0000000   0.0000000   0.0000000   0.0000000   0.0000000   0.0000000   0.0000000   0.0000000   0.0000000   0.0000000
 NMagM=    0.0000000   2.7928460   2.7928460   0.0000000   2.7928460   2.7928460   0.0000000   2.7928460   0.0000000   2.7928460

  Atom        71          72          73          74          75          76
 IAtWgt=           1           1          12           1           1           1
 AtmWgt=   1.0078250   1.0078250  12.0000000   1.0078250   1.0078250   1.0078250
 NucSpn=           1           1           0           1           1           1
 AtZEff=   0.0000000   0.0000000   0.0000000   0.0000000   0.0000000   0.0000000
 NQMom=    0.0000000   0.0000000   0.0000000   0.0000000   0.0000000   0.0000000
 NMagM=    2.7928460   2.7928460   0.0000000   2.7928460   2.7928460   2.7928460
 Leave Link  101 at Fri Apr 28 12:36:15 2017, MaxMem=   33554432 cpu:      12.4
 (Enter /scratch/michal/g09/l202.exe)
 Symmetry turned off by external request.
 Stoichiometry    C27H46O3
 Framework group  C1[X(C27H46O3)]
 Deg. of freedom   222
 Full point group                 C1      NOp   1
                          Input orientation:                          
 ---------------------------------------------------------------------
 Center     Atomic      Atomic             Coordinates (Angstroms)
 Number     Number       Type             X           Y           Z
 ---------------------------------------------------------------------
      1          6           0        7.527745    2.214688    0.063050
      2          1           0        7.369340    2.180744    1.147898
      3          6           0        6.830002    1.009040   -0.582370
      4          1           0        7.214723    0.081246   -0.147292
      5          1           0        7.107140    0.997232   -1.649072
      6          6           0        5.319571    1.063587   -0.454191
      7          6           0        4.622601    2.363088   -0.872591
      8          6           0        5.419243    3.565791   -0.276706
      9          1           0        5.225071    3.605782    0.804166
     10          1           0        5.032879    4.500709   -0.695501
     11          6           0        6.939797    3.511917   -0.489867
     12          1           0        7.181491    3.586785   -1.560568
     13          1           0        7.416324    4.368655    0.000000
     14          6           0        4.643137    0.000000    0.000000
     15          1           0        5.188917   -0.891405    0.311146
     16          6           0        3.150684   -0.099667    0.116705
     17          1           0        2.872355   -0.191751    1.179253
     18          6           0        2.383550    1.068378   -0.521508
     19          1           0        2.326772    0.856766   -1.594541
     20          6           0        3.164702    2.393847   -0.293459
     21          1           0        3.284792    2.489636    0.798588
     22          6           0        2.348939    3.623621   -0.756849
     23          1           0        2.291956    3.640860   -1.850488
     24          1           0        2.872138    4.541148   -0.466289
     25          6           0        0.919209    3.676526   -0.184365
     26          1           0        0.970253    3.812696    0.905148
     27          1           0        0.411400    4.560347   -0.588138
     28          6           0        0.132243    2.389404   -0.492424
     29          6           0        0.967224    1.197848    0.066128
     30          1           0        1.112847    1.425668    1.136468
     31          6           0        0.000000    0.000000    0.000000
     32          1           0        0.262397   -0.786160    0.712583
     33          1           0        0.029197   -0.464595   -0.990849
     34          6           0       -1.391685    0.629650    0.290759
     35          1           0       -2.113277    0.346130   -0.482200
     36          1           0       -1.809188    0.278756    1.241161
     37          6           0       -1.183766    2.176294    0.332884
     38          1           0       -0.895112    2.412772    1.366289
     39          6           0       -0.100621    2.260685   -2.016076
     40          1           0        0.831526    2.091612   -2.561021
     41          1           0       -0.769606    1.433037   -2.263661
     42          1           0       -0.544981    3.176132   -2.417411
     43          6           0       -2.500068    2.973204    0.099495
     44          1           0       -3.202860    2.521964    0.819280
     45          6           0       -3.164701    2.827468   -1.284477
     46          1           0       -2.665426    3.433611   -2.046018
     47          1           0       -4.204380    3.169940   -1.230151
     48          1           0       -3.181659    1.793065   -1.639324
     49          6           0        4.629682    2.447824   -2.422214
     50          1           0        4.272268    3.422458   -2.768518
     51          1           0        5.636815    2.312514   -2.825902
     52          1           0        3.998153    1.671099   -2.862928
     53          8           0        2.694150   -1.392711   -0.354889
     54          8           0        2.935682   -1.490570   -1.789709
     55          1           0        3.727645   -2.052549   -1.806105
     56          8           0        8.948435    2.147005   -0.085123
     57          1           0        9.165030    2.203012   -1.026479
     58          6           0       -2.424781    4.474419    0.467242
     59          1           0       -1.703594    4.981955   -0.187051
     60          1           0       -3.401677    4.919473    0.229062
     61          6           0       -2.104208    4.798482    1.934887
     62          1           0       -2.799846    4.242901    2.578580
     63          1           0       -1.098833    4.443639    2.187555
     64          6           0       -2.205956    6.303545    2.232416
     65          1           0       -3.217057    6.646109    1.968768
     66          1           0       -1.520717    6.840923    1.560733
     67          6           0       -1.907656    6.745144    3.684258
     68          1           0       -2.032623    7.838064    3.698083
     69          6           0       -2.907861    6.164046    4.697426
     70          1           0       -2.804043    5.076820    4.790356
     71          1           0       -2.748201    6.593386    5.693126
     72          1           0       -3.942472    6.377340    4.403918
     73          6           0       -0.458889    6.452302    4.108610
     74          1           0       -0.268655    5.375312    4.182003
     75          1           0       -0.244758    6.888755    5.090903
     76          1           0        0.258890    6.871300    3.393494
 ---------------------------------------------------------------------
 Rotational constants (GHZ):      0.2140496      0.0776453      0.0641432
 Leave Link  202 at Fri Apr 28 12:36:15 2017, MaxMem=   33554432 cpu:       0.3
 (Enter /scratch/michal/g09/l301.exe)
 Standard basis: 6-31G(d) (6D, 7F)
 Ernie: Thresh=  0.10000D-02 Tol=  0.10000D-05 Strict=F.
 AO basis set in the form of general basis input (Overlap normalization):
      1 0
 S   6 1.00       0.000000000000
      0.3047524880D+04  0.1834737132D-02
      0.4573695180D+03  0.1403732281D-01
      0.1039486850D+03  0.6884262226D-01
      0.2921015530D+02  0.2321844432D+00
      0.9286662960D+01  0.4679413484D+00
      0.3163926960D+01  0.3623119853D+00
 SP   3 1.00       0.000000000000
      0.7868272350D+01 -0.1193324198D+00  0.6899906659D-01
      0.1881288540D+01 -0.1608541517D+00  0.3164239610D+00
      0.5442492580D+00  0.1143456438D+01  0.7443082909D+00
 SP   1 1.00       0.000000000000
      0.1687144782D+00  0.1000000000D+01  0.1000000000D+01
 D   1 1.00       0.000000000000
      0.8000000000D+00  0.1000000000D+01
 ****
      2 0
 S   3 1.00       0.000000000000
      0.1873113696D+02  0.3349460434D-01
      0.2825394365D+01  0.2347269535D+00
      0.6401216923D+00  0.8137573261D+00
 S   1 1.00       0.000000000000
      0.1612777588D+00  0.1000000000D+01
 ****
      3 0
 S   6 1.00       0.000000000000
      0.3047524880D+04  0.1834737132D-02
      0.4573695180D+03  0.1403732281D-01
      0.1039486850D+03  0.6884262226D-01
      0.2921015530D+02  0.2321844432D+00
      0.9286662960D+01  0.4679413484D+00
      0.3163926960D+01  0.3623119853D+00
 SP   3 1.00       0.000000000000
      0.7868272350D+01 -0.1193324198D+00  0.6899906659D-01
      0.1881288540D+01 -0.1608541517D+00  0.3164239610D+00
      0.5442492580D+00  0.1143456438D+01  0.7443082909D+00
 SP   1 1.00       0.000000000000
      0.1687144782D+00  0.1000000000D+01  0.1000000000D+01
 D   1 1.00       0.000000000000
      0.8000000000D+00  0.1000000000D+01
 ****
      4 0
 S   3 1.00       0.000000000000
      0.1873113696D+02  0.3349460434D-01
      0.2825394365D+01  0.2347269535D+00
      0.6401216923D+00  0.8137573261D+00
 S   1 1.00       0.000000000000
      0.1612777588D+00  0.1000000000D+01
 ****
      5 0
 S   3 1.00       0.000000000000
      0.1873113696D+02  0.3349460434D-01
      0.2825394365D+01  0.2347269535D+00
      0.6401216923D+00  0.8137573261D+00
 S   1 1.00       0.000000000000
      0.1612777588D+00  0.1000000000D+01
 ****
      6 0
 S   6 1.00       0.000000000000
      0.3047524880D+04  0.1834737132D-02
      0.4573695180D+03  0.1403732281D-01
      0.1039486850D+03  0.6884262226D-01
      0.2921015530D+02  0.2321844432D+00
      0.9286662960D+01  0.4679413484D+00
      0.3163926960D+01  0.3623119853D+00
 SP   3 1.00       0.000000000000
      0.7868272350D+01 -0.1193324198D+00  0.6899906659D-01
      0.1881288540D+01 -0.1608541517D+00  0.3164239610D+00
      0.5442492580D+00  0.1143456438D+01  0.7443082909D+00
 SP   1 1.00       0.000000000000
      0.1687144782D+00  0.1000000000D+01  0.1000000000D+01
 D   1 1.00       0.000000000000
      0.8000000000D+00  0.1000000000D+01
 ****
      7 0
 S   6 1.00       0.000000000000
      0.3047524880D+04  0.1834737132D-02
      0.4573695180D+03  0.1403732281D-01
      0.1039486850D+03  0.6884262226D-01
      0.2921015530D+02  0.2321844432D+00
      0.9286662960D+01  0.4679413484D+00
      0.3163926960D+01  0.3623119853D+00
 SP   3 1.00       0.000000000000
      0.7868272350D+01 -0.1193324198D+00  0.6899906659D-01
      0.1881288540D+01 -0.1608541517D+00  0.3164239610D+00
      0.5442492580D+00  0.1143456438D+01  0.7443082909D+00
 SP   1 1.00       0.000000000000
      0.1687144782D+00  0.1000000000D+01  0.1000000000D+01
 D   1 1.00       0.000000000000
      0.8000000000D+00  0.1000000000D+01
 ****
      8 0
 S   6 1.00       0.000000000000
      0.3047524880D+04  0.1834737132D-02
      0.4573695180D+03  0.1403732281D-01
      0.1039486850D+03  0.6884262226D-01
      0.2921015530D+02  0.2321844432D+00
      0.9286662960D+01  0.4679413484D+00
      0.3163926960D+01  0.3623119853D+00
 SP   3 1.00       0.000000000000
      0.7868272350D+01 -0.1193324198D+00  0.6899906659D-01
      0.1881288540D+01 -0.1608541517D+00  0.3164239610D+00
      0.5442492580D+00  0.1143456438D+01  0.7443082909D+00
 SP   1 1.00       0.000000000000
      0.1687144782D+00  0.1000000000D+01  0.1000000000D+01
 D   1 1.00       0.000000000000
      0.8000000000D+00  0.1000000000D+01
 ****
      9 0
 S   3 1.00       0.000000000000
      0.1873113696D+02  0.3349460434D-01
      0.2825394365D+01  0.2347269535D+00
      0.6401216923D+00  0.8137573261D+00
 S   1 1.00       0.000000000000
      0.1612777588D+00  0.1000000000D+01
 ****
     10 0
 S   3 1.00       0.000000000000
      0.1873113696D+02  0.3349460434D-01
      0.2825394365D+01  0.2347269535D+00
      0.6401216923D+00  0.8137573261D+00
 S   1 1.00       0.000000000000
      0.1612777588D+00  0.1000000000D+01
 ****
     11 0
 S   6 1.00       0.000000000000
      0.3047524880D+04  0.1834737132D-02
      0.4573695180D+03  0.1403732281D-01
      0.1039486850D+03  0.6884262226D-01
      0.2921015530D+02  0.2321844432D+00
      0.9286662960D+01  0.4679413484D+00
      0.3163926960D+01  0.3623119853D+00
 SP   3 1.00       0.000000000000
      0.7868272350D+01 -0.1193324198D+00  0.6899906659D-01
      0.1881288540D+01 -0.1608541517D+00  0.3164239610D+00
      0.5442492580D+00  0.1143456438D+01  0.7443082909D+00
 SP   1 1.00       0.000000000000
      0.1687144782D+00  0.1000000000D+01  0.1000000000D+01
 D   1 1.00       0.000000000000
      0.8000000000D+00  0.1000000000D+01
 ****
     12 0
 S   3 1.00       0.000000000000
      0.1873113696D+02  0.3349460434D-01
      0.2825394365D+01  0.2347269535D+00
      0.6401216923D+00  0.8137573261D+00
 S   1 1.00       0.000000000000
      0.1612777588D+00  0.1000000000D+01
 ****
     13 0
 S   3 1.00       0.000000000000
      0.1873113696D+02  0.3349460434D-01
      0.2825394365D+01  0.2347269535D+00
      0.6401216923D+00  0.8137573261D+00
 S   1 1.00       0.000000000000
      0.1612777588D+00  0.1000000000D+01
 ****
     14 0
 S   6 1.00       0.000000000000
      0.3047524880D+04  0.1834737132D-02
      0.4573695180D+03  0.1403732281D-01
      0.1039486850D+03  0.6884262226D-01
      0.2921015530D+02  0.2321844432D+00
      0.9286662960D+01  0.4679413484D+00
      0.3163926960D+01  0.3623119853D+00
 SP   3 1.00       0.000000000000
      0.7868272350D+01 -0.1193324198D+00  0.6899906659D-01
      0.1881288540D+01 -0.1608541517D+00  0.3164239610D+00
      0.5442492580D+00  0.1143456438D+01  0.7443082909D+00
 SP   1 1.00       0.000000000000
      0.1687144782D+00  0.1000000000D+01  0.1000000000D+01
 D   1 1.00       0.000000000000
      0.8000000000D+00  0.1000000000D+01
 ****
     15 0
 S   3 1.00       0.000000000000
      0.1873113696D+02  0.3349460434D-01
      0.2825394365D+01  0.2347269535D+00
      0.6401216923D+00  0.8137573261D+00
 S   1 1.00       0.000000000000
      0.1612777588D+00  0.1000000000D+01
 ****
     16 0
 S   6 1.00       0.000000000000
      0.3047524880D+04  0.1834737132D-02
      0.4573695180D+03  0.1403732281D-01
      0.1039486850D+03  0.6884262226D-01
      0.2921015530D+02  0.2321844432D+00
      0.9286662960D+01  0.4679413484D+00
      0.3163926960D+01  0.3623119853D+00
 SP   3 1.00       0.000000000000
      0.7868272350D+01 -0.1193324198D+00  0.6899906659D-01
      0.1881288540D+01 -0.1608541517D+00  0.3164239610D+00
      0.5442492580D+00  0.1143456438D+01  0.7443082909D+00
 SP   1 1.00       0.000000000000
      0.1687144782D+00  0.1000000000D+01  0.1000000000D+01
 D   1 1.00       0.000000000000
      0.8000000000D+00  0.1000000000D+01
 ****
     17 0
 S   3 1.00       0.000000000000
      0.1873113696D+02  0.3349460434D-01
      0.2825394365D+01  0.2347269535D+00
      0.6401216923D+00  0.8137573261D+00
 S   1 1.00       0.000000000000
      0.1612777588D+00  0.1000000000D+01
 ****
     18 0
 S   6 1.00       0.000000000000
      0.3047524880D+04  0.1834737132D-02
      0.4573695180D+03  0.1403732281D-01
      0.1039486850D+03  0.6884262226D-01
      0.2921015530D+02  0.2321844432D+00
      0.9286662960D+01  0.4679413484D+00
      0.3163926960D+01  0.3623119853D+00
 SP   3 1.00       0.000000000000
      0.7868272350D+01 -0.1193324198D+00  0.6899906659D-01
      0.1881288540D+01 -0.1608541517D+00  0.3164239610D+00
      0.5442492580D+00  0.1143456438D+01  0.7443082909D+00
 SP   1 1.00       0.000000000000
      0.1687144782D+00  0.1000000000D+01  0.1000000000D+01
 D   1 1.00       0.000000000000
      0.8000000000D+00  0.1000000000D+01
 ****
     19 0
 S   3 1.00       0.000000000000
      0.1873113696D+02  0.3349460434D-01
      0.2825394365D+01  0.2347269535D+00
      0.6401216923D+00  0.8137573261D+00
 S   1 1.00       0.000000000000
      0.1612777588D+00  0.1000000000D+01
 ****
     20 0
 S   6 1.00       0.000000000000
      0.3047524880D+04  0.1834737132D-02
      0.4573695180D+03  0.1403732281D-01
      0.1039486850D+03  0.6884262226D-01
      0.2921015530D+02  0.2321844432D+00
      0.9286662960D+01  0.4679413484D+00
      0.3163926960D+01  0.3623119853D+00
 SP   3 1.00       0.000000000000
      0.7868272350D+01 -0.1193324198D+00  0.6899906659D-01
      0.1881288540D+01 -0.1608541517D+00  0.3164239610D+00
      0.5442492580D+00  0.1143456438D+01  0.7443082909D+00
 SP   1 1.00       0.000000000000
      0.1687144782D+00  0.1000000000D+01  0.1000000000D+01
 D   1 1.00       0.000000000000
      0.8000000000D+00  0.1000000000D+01
 ****
     21 0
 S   3 1.00       0.000000000000
      0.1873113696D+02  0.3349460434D-01
      0.2825394365D+01  0.2347269535D+00
      0.6401216923D+00  0.8137573261D+00
 S   1 1.00       0.000000000000
      0.1612777588D+00  0.1000000000D+01
 ****
     22 0
 S   6 1.00       0.000000000000
      0.3047524880D+04  0.1834737132D-02
      0.4573695180D+03  0.1403732281D-01
      0.1039486850D+03  0.6884262226D-01
      0.2921015530D+02  0.2321844432D+00
      0.9286662960D+01  0.4679413484D+00
      0.3163926960D+01  0.3623119853D+00
 SP   3 1.00       0.000000000000
      0.7868272350D+01 -0.1193324198D+00  0.6899906659D-01
      0.1881288540D+01 -0.1608541517D+00  0.3164239610D+00
      0.5442492580D+00  0.1143456438D+01  0.7443082909D+00
 SP   1 1.00       0.000000000000
      0.1687144782D+00  0.1000000000D+01  0.1000000000D+01
 D   1 1.00       0.000000000000
      0.8000000000D+00  0.1000000000D+01
 ****
     23 0
 S   3 1.00       0.000000000000
      0.1873113696D+02  0.3349460434D-01
      0.2825394365D+01  0.2347269535D+00
      0.6401216923D+00  0.8137573261D+00
 S   1 1.00       0.000000000000
      0.1612777588D+00  0.1000000000D+01
 ****
     24 0
 S   3 1.00       0.000000000000
      0.1873113696D+02  0.3349460434D-01
      0.2825394365D+01  0.2347269535D+00
      0.6401216923D+00  0.8137573261D+00
 S   1 1.00       0.000000000000
      0.1612777588D+00  0.1000000000D+01
 ****
     25 0
 S   6 1.00       0.000000000000
      0.3047524880D+04  0.1834737132D-02
      0.4573695180D+03  0.1403732281D-01
      0.1039486850D+03  0.6884262226D-01
      0.2921015530D+02  0.2321844432D+00
      0.9286662960D+01  0.4679413484D+00
      0.3163926960D+01  0.3623119853D+00
 SP   3 1.00       0.000000000000
      0.7868272350D+01 -0.1193324198D+00  0.6899906659D-01
      0.1881288540D+01 -0.1608541517D+00  0.3164239610D+00
      0.5442492580D+00  0.1143456438D+01  0.7443082909D+00
 SP   1 1.00       0.000000000000
      0.1687144782D+00  0.1000000000D+01  0.1000000000D+01
 D   1 1.00       0.000000000000
      0.8000000000D+00  0.1000000000D+01
 ****
     26 0
 S   3 1.00       0.000000000000
      0.1873113696D+02  0.3349460434D-01
      0.2825394365D+01  0.2347269535D+00
      0.6401216923D+00  0.8137573261D+00
 S   1 1.00       0.000000000000
      0.1612777588D+00  0.1000000000D+01
 ****
     27 0
 S   3 1.00       0.000000000000
      0.1873113696D+02  0.3349460434D-01
      0.2825394365D+01  0.2347269535D+00
      0.6401216923D+00  0.8137573261D+00
 S   1 1.00       0.000000000000
      0.1612777588D+00  0.1000000000D+01
 ****
     28 0
 S   6 1.00       0.000000000000
      0.3047524880D+04  0.1834737132D-02
      0.4573695180D+03  0.1403732281D-01
      0.1039486850D+03  0.6884262226D-01
      0.2921015530D+02  0.2321844432D+00
      0.9286662960D+01  0.4679413484D+00
      0.3163926960D+01  0.3623119853D+00
 SP   3 1.00       0.000000000000
      0.7868272350D+01 -0.1193324198D+00  0.6899906659D-01
      0.1881288540D+01 -0.1608541517D+00  0.3164239610D+00
      0.5442492580D+00  0.1143456438D+01  0.7443082909D+00
 SP   1 1.00       0.000000000000
      0.1687144782D+00  0.1000000000D+01  0.1000000000D+01
 D   1 1.00       0.000000000000
      0.8000000000D+00  0.1000000000D+01
 ****
     29 0
 S   6 1.00       0.000000000000
      0.3047524880D+04  0.1834737132D-02
      0.4573695180D+03  0.1403732281D-01
      0.1039486850D+03  0.6884262226D-01
      0.2921015530D+02  0.2321844432D+00
      0.9286662960D+01  0.4679413484D+00
      0.3163926960D+01  0.3623119853D+00
 SP   3 1.00       0.000000000000
      0.7868272350D+01 -0.1193324198D+00  0.6899906659D-01
      0.1881288540D+01 -0.1608541517D+00  0.3164239610D+00
      0.5442492580D+00  0.1143456438D+01  0.7443082909D+00
 SP   1 1.00       0.000000000000
      0.1687144782D+00  0.1000000000D+01  0.1000000000D+01
 D   1 1.00       0.000000000000
      0.8000000000D+00  0.1000000000D+01
 ****
     30 0
 S   3 1.00       0.000000000000
      0.1873113696D+02  0.3349460434D-01
      0.2825394365D+01  0.2347269535D+00
      0.6401216923D+00  0.8137573261D+00
 S   1 1.00       0.000000000000
      0.1612777588D+00  0.1000000000D+01
 ****
     31 0
 S   6 1.00       0.000000000000
      0.3047524880D+04  0.1834737132D-02
      0.4573695180D+03  0.1403732281D-01
      0.1039486850D+03  0.6884262226D-01
      0.2921015530D+02  0.2321844432D+00
      0.9286662960D+01  0.4679413484D+00
      0.3163926960D+01  0.3623119853D+00
 SP   3 1.00       0.000000000000
      0.7868272350D+01 -0.1193324198D+00  0.6899906659D-01
      0.1881288540D+01 -0.1608541517D+00  0.3164239610D+00
      0.5442492580D+00  0.1143456438D+01  0.7443082909D+00
 SP   1 1.00       0.000000000000
      0.1687144782D+00  0.1000000000D+01  0.1000000000D+01
 D   1 1.00       0.000000000000
      0.8000000000D+00  0.1000000000D+01
 ****
     32 0
 S   3 1.00       0.000000000000
      0.1873113696D+02  0.3349460434D-01
      0.2825394365D+01  0.2347269535D+00
      0.6401216923D+00  0.8137573261D+00
 S   1 1.00       0.000000000000
      0.1612777588D+00  0.1000000000D+01
 ****
     33 0
 S   3 1.00       0.000000000000
      0.1873113696D+02  0.3349460434D-01
      0.2825394365D+01  0.2347269535D+00
      0.6401216923D+00  0.8137573261D+00
 S   1 1.00       0.000000000000
      0.1612777588D+00  0.1000000000D+01
 ****
     34 0
 S   6 1.00       0.000000000000
      0.3047524880D+04  0.1834737132D-02
      0.4573695180D+03  0.1403732281D-01
      0.1039486850D+03  0.6884262226D-01
      0.2921015530D+02  0.2321844432D+00
      0.9286662960D+01  0.4679413484D+00
      0.3163926960D+01  0.3623119853D+00
 SP   3 1.00       0.000000000000
      0.7868272350D+01 -0.1193324198D+00  0.6899906659D-01
      0.1881288540D+01 -0.1608541517D+00  0.3164239610D+00
      0.5442492580D+00  0.1143456438D+01  0.7443082909D+00
 SP   1 1.00       0.000000000000
      0.1687144782D+00  0.1000000000D+01  0.1000000000D+01
 D   1 1.00       0.000000000000
      0.8000000000D+00  0.1000000000D+01
 ****
     35 0
 S   3 1.00       0.000000000000
      0.1873113696D+02  0.3349460434D-01
      0.2825394365D+01  0.2347269535D+00
      0.6401216923D+00  0.8137573261D+00
 S   1 1.00       0.000000000000
      0.1612777588D+00  0.1000000000D+01
 ****
     36 0
 S   3 1.00       0.000000000000
      0.1873113696D+02  0.3349460434D-01
      0.2825394365D+01  0.2347269535D+00
      0.6401216923D+00  0.8137573261D+00
 S   1 1.00       0.000000000000
      0.1612777588D+00  0.1000000000D+01
 ****
     37 0
 S   6 1.00       0.000000000000
      0.3047524880D+04  0.1834737132D-02
      0.4573695180D+03  0.1403732281D-01
      0.1039486850D+03  0.6884262226D-01
      0.2921015530D+02  0.2321844432D+00
      0.9286662960D+01  0.4679413484D+00
      0.3163926960D+01  0.3623119853D+00
 SP   3 1.00       0.000000000000
      0.7868272350D+01 -0.1193324198D+00  0.6899906659D-01
      0.1881288540D+01 -0.1608541517D+00  0.3164239610D+00
      0.5442492580D+00  0.1143456438D+01  0.7443082909D+00
 SP   1 1.00       0.000000000000
      0.1687144782D+00  0.1000000000D+01  0.1000000000D+01
 D   1 1.00       0.000000000000
      0.8000000000D+00  0.1000000000D+01
 ****
     38 0
 S   3 1.00       0.000000000000
      0.1873113696D+02  0.3349460434D-01
      0.2825394365D+01  0.2347269535D+00
      0.6401216923D+00  0.8137573261D+00
 S   1 1.00       0.000000000000
      0.1612777588D+00  0.1000000000D+01
 ****
     39 0
 S   6 1.00       0.000000000000
      0.3047524880D+04  0.1834737132D-02
      0.4573695180D+03  0.1403732281D-01
      0.1039486850D+03  0.6884262226D-01
      0.2921015530D+02  0.2321844432D+00
      0.9286662960D+01  0.4679413484D+00
      0.3163926960D+01  0.3623119853D+00
 SP   3 1.00       0.000000000000
      0.7868272350D+01 -0.1193324198D+00  0.6899906659D-01
      0.1881288540D+01 -0.1608541517D+00  0.3164239610D+00
      0.5442492580D+00  0.1143456438D+01  0.7443082909D+00
 SP   1 1.00       0.000000000000
      0.1687144782D+00  0.1000000000D+01  0.1000000000D+01
 D   1 1.00       0.000000000000
      0.8000000000D+00  0.1000000000D+01
 ****
     40 0
 S   3 1.00       0.000000000000
      0.1873113696D+02  0.3349460434D-01
      0.2825394365D+01  0.2347269535D+00
      0.6401216923D+00  0.8137573261D+00
 S   1 1.00       0.000000000000
      0.1612777588D+00  0.1000000000D+01
 ****
     41 0
 S   3 1.00       0.000000000000
      0.1873113696D+02  0.3349460434D-01
      0.2825394365D+01  0.2347269535D+00
      0.6401216923D+00  0.8137573261D+00
 S   1 1.00       0.000000000000
      0.1612777588D+00  0.1000000000D+01
 ****
     42 0
 S   3 1.00       0.000000000000
      0.1873113696D+02  0.3349460434D-01
      0.2825394365D+01  0.2347269535D+00
      0.6401216923D+00  0.8137573261D+00
 S   1 1.00       0.000000000000
      0.1612777588D+00  0.1000000000D+01
 ****
     43 0
 S   6 1.00       0.000000000000
      0.3047524880D+04  0.1834737132D-02
      0.4573695180D+03  0.1403732281D-01
      0.1039486850D+03  0.6884262226D-01
      0.2921015530D+02  0.2321844432D+00
      0.9286662960D+01  0.4679413484D+00
      0.3163926960D+01  0.3623119853D+00
 SP   3 1.00       0.000000000000
      0.7868272350D+01 -0.1193324198D+00  0.6899906659D-01
      0.1881288540D+01 -0.1608541517D+00  0.3164239610D+00
      0.5442492580D+00  0.1143456438D+01  0.7443082909D+00
 SP   1 1.00       0.000000000000
      0.1687144782D+00  0.1000000000D+01  0.1000000000D+01
 D   1 1.00       0.000000000000
      0.8000000000D+00  0.1000000000D+01
 ****
     44 0
 S   3 1.00       0.000000000000
      0.1873113696D+02  0.3349460434D-01
      0.2825394365D+01  0.2347269535D+00
      0.6401216923D+00  0.8137573261D+00
 S   1 1.00       0.000000000000
      0.1612777588D+00  0.1000000000D+01
 ****
     45 0
 S   6 1.00       0.000000000000
      0.3047524880D+04  0.1834737132D-02
      0.4573695180D+03  0.1403732281D-01
      0.1039486850D+03  0.6884262226D-01
      0.2921015530D+02  0.2321844432D+00
      0.9286662960D+01  0.4679413484D+00
      0.3163926960D+01  0.3623119853D+00
 SP   3 1.00       0.000000000000
      0.7868272350D+01 -0.1193324198D+00  0.6899906659D-01
      0.1881288540D+01 -0.1608541517D+00  0.3164239610D+00
      0.5442492580D+00  0.1143456438D+01  0.7443082909D+00
 SP   1 1.00       0.000000000000
      0.1687144782D+00  0.1000000000D+01  0.1000000000D+01
 D   1 1.00       0.000000000000
      0.8000000000D+00  0.1000000000D+01
 ****
     46 0
 S   3 1.00       0.000000000000
      0.1873113696D+02  0.3349460434D-01
      0.2825394365D+01  0.2347269535D+00
      0.6401216923D+00  0.8137573261D+00
 S   1 1.00       0.000000000000
      0.1612777588D+00  0.1000000000D+01
 ****
     47 0
 S   3 1.00       0.000000000000
      0.1873113696D+02  0.3349460434D-01
      0.2825394365D+01  0.2347269535D+00
      0.6401216923D+00  0.8137573261D+00
 S   1 1.00       0.000000000000
      0.1612777588D+00  0.1000000000D+01
 ****
     48 0
 S   3 1.00       0.000000000000
      0.1873113696D+02  0.3349460434D-01
      0.2825394365D+01  0.2347269535D+00
      0.6401216923D+00  0.8137573261D+00
 S   1 1.00       0.000000000000
      0.1612777588D+00  0.1000000000D+01
 ****
     49 0
 S   6 1.00       0.000000000000
      0.3047524880D+04  0.1834737132D-02
      0.4573695180D+03  0.1403732281D-01
      0.1039486850D+03  0.6884262226D-01
      0.2921015530D+02  0.2321844432D+00
      0.9286662960D+01  0.4679413484D+00
      0.3163926960D+01  0.3623119853D+00
 SP   3 1.00       0.000000000000
      0.7868272350D+01 -0.1193324198D+00  0.6899906659D-01
      0.1881288540D+01 -0.1608541517D+00  0.3164239610D+00
      0.5442492580D+00  0.1143456438D+01  0.7443082909D+00
 SP   1 1.00       0.000000000000
      0.1687144782D+00  0.1000000000D+01  0.1000000000D+01
 D   1 1.00       0.000000000000
      0.8000000000D+00  0.1000000000D+01
 ****
     50 0
 S   3 1.00       0.000000000000
      0.1873113696D+02  0.3349460434D-01
      0.2825394365D+01  0.2347269535D+00
      0.6401216923D+00  0.8137573261D+00
 S   1 1.00       0.000000000000
      0.1612777588D+00  0.1000000000D+01
 ****
     51 0
 S   3 1.00       0.000000000000
      0.1873113696D+02  0.3349460434D-01
      0.2825394365D+01  0.2347269535D+00
      0.6401216923D+00  0.8137573261D+00
 S   1 1.00       0.000000000000
      0.1612777588D+00  0.1000000000D+01
 ****
     52 0
 S   3 1.00       0.000000000000
      0.1873113696D+02  0.3349460434D-01
      0.2825394365D+01  0.2347269535D+00
      0.6401216923D+00  0.8137573261D+00
 S   1 1.00       0.000000000000
      0.1612777588D+00  0.1000000000D+01
 ****
     53 0
 S   6 1.00       0.000000000000
      0.5484671660D+04  0.1831074430D-02
      0.8252349460D+03  0.1395017220D-01
      0.1880469580D+03  0.6844507810D-01
      0.5296450000D+02  0.2327143360D+00
      0.1689757040D+02  0.4701928980D+00
      0.5799635340D+01  0.3585208530D+00
 SP   3 1.00       0.000000000000
      0.1553961625D+02 -0.1107775495D+00  0.7087426823D-01
      0.3599933586D+01 -0.1480262627D+00  0.3397528391D+00
      0.1013761750D+01  0.1130767015D+01  0.7271585773D+00
 SP   1 1.00       0.000000000000
      0.2700058226D+00  0.1000000000D+01  0.1000000000D+01
 D   1 1.00       0.000000000000
      0.8000000000D+00  0.1000000000D+01
 ****
     54 0
 S   6 1.00       0.000000000000
      0.5484671660D+04  0.1831074430D-02
      0.8252349460D+03  0.1395017220D-01
      0.1880469580D+03  0.6844507810D-01
      0.5296450000D+02  0.2327143360D+00
      0.1689757040D+02  0.4701928980D+00
      0.5799635340D+01  0.3585208530D+00
 SP   3 1.00       0.000000000000
      0.1553961625D+02 -0.1107775495D+00  0.7087426823D-01
      0.3599933586D+01 -0.1480262627D+00  0.3397528391D+00
      0.1013761750D+01  0.1130767015D+01  0.7271585773D+00
 SP   1 1.00       0.000000000000
      0.2700058226D+00  0.1000000000D+01  0.1000000000D+01
 D   1 1.00       0.000000000000
      0.8000000000D+00  0.1000000000D+01
 ****
     55 0
 S   3 1.00       0.000000000000
      0.1873113696D+02  0.3349460434D-01
      0.2825394365D+01  0.2347269535D+00
      0.6401216923D+00  0.8137573261D+00
 S   1 1.00       0.000000000000
      0.1612777588D+00  0.1000000000D+01
 ****
     56 0
 S   6 1.00       0.000000000000
      0.5484671660D+04  0.1831074430D-02
      0.8252349460D+03  0.1395017220D-01
      0.1880469580D+03  0.6844507810D-01
      0.5296450000D+02  0.2327143360D+00
      0.1689757040D+02  0.4701928980D+00
      0.5799635340D+01  0.3585208530D+00
 SP   3 1.00       0.000000000000
      0.1553961625D+02 -0.1107775495D+00  0.7087426823D-01
      0.3599933586D+01 -0.1480262627D+00  0.3397528391D+00
      0.1013761750D+01  0.1130767015D+01  0.7271585773D+00
 SP   1 1.00       0.000000000000
      0.2700058226D+00  0.1000000000D+01  0.1000000000D+01
 D   1 1.00       0.000000000000
      0.8000000000D+00  0.1000000000D+01
 ****
     57 0
 S   3 1.00       0.000000000000
      0.1873113696D+02  0.3349460434D-01
      0.2825394365D+01  0.2347269535D+00
      0.6401216923D+00  0.8137573261D+00
 S   1 1.00       0.000000000000
      0.1612777588D+00  0.1000000000D+01
 ****
     58 0
 S   6 1.00       0.000000000000
      0.3047524880D+04  0.1834737132D-02
      0.4573695180D+03  0.1403732281D-01
      0.1039486850D+03  0.6884262226D-01
      0.2921015530D+02  0.2321844432D+00
      0.9286662960D+01  0.4679413484D+00
      0.3163926960D+01  0.3623119853D+00
 SP   3 1.00       0.000000000000
      0.7868272350D+01 -0.1193324198D+00  0.6899906659D-01
      0.1881288540D+01 -0.1608541517D+00  0.3164239610D+00
      0.5442492580D+00  0.1143456438D+01  0.7443082909D+00
 SP   1 1.00       0.000000000000
      0.1687144782D+00  0.1000000000D+01  0.1000000000D+01
 D   1 1.00       0.000000000000
      0.8000000000D+00  0.1000000000D+01
 ****
     59 0
 S   3 1.00       0.000000000000
      0.1873113696D+02  0.3349460434D-01
      0.2825394365D+01  0.2347269535D+00
      0.6401216923D+00  0.8137573261D+00
 S   1 1.00       0.000000000000
      0.1612777588D+00  0.1000000000D+01
 ****
     60 0
 S   3 1.00       0.000000000000
      0.1873113696D+02  0.3349460434D-01
      0.2825394365D+01  0.2347269535D+00
      0.6401216923D+00  0.8137573261D+00
 S   1 1.00       0.000000000000
      0.1612777588D+00  0.1000000000D+01
 ****
     61 0
 S   6 1.00       0.000000000000
      0.3047524880D+04  0.1834737132D-02
      0.4573695180D+03  0.1403732281D-01
      0.1039486850D+03  0.6884262226D-01
      0.2921015530D+02  0.2321844432D+00
      0.9286662960D+01  0.4679413484D+00
      0.3163926960D+01  0.3623119853D+00
 SP   3 1.00       0.000000000000
      0.7868272350D+01 -0.1193324198D+00  0.6899906659D-01
      0.1881288540D+01 -0.1608541517D+00  0.3164239610D+00
      0.5442492580D+00  0.1143456438D+01  0.7443082909D+00
 SP   1 1.00       0.000000000000
      0.1687144782D+00  0.1000000000D+01  0.1000000000D+01
 D   1 1.00       0.000000000000
      0.8000000000D+00  0.1000000000D+01
 ****
     62 0
 S   3 1.00       0.000000000000
      0.1873113696D+02  0.3349460434D-01
      0.2825394365D+01  0.2347269535D+00
      0.6401216923D+00  0.8137573261D+00
 S   1 1.00       0.000000000000
      0.1612777588D+00  0.1000000000D+01
 ****
     63 0
 S   3 1.00       0.000000000000
      0.1873113696D+02  0.3349460434D-01
      0.2825394365D+01  0.2347269535D+00
      0.6401216923D+00  0.8137573261D+00
 S   1 1.00       0.000000000000
      0.1612777588D+00  0.1000000000D+01
 ****
     64 0
 S   6 1.00       0.000000000000
      0.3047524880D+04  0.1834737132D-02
      0.4573695180D+03  0.1403732281D-01
      0.1039486850D+03  0.6884262226D-01
      0.2921015530D+02  0.2321844432D+00
      0.9286662960D+01  0.4679413484D+00
      0.3163926960D+01  0.3623119853D+00
 SP   3 1.00       0.000000000000
      0.7868272350D+01 -0.1193324198D+00  0.6899906659D-01
      0.1881288540D+01 -0.1608541517D+00  0.3164239610D+00
      0.5442492580D+00  0.1143456438D+01  0.7443082909D+00
 SP   1 1.00       0.000000000000
      0.1687144782D+00  0.1000000000D+01  0.1000000000D+01
 D   1 1.00       0.000000000000
      0.8000000000D+00  0.1000000000D+01
 ****
     65 0
 S   3 1.00       0.000000000000
      0.1873113696D+02  0.3349460434D-01
      0.2825394365D+01  0.2347269535D+00
      0.6401216923D+00  0.8137573261D+00
 S   1 1.00       0.000000000000
      0.1612777588D+00  0.1000000000D+01
 ****
     66 0
 S   3 1.00       0.000000000000
      0.1873113696D+02  0.3349460434D-01
      0.2825394365D+01  0.2347269535D+00
      0.6401216923D+00  0.8137573261D+00
 S   1 1.00       0.000000000000
      0.1612777588D+00  0.1000000000D+01
 ****
     67 0
 S   6 1.00       0.000000000000
      0.3047524880D+04  0.1834737132D-02
      0.4573695180D+03  0.1403732281D-01
      0.1039486850D+03  0.6884262226D-01
      0.2921015530D+02  0.2321844432D+00
      0.9286662960D+01  0.4679413484D+00
      0.3163926960D+01  0.3623119853D+00
 SP   3 1.00       0.000000000000
      0.7868272350D+01 -0.1193324198D+00  0.6899906659D-01
      0.1881288540D+01 -0.1608541517D+00  0.3164239610D+00
      0.5442492580D+00  0.1143456438D+01  0.7443082909D+00
 SP   1 1.00       0.000000000000
      0.1687144782D+00  0.1000000000D+01  0.1000000000D+01
 D   1 1.00       0.000000000000
      0.8000000000D+00  0.1000000000D+01
 ****
     68 0
 S   3 1.00       0.000000000000
      0.1873113696D+02  0.3349460434D-01
      0.2825394365D+01  0.2347269535D+00
      0.6401216923D+00  0.8137573261D+00
 S   1 1.00       0.000000000000
      0.1612777588D+00  0.1000000000D+01
 ****
     69 0
 S   6 1.00       0.000000000000
      0.3047524880D+04  0.1834737132D-02
      0.4573695180D+03  0.1403732281D-01
      0.1039486850D+03  0.6884262226D-01
      0.2921015530D+02  0.2321844432D+00
      0.9286662960D+01  0.4679413484D+00
      0.3163926960D+01  0.3623119853D+00
 SP   3 1.00       0.000000000000
      0.7868272350D+01 -0.1193324198D+00  0.6899906659D-01
      0.1881288540D+01 -0.1608541517D+00  0.3164239610D+00
      0.5442492580D+00  0.1143456438D+01  0.7443082909D+00
 SP   1 1.00       0.000000000000
      0.1687144782D+00  0.1000000000D+01  0.1000000000D+01
 D   1 1.00       0.000000000000
      0.8000000000D+00  0.1000000000D+01
 ****
     70 0
 S   3 1.00       0.000000000000
      0.1873113696D+02  0.3349460434D-01
      0.2825394365D+01  0.2347269535D+00
      0.6401216923D+00  0.8137573261D+00
 S   1 1.00       0.000000000000
      0.1612777588D+00  0.1000000000D+01
 ****
     71 0
 S   3 1.00       0.000000000000
      0.1873113696D+02  0.3349460434D-01
      0.2825394365D+01  0.2347269535D+00
      0.6401216923D+00  0.8137573261D+00
 S   1 1.00       0.000000000000
      0.1612777588D+00  0.1000000000D+01
 ****
     72 0
 S   3 1.00       0.000000000000
      0.1873113696D+02  0.3349460434D-01
      0.2825394365D+01  0.2347269535D+00
      0.6401216923D+00  0.8137573261D+00
 S   1 1.00       0.000000000000
      0.1612777588D+00  0.1000000000D+01
 ****
     73 0
 S   6 1.00       0.000000000000
      0.3047524880D+04  0.1834737132D-02
      0.4573695180D+03  0.1403732281D-01
      0.1039486850D+03  0.6884262226D-01
      0.2921015530D+02  0.2321844432D+00
      0.9286662960D+01  0.4679413484D+00
      0.3163926960D+01  0.3623119853D+00
 SP   3 1.00       0.000000000000
      0.7868272350D+01 -0.1193324198D+00  0.6899906659D-01
      0.1881288540D+01 -0.1608541517D+00  0.3164239610D+00
      0.5442492580D+00  0.1143456438D+01  0.7443082909D+00
 SP   1 1.00       0.000000000000
      0.1687144782D+00  0.1000000000D+01  0.1000000000D+01
 D   1 1.00       0.000000000000
      0.8000000000D+00  0.1000000000D+01
 ****
     74 0
 S   3 1.00       0.000000000000
      0.1873113696D+02  0.3349460434D-01
      0.2825394365D+01  0.2347269535D+00
      0.6401216923D+00  0.8137573261D+00
 S   1 1.00       0.000000000000
      0.1612777588D+00  0.1000000000D+01
 ****
     75 0
 S   3 1.00       0.000000000000
      0.1873113696D+02  0.3349460434D-01
      0.2825394365D+01  0.2347269535D+00
      0.6401216923D+00  0.8137573261D+00
 S   1 1.00       0.000000000000
      0.1612777588D+00  0.1000000000D+01
 ****
     76 0
 S   3 1.00       0.000000000000
      0.1873113696D+02  0.3349460434D-01
      0.2825394365D+01  0.2347269535D+00
      0.6401216923D+00  0.8137573261D+00
 S   1 1.00       0.000000000000
      0.1612777588D+00  0.1000000000D+01
 ****

 AO basis set (Overlap normalization):
 Atom C1       Shell     1 S   6     bf    1 -     1         14.225375730103          4.185154356706          0.119147535035
      0.3047524880D+04  0.1834737132D-02
      0.4573695180D+03  0.1403732281D-01
      0.1039486850D+03  0.6884262226D-01
      0.2921015530D+02  0.2321844432D+00
      0.9286662960D+01  0.4679413484D+00
      0.3163926960D+01  0.3623119853D+00
 Atom C1       Shell     2 SP   3    bf    2 -     5         14.225375730103          4.185154356706          0.119147535035
      0.7868272350D+01 -0.1193324198D+00  0.6899906659D-01
      0.1881288540D+01 -0.1608541517D+00  0.3164239610D+00
      0.5442492580D+00  0.1143456438D+01  0.7443082909D+00
 Atom C1       Shell     3 SP   1    bf    6 -     9         14.225375730103          4.185154356706          0.119147535035
      0.1687144782D+00  0.1000000000D+01  0.1000000000D+01
 Atom C1       Shell     4 D   1     bf   10 -    15         14.225375730103          4.185154356706          0.119147535035
      0.8000000000D+00  0.1000000000D+01
 Atom H2       Shell     5 S   3     bf   16 -    16         13.926034134455          4.121008113351          2.169212451645
      0.1873113696D+02  0.3349460434D-01
      0.2825394365D+01  0.2347269535D+00
      0.6401216923D+00  0.8137573261D+00
 Atom H2       Shell     6 S   1     bf   17 -    17         13.926034134455          4.121008113351          2.169212451645
      0.1612777588D+00  0.1000000000D+01
 Atom C3       Shell     7 S   6     bf   18 -    18         12.906832435582          1.906809464997         -1.100519996981
      0.3047524880D+04  0.1834737132D-02
      0.4573695180D+03  0.1403732281D-01
      0.1039486850D+03  0.6884262226D-01
      0.2921015530D+02  0.2321844432D+00
      0.9286662960D+01  0.4679413484D+00
      0.3163926960D+01  0.3623119853D+00
 Atom C3       Shell     8 SP   3    bf   19 -    22         12.906832435582          1.906809464997         -1.100519996981
      0.7868272350D+01 -0.1193324198D+00  0.6899906659D-01
      0.1881288540D+01 -0.1608541517D+00  0.3164239610D+00
      0.5442492580D+00  0.1143456438D+01  0.7443082909D+00
 Atom C3       Shell     9 SP   1    bf   23 -    26         12.906832435582          1.906809464997         -1.100519996981
      0.1687144782D+00  0.1000000000D+01  0.1000000000D+01
 Atom C3       Shell    10 D   1     bf   27 -    32         12.906832435582          1.906809464997         -1.100519996981
      0.8000000000D+00  0.1000000000D+01
 Atom H4       Shell    11 S   3     bf   33 -    33         13.633850065508          0.153533615358         -0.278341673846
      0.1873113696D+02  0.3349460434D-01
      0.2825394365D+01  0.2347269535D+00
      0.6401216923D+00  0.8137573261D+00
 Atom H4       Shell    12 S   1     bf   34 -    34         13.633850065508          0.153533615358         -0.278341673846
      0.1612777588D+00  0.1000000000D+01
 Atom H5       Shell    13 S   3     bf   35 -    35         13.430547318803          1.884496089046         -3.116294850252
      0.1873113696D+02  0.3349460434D-01
      0.2825394365D+01  0.2347269535D+00
      0.6401216923D+00  0.8137573261D+00
 Atom H5       Shell    14 S   1     bf   36 -    36         13.430547318803          1.884496089046         -3.116294850252
      0.1612777588D+00  0.1000000000D+01
 Atom C6       Shell    15 S   6     bf   37 -    37         10.052532202160          2.009887940628         -0.858296205179
      0.3047524880D+04  0.1834737132D-02
      0.4573695180D+03  0.1403732281D-01
      0.1039486850D+03  0.6884262226D-01
      0.2921015530D+02  0.2321844432D+00
      0.9286662960D+01  0.4679413484D+00
      0.3163926960D+01  0.3623119853D+00
 Atom C6       Shell    16 SP   3    bf   38 -    41         10.052532202160          2.009887940628         -0.858296205179
      0.7868272350D+01 -0.1193324198D+00  0.6899906659D-01
      0.1881288540D+01 -0.1608541517D+00  0.3164239610D+00
      0.5442492580D+00  0.1143456438D+01  0.7443082909D+00
 Atom C6       Shell    17 SP   1    bf   42 -    45         10.052532202160          2.009887940628         -0.858296205179
      0.1687144782D+00  0.1000000000D+01  0.1000000000D+01
 Atom C6       Shell    18 D   1     bf   46 -    51         10.052532202160          2.009887940628         -0.858296205179
      0.8000000000D+00  0.1000000000D+01
 Atom C7       Shell    19 S   6     bf   52 -    52          8.735449533658          4.465588637682         -1.648958734117
      0.3047524880D+04  0.1834737132D-02
      0.4573695180D+03  0.1403732281D-01
      0.1039486850D+03  0.6884262226D-01
      0.2921015530D+02  0.2321844432D+00
      0.9286662960D+01  0.4679413484D+00
      0.3163926960D+01  0.3623119853D+00
 Atom C7       Shell    20 SP   3    bf   53 -    56          8.735449533658          4.465588637682         -1.648958734117
      0.7868272350D+01 -0.1193324198D+00  0.6899906659D-01
      0.1881288540D+01 -0.1608541517D+00  0.3164239610D+00
      0.5442492580D+00  0.1143456438D+01  0.7443082909D+00
 Atom C7       Shell    21 SP   1    bf   57 -    60          8.735449533658          4.465588637682         -1.648958734117
      0.1687144782D+00  0.1000000000D+01  0.1000000000D+01
 Atom C7       Shell    22 D   1     bf   61 -    66          8.735449533658          4.465588637682         -1.648958734117
      0.8000000000D+00  0.1000000000D+01
 Atom C8       Shell    23 S   6     bf   67 -    67         10.240884626229          6.738369230793         -0.522897671155
      0.3047524880D+04  0.1834737132D-02
      0.4573695180D+03  0.1403732281D-01
      0.1039486850D+03  0.6884262226D-01
      0.2921015530D+02  0.2321844432D+00
      0.9286662960D+01  0.4679413484D+00
      0.3163926960D+01  0.3623119853D+00
 Atom C8       Shell    24 SP   3    bf   68 -    71         10.240884626229          6.738369230793         -0.522897671155
      0.7868272350D+01 -0.1193324198D+00  0.6899906659D-01
      0.1881288540D+01 -0.1608541517D+00  0.3164239610D+00
      0.5442492580D+00  0.1143456438D+01  0.7443082909D+00
 Atom C8       Shell    25 SP   1    bf   72 -    75         10.240884626229          6.738369230793         -0.522897671155
      0.1687144782D+00  0.1000000000D+01  0.1000000000D+01
 Atom C8       Shell    26 D   1     bf   76 -    81         10.240884626229          6.738369230793         -0.522897671155
      0.8000000000D+00  0.1000000000D+01
 Atom H9       Shell    27 S   3     bf   82 -    82          9.873952836938          6.813940134738          1.519653580967
      0.1873113696D+02  0.3349460434D-01
      0.2825394365D+01  0.2347269535D+00
      0.6401216923D+00  0.8137573261D+00
 Atom H9       Shell    28 S   1     bf   83 -    83          9.873952836938          6.813940134738          1.519653580967
      0.1612777588D+00  0.1000000000D+01
 Atom H10      Shell    29 S   3     bf   84 -    84          9.510762573109          8.505107149252         -1.314306811991
      0.1873113696D+02  0.3349460434D-01
      0.2825394365D+01  0.2347269535D+00
      0.6401216923D+00  0.8137573261D+00
 Atom H10      Shell    30 S   1     bf   85 -    85          9.510762573109          8.505107149252         -1.314306811991
      0.1612777588D+00  0.1000000000D+01
 Atom C11      Shell    31 S   6     bf   86 -    86         13.114315521054          6.636561577090         -0.925714660511
      0.3047524880D+04  0.1834737132D-02
      0.4573695180D+03  0.1403732281D-01
      0.1039486850D+03  0.6884262226D-01
      0.2921015530D+02  0.2321844432D+00
      0.9286662960D+01  0.4679413484D+00
      0.3163926960D+01  0.3623119853D+00
 Atom C11      Shell    32 SP   3    bf   87 -    90         13.114315521054          6.636561577090         -0.925714660511
      0.7868272350D+01 -0.1193324198D+00  0.6899906659D-01
      0.1881288540D+01 -0.1608541517D+00  0.3164239610D+00
      0.5442492580D+00  0.1143456438D+01  0.7443082909D+00
 Atom C11      Shell    33 SP   1    bf   91 -    94         13.114315521054          6.636561577090         -0.925714660511
      0.1687144782D+00  0.1000000000D+01  0.1000000000D+01
 Atom C11      Shell    34 D   1     bf   95 -   100         13.114315521054          6.636561577090         -0.925714660511
      0.8000000000D+00  0.1000000000D+01
 Atom H12      Shell    35 S   3     bf  101 -   101         13.571050970119          6.778040723933         -2.949046604177
      0.1873113696D+02  0.3349460434D-01
      0.2825394365D+01  0.2347269535D+00
      0.6401216923D+00  0.8137573261D+00
 Atom H12      Shell    36 S   1     bf  102 -   102         13.571050970119          6.778040723933         -2.949046604177
      0.1612777588D+00  0.1000000000D+01
 Atom H13      Shell    37 S   3     bf  103 -   103         14.014821518411          8.255561726931          0.000000000000
      0.1873113696D+02  0.3349460434D-01
      0.2825394365D+01  0.2347269535D+00
      0.6401216923D+00  0.8137573261D+00
 Atom H13      Shell    38 S   1     bf  104 -   104         14.014821518411          8.255561726931          0.000000000000
      0.1612777588D+00  0.1000000000D+01
 Atom C14      Shell    39 S   6     bf  105 -   105          8.774257781003          0.000000000000          0.000000000000
      0.3047524880D+04  0.1834737132D-02
      0.4573695180D+03  0.1403732281D-01
      0.1039486850D+03  0.6884262226D-01
      0.2921015530D+02  0.2321844432D+00
      0.9286662960D+01  0.4679413484D+00
      0.3163926960D+01  0.3623119853D+00
 Atom C14      Shell    40 SP   3    bf  106 -   109          8.774257781003          0.000000000000          0.000000000000
      0.7868272350D+01 -0.1193324198D+00  0.6899906659D-01
      0.1881288540D+01 -0.1608541517D+00  0.3164239610D+00
      0.5442492580D+00  0.1143456438D+01  0.7443082909D+00
 Atom C14      Shell    41 SP   1    bf  110 -   113          8.774257781003          0.000000000000          0.000000000000
      0.1687144782D+00  0.1000000000D+01  0.1000000000D+01
 Atom C14      Shell    42 D   1     bf  114 -   119          8.774257781003          0.000000000000          0.000000000000
      0.8000000000D+00  0.1000000000D+01
 Atom H15      Shell    43 S   3     bf  120 -   120          9.805631621638         -1.684510869951          0.587980576165
      0.1873113696D+02  0.3349460434D-01
      0.2825394365D+01  0.2347269535D+00
      0.6401216923D+00  0.8137573261D+00
 Atom H15      Shell    44 S   1     bf  121 -   121          9.805631621638         -1.684510869951          0.587980576165
      0.1612777588D+00  0.1000000000D+01
 Atom C16      Shell    45 S   6     bf  122 -   122          5.953929588908         -0.188343372281          0.220540412749
      0.3047524880D+04  0.1834737132D-02
      0.4573695180D+03  0.1403732281D-01
      0.1039486850D+03  0.6884262226D-01
      0.2921015530D+02  0.2321844432D+00
      0.9286662960D+01  0.4679413484D+00
      0.3163926960D+01  0.3623119853D+00
 Atom C16      Shell    46 SP   3    bf  123 -   126          5.953929588908         -0.188343372281          0.220540412749
      0.7868272350D+01 -0.1193324198D+00  0.6899906659D-01
      0.1881288540D+01 -0.1608541517D+00  0.3164239610D+00
      0.5442492580D+00  0.1143456438D+01  0.7443082909D+00
 Atom C16      Shell    47 SP   1    bf  127 -   130          5.953929588908         -0.188343372281          0.220540412749
      0.1687144782D+00  0.1000000000D+01  0.1000000000D+01
 Atom C16      Shell    48 D   1     bf  131 -   136          5.953929588908         -0.188343372281          0.220540412749
      0.8000000000D+00  0.1000000000D+01
 Atom H17      Shell    49 S   3     bf  137 -   137          5.427964476500         -0.362357726084          2.228464474391
      0.1873113696D+02  0.3349460434D-01
      0.2825394365D+01  0.2347269535D+00
      0.6401216923D+00  0.8137573261D+00
 Atom H17      Shell    50 S   1     bf  138 -   138          5.427964476500         -0.362357726084          2.228464474391
      0.1612777588D+00  0.1000000000D+01
 Atom C18      Shell    51 S   6     bf  139 -   139          4.504256232711          2.018941505147         -0.985507277212
      0.3047524880D+04  0.1834737132D-02
      0.4573695180D+03  0.1403732281D-01
      0.1039486850D+03  0.6884262226D-01
      0.2921015530D+02  0.2321844432D+00
      0.9286662960D+01  0.4679413484D+00
      0.3163926960D+01  0.3623119853D+00
 Atom C18      Shell    52 SP   3    bf  140 -   143          4.504256232711          2.018941505147         -0.985507277212
      0.7868272350D+01 -0.1193324198D+00  0.6899906659D-01
      0.1881288540D+01 -0.1608541517D+00  0.3164239610D+00
      0.5442492580D+00  0.1143456438D+01  0.7443082909D+00
 Atom C18      Shell    53 SP   1    bf  144 -   147          4.504256232711          2.018941505147         -0.985507277212
      0.1687144782D+00  0.1000000000D+01  0.1000000000D+01
 Atom C18      Shell    54 D   1     bf  148 -   153          4.504256232711          2.018941505147         -0.985507277212
      0.8000000000D+00  0.1000000000D+01
 Atom H19      Shell    55 S   3     bf  154 -   154          4.396961740283          1.619052287386         -3.013245476404
      0.1873113696D+02  0.3349460434D-01
      0.2825394365D+01  0.2347269535D+00
      0.6401216923D+00  0.8137573261D+00
 Atom H19      Shell    56 S   1     bf  155 -   155          4.396961740283          1.619052287386         -3.013245476404
      0.1612777588D+00  0.1000000000D+01
 Atom C20      Shell    57 S   6     bf  156 -   156          5.980419184024          4.523714440345         -0.554557783737
      0.3047524880D+04  0.1834737132D-02
      0.4573695180D+03  0.1403732281D-01
      0.1039486850D+03  0.6884262226D-01
      0.2921015530D+02  0.2321844432D+00
      0.9286662960D+01  0.4679413484D+00
      0.3163926960D+01  0.3623119853D+00
 Atom C20      Shell    58 SP   3    bf  157 -   160          5.980419184024          4.523714440345         -0.554557783737
      0.7868272350D+01 -0.1193324198D+00  0.6899906659D-01
      0.1881288540D+01 -0.1608541517D+00  0.3164239610D+00
      0.5442492580D+00  0.1143456438D+01  0.7443082909D+00
 Atom C20      Shell    59 SP   1    bf  161 -   164          5.980419184024          4.523714440345         -0.554557783737
      0.1687144782D+00  0.1000000000D+01  0.1000000000D+01
 Atom C20      Shell    60 D   1     bf  165 -   170          5.980419184024          4.523714440345         -0.554557783737
      0.8000000000D+00  0.1000000000D+01
 Atom H21      Shell    61 S   3     bf  171 -   171          6.207356433117          4.704729870422          1.509112064988
      0.1873113696D+02  0.3349460434D-01
      0.2825394365D+01  0.2347269535D+00
      0.6401216923D+00  0.8137573261D+00
 Atom H21      Shell    62 S   1     bf  172 -   172          6.207356433117          4.704729870422          1.509112064988
      0.1612777588D+00  0.1000000000D+01
 Atom C22      Shell    63 S   6     bf  173 -   173          4.438850902628          6.847650562380         -1.430236861517
      0.3047524880D+04  0.1834737132D-02
      0.4573695180D+03  0.1403732281D-01
      0.1039486850D+03  0.6884262226D-01
      0.2921015530D+02  0.2321844432D+00
      0.9286662960D+01  0.4679413484D+00
      0.3163926960D+01  0.3623119853D+00
 Atom C22      Shell    64 SP   3    bf  174 -   177          4.438850902628          6.847650562380         -1.430236861517
      0.7868272350D+01 -0.1193324198D+00  0.6899906659D-01
      0.1881288540D+01 -0.1608541517D+00  0.3164239610D+00
      0.5442492580D+00  0.1143456438D+01  0.7443082909D+00
 Atom C22      Shell    65 SP   1    bf  178 -   181          4.438850902628          6.847650562380         -1.430236861517
      0.1687144782D+00  0.1000000000D+01  0.1000000000D+01
 Atom C22      Shell    66 D   1     bf  182 -   187          4.438850902628          6.847650562380         -1.430236861517
      0.8000000000D+00  0.1000000000D+01
 Atom H23      Shell    67 S   3     bf  188 -   188          4.331168884062          6.880227815746         -3.496915569986
      0.1873113696D+02  0.3349460434D-01
      0.2825394365D+01  0.2347269535D+00
      0.6401216923D+00  0.8137573261D+00
 Atom H23      Shell    68 S   1     bf  189 -   189          4.331168884062          6.880227815746         -3.496915569986
      0.1612777588D+00  0.1000000000D+01
 Atom H24      Shell    69 S   3     bf  190 -   190          5.427554500416          8.581525444189         -0.881158036346
      0.1873113696D+02  0.3349460434D-01
      0.2825394365D+01  0.2347269535D+00
      0.6401216923D+00  0.8137573261D+00
 Atom H24      Shell    70 S   1     bf  191 -   191          5.427554500416          8.581525444189         -0.881158036346
      0.1612777588D+00  0.1000000000D+01
 Atom C25      Shell    71 S   6     bf  192 -   192          1.737053949185          6.947626844694         -0.348400076585
      0.3047524880D+04  0.1834737132D-02
      0.4573695180D+03  0.1403732281D-01
      0.1039486850D+03  0.6884262226D-01
      0.2921015530D+02  0.2321844432D+00
      0.9286662960D+01  0.4679413484D+00
      0.3163926960D+01  0.3623119853D+00
 Atom C25      Shell    72 SP   3    bf  193 -   196          1.737053949185          6.947626844694         -0.348400076585
      0.7868272350D+01 -0.1193324198D+00  0.6899906659D-01
      0.1881288540D+01 -0.1608541517D+00  0.3164239610D+00
      0.5442492580D+00  0.1143456438D+01  0.7443082909D+00
 Atom C25      Shell    73 SP   1    bf  197 -   200          1.737053949185          6.947626844694         -0.348400076585
      0.1687144782D+00  0.1000000000D+01  0.1000000000D+01
 Atom C25      Shell    74 D   1     bf  201 -   206          1.737053949185          6.947626844694         -0.348400076585
      0.8000000000D+00  0.1000000000D+01
 Atom H26      Shell    75 S   3     bf  207 -   207          1.833513111015          7.204952061634          1.710482188777
      0.1873113696D+02  0.3349460434D-01
      0.2825394365D+01  0.2347269535D+00
      0.6401216923D+00  0.8137573261D+00
 Atom H26      Shell    76 S   1     bf  208 -   208          1.833513111015          7.204952061634          1.710482188777
      0.1612777588D+00  0.1000000000D+01
 Atom H27      Shell    77 S   3     bf  209 -   209          0.777433387761          8.617806390701         -1.111419937316
      0.1873113696D+02  0.3349460434D-01
      0.2825394365D+01  0.2347269535D+00
      0.6401216923D+00  0.8137573261D+00
 Atom H27      Shell    78 S   1     bf  210 -   210          0.777433387761          8.617806390701         -1.111419937316
      0.1612777588D+00  0.1000000000D+01
 Atom C28      Shell    79 S   6     bf  211 -   211          0.249902467176          4.515319105232         -0.930546350082
      0.3047524880D+04  0.1834737132D-02
      0.4573695180D+03  0.1403732281D-01
      0.1039486850D+03  0.6884262226D-01
      0.2921015530D+02  0.2321844432D+00
      0.9286662960D+01  0.4679413484D+00
      0.3163926960D+01  0.3623119853D+00
 Atom C28      Shell    80 SP   3    bf  212 -   215          0.249902467176          4.515319105232         -0.930546350082
      0.7868272350D+01 -0.1193324198D+00  0.6899906659D-01
      0.1881288540D+01 -0.1608541517D+00  0.3164239610D+00
      0.5442492580D+00  0.1143456438D+01  0.7443082909D+00
 Atom C28      Shell    81 SP   1    bf  216 -   219          0.249902467176          4.515319105232         -0.930546350082
      0.1687144782D+00  0.1000000000D+01  0.1000000000D+01
 Atom C28      Shell    82 D   1     bf  220 -   225          0.249902467176          4.515319105232         -0.930546350082
      0.8000000000D+00  0.1000000000D+01
 Atom C29      Shell    83 S   6     bf  226 -   226          1.827789017175          2.263603818448          0.124962959339
      0.3047524880D+04  0.1834737132D-02
      0.4573695180D+03  0.1403732281D-01
      0.1039486850D+03  0.6884262226D-01
      0.2921015530D+02  0.2321844432D+00
      0.9286662960D+01  0.4679413484D+00
      0.3163926960D+01  0.3623119853D+00
 Atom C29      Shell    84 SP   3    bf  227 -   230          1.827789017175          2.263603818448          0.124962959339
      0.7868272350D+01 -0.1193324198D+00  0.6899906659D-01
      0.1881288540D+01 -0.1608541517D+00  0.3164239610D+00
      0.5442492580D+00  0.1143456438D+01  0.7443082909D+00
 Atom C29      Shell    85 SP   1    bf  231 -   234          1.827789017175          2.263603818448          0.124962959339
      0.1687144782D+00  0.1000000000D+01  0.1000000000D+01
 Atom C29      Shell    86 D   1     bf  235 -   240          1.827789017175          2.263603818448          0.124962959339
      0.8000000000D+00  0.1000000000D+01
 Atom H30      Shell    87 S   3     bf  241 -   241          2.102975849934          2.694121207145          2.147613713425
      0.1873113696D+02  0.3349460434D-01
      0.2825394365D+01  0.2347269535D+00
      0.6401216923D+00  0.8137573261D+00
 Atom H30      Shell    88 S   1     bf  242 -   242          2.102975849934          2.694121207145          2.147613713425
      0.1612777588D+00  0.1000000000D+01
 Atom C31      Shell    89 S   6     bf  243 -   243          0.000000000000          0.000000000000          0.000000000000
      0.3047524880D+04  0.1834737132D-02
      0.4573695180D+03  0.1403732281D-01
      0.1039486850D+03  0.6884262226D-01
      0.2921015530D+02  0.2321844432D+00
      0.9286662960D+01  0.4679413484D+00
      0.3163926960D+01  0.3623119853D+00
 Atom C31      Shell    90 SP   3    bf  244 -   247          0.000000000000          0.000000000000          0.000000000000
      0.7868272350D+01 -0.1193324198D+00  0.6899906659D-01
      0.1881288540D+01 -0.1608541517D+00  0.3164239610D+00
      0.5442492580D+00  0.1143456438D+01  0.7443082909D+00
 Atom C31      Shell    91 SP   1    bf  248 -   251          0.000000000000          0.000000000000          0.000000000000
      0.1687144782D+00  0.1000000000D+01  0.1000000000D+01
 Atom C31      Shell    92 D   1     bf  252 -   257          0.000000000000          0.000000000000          0.000000000000
      0.8000000000D+00  0.1000000000D+01
 Atom H32      Shell    93 S   3     bf  258 -   258          0.495858279118         -1.485626340739          1.346586716950
      0.1873113696D+02  0.3349460434D-01
      0.2825394365D+01  0.2347269535D+00
      0.6401216923D+00  0.8137573261D+00
 Atom H32      Shell    94 S   1     bf  259 -   259          0.495858279118         -1.485626340739          1.346586716950
      0.1612777588D+00  0.1000000000D+01
 Atom H33      Shell    95 S   3     bf  260 -   260          0.055174031546         -0.877957936318         -1.872433456913
      0.1873113696D+02  0.3349460434D-01
      0.2825394365D+01  0.2347269535D+00
      0.6401216923D+00  0.8137573261D+00
 Atom H33      Shell    96 S   1     bf  261 -   261          0.055174031546         -0.877957936318         -1.872433456913
      0.1612777588D+00  0.1000000000D+01
 Atom C34      Shell    97 S   6     bf  262 -   262         -2.629904212444          1.189866324133          0.549455731048
      0.3047524880D+04  0.1834737132D-02
      0.4573695180D+03  0.1403732281D-01
      0.1039486850D+03  0.6884262226D-01
      0.2921015530D+02  0.2321844432D+00
      0.9286662960D+01  0.4679413484D+00
      0.3163926960D+01  0.3623119853D+00
 Atom C34      Shell    98 SP   3    bf  263 -   266         -2.629904212444          1.189866324133          0.549455731048
      0.7868272350D+01 -0.1193324198D+00  0.6899906659D-01
      0.1881288540D+01 -0.1608541517D+00  0.3164239610D+00
      0.5442492580D+00  0.1143456438D+01  0.7443082909D+00
 Atom C34      Shell    99 SP   1    bf  267 -   270         -2.629904212444          1.189866324133          0.549455731048
      0.1687144782D+00  0.1000000000D+01  0.1000000000D+01
 Atom C34      Shell   100 D   1     bf  271 -   276         -2.629904212444          1.189866324133          0.549455731048
      0.8000000000D+00  0.1000000000D+01
 Atom H35      Shell   101 S   3     bf  277 -   277         -3.993515188666          0.654090396150         -0.911225431051
      0.1873113696D+02  0.3349460434D-01
      0.2825394365D+01  0.2347269535D+00
      0.6401216923D+00  0.8137573261D+00
 Atom H35      Shell   102 S   1     bf  278 -   278         -3.993515188666          0.654090396150         -0.911225431051
      0.1612777588D+00  0.1000000000D+01
 Atom H36      Shell   103 S   3     bf  279 -   279         -3.418870088568          0.526772819152          2.345453904387
      0.1873113696D+02  0.3349460434D-01
      0.2825394365D+01  0.2347269535D+00
      0.6401216923D+00  0.8137573261D+00
 Atom H36      Shell   104 S   1     bf  280 -   280         -3.418870088568          0.526772819152          2.345453904387
      0.1612777588D+00  0.1000000000D+01
 Atom C37      Shell   105 S   6     bf  281 -   281         -2.236994036750          4.112598964341          0.629060179835
      0.3047524880D+04  0.1834737132D-02
      0.4573695180D+03  0.1403732281D-01
      0.1039486850D+03  0.6884262226D-01
      0.2921015530D+02  0.2321844432D+00
      0.9286662960D+01  0.4679413484D+00
      0.3163926960D+01  0.3623119853D+00
 Atom C37      Shell   106 SP   3    bf  282 -   285         -2.236994036750          4.112598964341          0.629060179835
      0.7868272350D+01 -0.1193324198D+00  0.6899906659D-01
      0.1881288540D+01 -0.1608541517D+00  0.3164239610D+00
      0.5442492580D+00  0.1143456438D+01  0.7443082909D+00
 Atom C37      Shell   107 SP   1    bf  286 -   289         -2.236994036750          4.112598964341          0.629060179835
      0.1687144782D+00  0.1000000000D+01  0.1000000000D+01
 Atom C37      Shell   108 D   1     bf  290 -   295         -2.236994036750          4.112598964341          0.629060179835
      0.8000000000D+00  0.1000000000D+01
 Atom H38      Shell   109 S   3     bf  296 -   296         -1.691516897308          4.559478565656          2.581912217347
      0.1873113696D+02  0.3349460434D-01
      0.2825394365D+01  0.2347269535D+00
      0.6401216923D+00  0.8137573261D+00
 Atom H38      Shell   110 S   1     bf  297 -   297         -1.691516897308          4.559478565656          2.581912217347
      0.1612777588D+00  0.1000000000D+01
 Atom C39      Shell   111 S   6     bf  298 -   298         -0.190146322190          4.272076448688         -3.809832145590
      0.3047524880D+04  0.1834737132D-02
      0.4573695180D+03  0.1403732281D-01
      0.1039486850D+03  0.6884262226D-01
[...]
 **** Fit       0.021766
 **** Fit       0.022545
 **** Fit       0.021065
 **** Fit       0.015771
 **** Fit       0.005702
 **** Fit      -0.008403
 **** Fit      -0.024073
 **** Fit      -0.047670
 **** Fit      -0.051186
 **** Fit      -0.049283
 **** Fit      -0.044060
 **** Fit      -0.037653
 **** Fit      -0.031414
 **** Fit      -0.025931
 **** Fit       0.014721
 **** Fit       0.016754
 **** Fit       0.019093
 **** Fit       0.021647
 **** Fit       0.024104
 **** Fit       0.025713
 **** Fit       0.025057
 **** Fit       0.020215
 **** Fit      -0.005363
 **** Fit      -0.053542
 **** Fit      -0.051689
 **** Fit      -0.046084
 **** Fit      -0.039183
 **** Fit      -0.032511
 **** Fit      -0.026701
 **** Fit       0.014891
 **** Fit       0.016989
 **** Fit       0.019421
 **** Fit       0.022107
 **** Fit       0.024746
 **** Fit       0.026586
 **** Fit       0.026177
 **** Fit      -0.004252
 **** Fit      -0.053372
 **** Fit      -0.051581
 **** Fit      -0.045998
 **** Fit      -0.039103
 **** Fit      -0.032434
 **** Fit      -0.026628
 **** Fit       0.014606
 **** Fit       0.016585
 **** Fit       0.018838
 **** Fit       0.021262
 **** Fit       0.023531
 **** Fit       0.024905
 **** Fit       0.024040
 **** Fit       0.019172
 **** Fit       0.009108
 **** Fit      -0.005456
 **** Fit      -0.021849
 **** Fit      -0.046764
 **** Fit      -0.050648
 **** Fit      -0.048928
 **** Fit      -0.043778
 **** Fit      -0.037401
 **** Fit      -0.031179
 **** Fit      -0.025713
 **** Fit       0.015624
 **** Fit       0.017489
 **** Fit       0.019363
 **** Fit       0.020897
 **** Fit       0.021398
 **** Fit       0.019751
 **** Fit       0.014644
 **** Fit       0.005323
 **** Fit      -0.007511
 **** Fit      -0.021623
 **** Fit      -0.034112
 **** Fit      -0.042484
 **** Fit      -0.045612
 **** Fit      -0.044133
 **** Fit      -0.039794
 **** Fit      -0.034342
 **** Fit      -0.028919
 **** Fit      -0.024065
 **** Fit       0.014274
 **** Fit       0.015648
 **** Fit       0.016866
 **** Fit       0.017584
 **** Fit       0.017213
 **** Fit       0.014930
 **** Fit       0.009891
 **** Fit       0.001745
 **** Fit      -0.008842
 **** Fit      -0.020153
 **** Fit      -0.029995
 **** Fit      -0.036542
 **** Fit      -0.039047
 **** Fit      -0.038017
 **** Fit      -0.034708
 **** Fit      -0.030392
 **** Fit      -0.025959
 **** Fit       0.013612
 **** Fit       0.014225
 **** Fit       0.014260
 **** Fit       0.013268
 **** Fit       0.010701
 **** Fit       0.006087
 **** Fit      -0.000659
 **** Fit      -0.008956
 **** Fit      -0.017570
 **** Fit      -0.024988
 **** Fit      -0.029979
 **** Fit      -0.032054
 **** Fit      -0.031538
 **** Fit      -0.029251
 **** Fit      -0.026068
 **** Fit      -0.022647
 **** Fit       0.011619
 **** Fit       0.011760
 **** Fit       0.011329
 **** Fit       0.010014
 **** Fit       0.007481
 **** Fit       0.003504
 **** Fit      -0.001863
 **** Fit      -0.008155
 **** Fit      -0.014529
 **** Fit      -0.019998
 **** Fit      -0.023774
 **** Fit      -0.025529
 **** Fit      -0.025441
 **** Fit      -0.024008
 **** Fit      -0.021801
 **** Fit       0.009638
 **** Fit       0.008946
 **** Fit       0.007541
 **** Fit       0.005237
 **** Fit       0.001949
 **** Fit      -0.002216
 **** Fit      -0.006909
 **** Fit      -0.011571
 **** Fit      -0.015579
 **** Fit      -0.018436
 **** Fit      -0.019923
 **** Fit      -0.020122
 **** Fit       0.005757
 **** Fit       0.003766
 **** Fit       0.001119
 **** Fit      -0.002073
 **** Fit      -0.005556
 **** Fit      -0.008966
 **** Fit      -0.011913
 **** Fit      -0.014086
 **** Fit       0.003723
 **** Fit       0.001474
 **** Fit      -0.001411
 **** Fit      -0.004805
 **** Fit      -0.008441
 **** Fit      -0.011947
 **** Fit      -0.014928
 **** Fit      -0.017074
 **** Fit       0.006848
 **** Fit       0.005166
 **** Fit       0.002630
 **** Fit      -0.000810
 **** Fit      -0.005027
 **** Fit      -0.009675
 **** Fit      -0.014225
 **** Fit      -0.018097
 **** Fit      -0.020826
 **** Fit      -0.022204
 **** Fit      -0.022300
 **** Fit       0.009555
 **** Fit       0.008763
 **** Fit       0.007127
 **** Fit       0.004392
 **** Fit       0.000414
 **** Fit      -0.004712
 **** Fit      -0.010554
 **** Fit      -0.016388
 **** Fit      -0.021380
 **** Fit      -0.024851
 **** Fit      -0.026496
 **** Fit      -0.026438
 **** Fit      -0.025091
 **** Fit      -0.022960
 **** Fit       0.011350
 **** Fit       0.011478
 **** Fit       0.011003
 **** Fit       0.009571
 **** Fit       0.006788
 **** Fit       0.002367
 **** Fit      -0.003669
 **** Fit      -0.010816
 **** Fit      -0.018122
 **** Fit      -0.024440
 **** Fit      -0.028811
 **** Fit      -0.030799
 **** Fit      -0.030582
 **** Fit      -0.028755
 **** Fit      -0.026012
 **** Fit       0.012082
 **** Fit       0.012886
 **** Fit       0.013411
 **** Fit       0.013358
 **** Fit       0.012281
 **** Fit       0.009632
 **** Fit       0.004940
 **** Fit      -0.001890
 **** Fit      -0.010307
 **** Fit      -0.019125
 **** Fit      -0.026859
 **** Fit      -0.032233
 **** Fit      -0.034642
 **** Fit      -0.034309
 **** Fit      -0.032025
 **** Fit      -0.028697
 **** Fit      -0.025044
 **** Fit       0.013065
 **** Fit       0.014177
 **** Fit       0.015086
 **** Fit       0.015472
 **** Fit       0.014820
 **** Fit       0.012439
 **** Fit       0.007665
 **** Fit       0.000264
 **** Fit      -0.009192
 **** Fit      -0.019316
 **** Fit      -0.028326
 **** Fit      -0.034647
 **** Fit      -0.037498
 **** Fit      -0.037125
 **** Fit      -0.034490
 **** Fit      -0.030699
 **** Fit      -0.026598
 **** Fit       0.013697
 **** Fit       0.015019
 **** Fit       0.016201
 **** Fit       0.016914
 **** Fit       0.016603
 **** Fit       0.014484
 **** Fit       0.009753
 **** Fit       0.002060
 **** Fit      -0.008017
 **** Fit      -0.018963
 **** Fit      -0.028801
 **** Fit      -0.035765
 **** Fit      -0.038947
 **** Fit      -0.038595
 **** Fit      -0.035784
 **** Fit      -0.031741
 **** Fit      -0.027395
 **** Fit       0.013883
 **** Fit       0.015267
 **** Fit       0.016529
 **** Fit       0.017342
 **** Fit       0.017142
 **** Fit       0.015127
 **** Fit       0.010460
 **** Fit       0.002764
 **** Fit      -0.007390
 **** Fit      -0.018460
 **** Fit      -0.028431
 **** Fit      -0.035509
 **** Fit      -0.038771
 **** Fit      -0.038468
 **** Fit      -0.035685
 **** Fit      -0.031657
 **** Fit      -0.027321
 **** Fit       0.013599
 **** Fit       0.014883
 **** Fit       0.016014
 **** Fit       0.016670
 **** Fit       0.016316
 **** Fit       0.014208
 **** Fit       0.009601
 **** Fit       0.002190
 **** Fit      -0.007464
 **** Fit      -0.017910
 **** Fit      -0.027271
 **** Fit      -0.033899
 **** Fit      -0.036972
 **** Fit      -0.036739
 **** Fit      -0.034187
 **** Fit      -0.030443
 **** Fit      -0.026373
 **** Fit       0.012899
 **** Fit       0.013953
 **** Fit       0.014793
 **** Fit       0.015113
 **** Fit       0.014434
 **** Fit       0.012142
 **** Fit       0.007663
 **** Fit       0.000820
 **** Fit      -0.007845
 **** Fit      -0.017073
 **** Fit      -0.025269
 **** Fit      -0.031058
 **** Fit      -0.033783
 **** Fit      -0.033663
 **** Fit      -0.031511
 **** Fit      -0.028266
 **** Fit      -0.024670
 **** Fit       0.012650
 **** Fit       0.013129
 **** Fit       0.013057
 **** Fit       0.012041
 **** Fit       0.009618
 **** Fit       0.005409
 **** Fit      -0.000634
 **** Fit      -0.008016
 **** Fit      -0.015724
 **** Fit      -0.022508
 **** Fit      -0.027317
 **** Fit      -0.029658
 **** Fit      -0.029695
 **** Fit      -0.028040
 **** Fit      -0.025413
 **** Fit       0.011171
 **** Fit       0.011305
 **** Fit       0.010893
 **** Fit       0.009636
 **** Fit       0.007220
 **** Fit       0.003427
 **** Fit      -0.001697
 **** Fit      -0.007730
 **** Fit      -0.013901
 **** Fit      -0.019299
 **** Fit      -0.023170
 **** Fit      -0.025156
 **** Fit      -0.025362
 **** Fit      -0.024208
 **** Fit      -0.022217
 **** Fit       0.009542
 **** Fit       0.008894
 **** Fit       0.007531
 **** Fit       0.005257
 **** Fit       0.001970
 **** Fit      -0.002236
 **** Fit      -0.007022
 **** Fit      -0.011830
 **** Fit      -0.016024
 **** Fit      -0.019086
 **** Fit      -0.020763
 **** Fit      -0.021108
 **** Fit       0.005846
 **** Fit       0.003804
 **** Fit       0.001043
 **** Fit      -0.002334
 **** Fit      -0.006062
 **** Fit      -0.009751
 **** Fit      -0.012972
 **** Fit      -0.015376
 **** Fit       0.000537
 **** Fit      -0.002135
 **** Fit       0.003720
 **** Fit       0.001559
 **** Fit      -0.001230
 **** Fit      -0.004530
 **** Fit      -0.008094
 **** Fit      -0.011569
 **** Fit      -0.014575
 **** Fit      -0.016803
 **** Fit       0.006576
 **** Fit       0.005012
 **** Fit       0.002660
 **** Fit      -0.000525
 **** Fit      -0.004431
 **** Fit      -0.008756
 **** Fit      -0.013037
 **** Fit      -0.016755
 **** Fit      -0.019486
 **** Fit      -0.021009
 **** Fit      -0.021349
 **** Fit       0.008832
 **** Fit       0.008068
 **** Fit       0.006556
 **** Fit       0.004091
 **** Fit       0.000562
 **** Fit      -0.003940
 **** Fit      -0.009060
 **** Fit      -0.014214
 **** Fit      -0.018724
 **** Fit      -0.022022
 **** Fit      -0.023814
 **** Fit      -0.024138
 **** Fit      -0.023283
 **** Fit       0.010167
 **** Fit       0.010149
 **** Fit       0.009586
 **** Fit       0.008202
 **** Fit       0.005712
 **** Fit       0.001929
 **** Fit      -0.003093
 **** Fit      -0.008960
 **** Fit      -0.014968
 **** Fit      -0.020274
 **** Fit      -0.024154
 **** Fit      -0.026234
 **** Fit      -0.026562
 **** Fit      -0.025504
 **** Fit      -0.023555
 **** Fit       0.011079
 **** Fit       0.011269
 **** Fit       0.010915
 **** Fit       0.009695
 **** Fit       0.007253
 **** Fit       0.003324
 **** Fit      -0.002081
 **** Fit      -0.008546
 **** Fit      -0.015264
 **** Fit      -0.021248
 **** Fit      -0.025641
 **** Fit      -0.027988
 **** Fit      -0.028340
 **** Fit      -0.027134
 **** Fit      -0.024949
 **** Fit       0.011674
 **** Fit       0.012012
 **** Fit       0.011817
 **** Fit       0.010735
 **** Fit       0.008365
 **** Fit       0.004389
 **** Fit      -0.001220
 **** Fit      -0.008033
 **** Fit      -0.015183
 **** Fit      -0.021593
 **** Fit      -0.026317
 **** Fit      -0.028847
 **** Fit      -0.029236
 **** Fit      -0.027962
 **** Fit      -0.025655
 **** Fit       0.011860
 **** Fit       0.012248
 **** Fit       0.012109
 **** Fit       0.011085
 **** Fit       0.008764
 **** Fit       0.004816
 **** Fit      -0.000797
 **** Fit      -0.007644
 **** Fit      -0.014852
 **** Fit      -0.021328
 **** Fit      -0.026113
 **** Fit      -0.028692
 **** Fit      -0.029117
 **** Fit      -0.027866
 **** Fit      -0.025575
 **** Fit       0.011615
 **** Fit       0.011943
 **** Fit       0.011746
 **** Fit       0.010684
 **** Fit       0.008374
 **** Fit       0.004522
 **** Fit      -0.000892
 **** Fit      -0.007450
 **** Fit      -0.014323
 **** Fit      -0.020487
 **** Fit      -0.025049
 **** Fit      -0.027532
 **** Fit      -0.027985
 **** Fit      -0.026847
 **** Fit      -0.024710
 **** Fit       0.010989
 **** Fit       0.011172
 **** Fit       0.010832
 **** Fit       0.009670
 **** Fit       0.007364
 **** Fit       0.003686
 **** Fit      -0.001345
 **** Fit      -0.007338
 **** Fit      -0.013556
 **** Fit      -0.019108
 **** Fit      -0.023227
 **** Fit      -0.025506
 **** Fit      -0.025984
 **** Fit      -0.025034
 **** Fit      -0.023161
 **** Fit       0.010084
 **** Fit       0.009572
 **** Fit       0.008306
 **** Fit       0.006042
 **** Fit       0.002626
 **** Fit      -0.001882
 **** Fit      -0.007130
 **** Fit      -0.012505
 **** Fit      -0.017280
 **** Fit      -0.020842
 **** Fit      -0.022863
 **** Fit      -0.023368
 **** Fit      -0.022648
 **** Fit       0.008189
 **** Fit       0.006863
 **** Fit       0.004703
 **** Fit       0.001626
 **** Fit      -0.002281
 **** Fit      -0.006718
 **** Fit      -0.011197
 **** Fit      -0.015163
 **** Fit      -0.018148
 **** Fit      -0.019901
 **** Fit      -0.020431
 **** Fit       0.005535
 **** Fit       0.003543
 **** Fit       0.000851
 **** Fit      -0.002444
 **** Fit      -0.006095
 **** Fit      -0.009733
 **** Fit      -0.012948
 **** Fit      -0.015399
 **** Fit       0.000344
 **** Fit      -0.002377
 **** Fit      -0.005327
 **** Fit       0.001440
 **** Fit      -0.001108
 **** Fit      -0.004113
 **** Fit      -0.007359
 **** Fit      -0.010548
 **** Fit       0.004402
 **** Fit       0.002289
 **** Fit      -0.000516
 **** Fit      -0.003914
 **** Fit      -0.007657
 **** Fit      -0.011378
 **** Fit      -0.014667
 **** Fit      -0.017175
 **** Fit       0.006828
 **** Fit       0.005408
 **** Fit       0.003224
 **** Fit       0.000217
 **** Fit      -0.003521
 **** Fit      -0.007717
 **** Fit      -0.011937
 **** Fit      -0.015690
 **** Fit      -0.018551
 **** Fit      -0.020279
 **** Fit      -0.020858
 **** Fit       0.008371
 **** Fit       0.007671
 **** Fit       0.006304
 **** Fit       0.004096
 **** Fit       0.000958
 **** Fit      -0.003032
 **** Fit      -0.007580
 **** Fit      -0.012201
 **** Fit      -0.016335
 **** Fit      -0.019491
 **** Fit      -0.021389
 **** Fit      -0.022011
 **** Fit       0.008870
 **** Fit       0.008244
 **** Fit       0.006930
 **** Fit       0.004730
 **** Fit       0.001535
 **** Fit      -0.002589
 **** Fit      -0.007337
 **** Fit      -0.012197
 **** Fit      -0.016561
 **** Fit      -0.019901
 **** Fit      -0.021911
 **** Fit      -0.022571
 **** Fit       0.009042
 **** Fit       0.008450
 **** Fit       0.007167
 **** Fit       0.004993
 **** Fit       0.001811
 **** Fit      -0.002314
 **** Fit      -0.007080
 **** Fit      -0.011969
 **** Fit      -0.016368
 **** Fit      -0.019743
 **** Fit      -0.021783
 **** Fit      -0.022467
 **** Fit       0.008867
 **** Fit       0.008260
 **** Fit       0.006981
 **** Fit       0.004844
 **** Fit       0.001744
 **** Fit      -0.002250
 **** Fit      -0.006845
 **** Fit      -0.011547
 **** Fit      -0.015777
 **** Fit      -0.019030
 **** Fit      -0.021013
 **** Fit      -0.021704
 **** Fit       0.007727
 **** Fit       0.006437
 **** Fit       0.004355
 **** Fit       0.001404
 **** Fit      -0.002339
 **** Fit      -0.006601
 **** Fit      -0.010935
 **** Fit      -0.014826
 **** Fit      -0.017828
 **** Fit      -0.019682
 **** Fit      -0.020365
 **** Fit       0.006962
 **** Fit       0.005664
 **** Fit       0.003669
 **** Fit       0.000928
 **** Fit      -0.002473
 **** Fit      -0.006288
 **** Fit      -0.010134
 **** Fit      -0.013578
 **** Fit      -0.016248
 **** Fit       0.004809
 **** Fit       0.002937
 **** Fit       0.000454
 **** Fit      -0.002550
 **** Fit      -0.005862
 **** Fit      -0.009170
 **** Fit       0.001652
 **** Fit      -0.000732
 **** Fit      -0.003557
 **** Fit      -0.006631
 **** Fit       0.004054
 **** Fit       0.002157
 **** Fit      -0.000330
 **** Fit      -0.003319
 **** Fit      -0.006608
 **** Fit      -0.009897
 **** Fit       0.004443
 **** Fit       0.002534
 **** Fit      -0.000001
 **** Fit      -0.003078
 **** Fit      -0.006488
 **** Fit      -0.009914
 **** Fit      -0.013001
 **** Fit       0.004609
 **** Fit       0.002715
 **** Fit       0.000187
 **** Fit      -0.002891
 **** Fit      -0.006310
 **** Fit      -0.009752
 **** Fit      -0.012858
 **** Fit       0.004534
 **** Fit       0.002677
 **** Fit       0.000212
 **** Fit      -0.002780
 **** Fit      -0.006094
 **** Fit      -0.009427
 **** Fit       0.002452
 **** Fit       0.000100
 **** Fit      -0.002726
 **** Fit      -0.005836
 **** Fit      -0.008952
 **** Fit      -0.002686
 -----------------------------------------------------------------
 Leave Link  602 at Fri Apr 28 12:37:46 2017, MaxMem=   33554432 cpu:      94.1
 (Enter /scratch/michal/g09/l9999.exe)

 Test job not archived.
 1\1\GINC-RZEPICHA\SP\RHF\6-31G(d)\C27H46O3\MICHAL\28-Apr-2017\0\\#P HF
 /6-31G* SCF(Conver=6) NoSymm Test Pop=chelpg IOp(6/33=2) GFInput GFPri
 nt\\MEP - Input generated by R.E.D.-III.x MOLECULE\\0,1\C,0,7.52774462
 ,2.2146883,0.06305016\H,0,7.36933987,2.18074357,1.14789779\C,0,6.83000
 156,1.00904011,-0.5823701\H,0,7.21472272,0.08124649,-0.14729207\H,0,7.
 10713954,0.99723238,-1.64907221\C,0,5.31957093,1.06358689,-0.45419079\
 C,0,4.6226008,2.36308773,-0.87259138\C,0,5.41924274,3.56579142,-0.2767
 0553\H,0,5.2250708,3.60578182,0.80416604\H,0,5.03287879,4.50070886,-0.
 69550121\C,0,6.93979688,3.51191713,-0.4898671\H,0,7.18149087,3.5867846
 7,-1.56056825\H,0,7.41632413,4.36865511,0.\C,0,4.64313724,0.,0.\H,0,5.
 18891677,-0.89140476,0.31114592\C,0,3.15068384,-0.09966702,0.11670496\
 H,0,2.87235509,-0.19175145,1.17925261\C,0,2.38354974,1.06837783,-0.521
 50799\H,0,2.32677194,0.85676557,-1.59454083\C,0,3.16470153,2.39384658,
 -0.29345934\H,0,3.28479155,2.48963582,0.79858771\C,0,2.34893873,3.6236
 2061,-0.75684875\H,0,2.29195586,3.64085975,-1.85048802\H,0,2.87213814,
 4.54114768,-0.46628875\C,0,0.91920936,3.67652578,-0.18436538\H,0,0.970
 25335,3.81269642,0.90514819\H,0,0.41140003,4.56034673,-0.5881381\C,0,0
 .13224269,2.38940396,-0.49242392\C,0,0.96722429,1.19784755,0.06612755\
 H,0,1.11284689,1.42566754,1.13646823\C,0,0.,0.,0.\H,0,0.2623969,-0.786
 1596,0.712583\H,0,0.02919684,-0.46459533,-0.99084911\C,0,-1.39168537,0
 .62965014,0.29075945\H,0,-2.11327722,0.34612973,-0.48219973\H,0,-1.809
 18813,0.27875617,1.24116075\C,0,-1.18376626,2.17629364,0.33288431\H,0,
 -0.89511219,2.41277214,1.3662891\C,0,-0.1006211,2.26068549,-2.01607634
 \H,0,0.83152647,2.09161221,-2.56102146\H,0,-0.7696063,1.43303686,-2.26
 366083\H,0,-0.54498094,3.17613195,-2.41741128\C,0,-2.50006806,2.973203
 71,0.09949548\H,0,-3.2028598,2.52196379,0.81928021\C,0,-3.16470134,2.8
 2746769,-1.28447731\H,0,-2.66542631,3.43361052,-2.04601778\H,0,-4.2043
 798,3.16994034,-1.23015123\H,0,-3.18165937,1.79306535,-1.63932415\C,0,
 4.62968216,2.44782354,-2.42221373\H,0,4.27226823,3.42245772,-2.7685183
 7\H,0,5.63681539,2.31251365,-2.82590177\H,0,3.99815321,1.67109873,-2.8
 6292756\O,0,2.69414992,-1.39271094,-0.35488934\O,0,2.9356824,-1.490569
 98,-1.78970902\H,0,3.72764543,-2.05254862,-1.80610479\O,0,8.94843546,2
 .14700463,-0.08512255\H,0,9.16503016,2.20301231,-1.02647949\C,0,-2.424
 78105,4.47441856,0.46724198\H,0,-1.70359417,4.98195529,-0.18705112\H,0
 ,-3.40167658,4.91947321,0.22906199\C,0,-2.10420759,4.79848244,1.934886
 89\H,0,-2.7998456,4.24290128,2.57857984\H,0,-1.09883312,4.44363894,2.1
 8755523\C,0,-2.20595569,6.30354503,2.23241595\H,0,-3.21705718,6.646108
 58,1.9687677\H,0,-1.52071669,6.84092302,1.56073299\C,0,-1.90765616,6.7
 4514364,3.68425849\H,0,-2.0326232,7.83806402,3.69808284\C,0,-2.9078609
 ,6.16404584,4.69742559\H,0,-2.80404328,5.07682026,4.79035569\H,0,-2.74
 82006,6.59338647,5.69312599\H,0,-3.94247158,6.37733995,4.40391773\C,0,
 -0.45888932,6.45230228,4.10861014\H,0,-0.26865474,5.37531217,4.1820032
 8\H,0,-0.24475804,6.88875453,5.09090303\H,0,0.25889032,6.8713001,3.393
 49371\\Version=EM64L-G09RevC.01\HF=-1273.6773021\RMSD=5.333e-07\Dipole
 =0.2587301,0.5234912,-0.38338\Quadrupole=-5.016132,3.3631091,1.6530229
 ,-0.7358653,-11.3082719,-2.1829313\PG=C01 [X(C27H46O3)]\\@


 Some scientists claim that hydrogen, because it is so
 plentiful, is the basic building block of the universe. 
 I dispute that. I say that stupidity is far more
 abundant than hydrogen, and THAT is the basic building 
 block of the universe.
                   --Frank Zappa
 Job cpu time:  0 days  0 hours 44 minutes 27.0 seconds.
 File lengths (MBytes):  RWF=    159 Int=      0 D2E=      0 Chk=     11 Scr=      1
 Normal termination of Gaussian 09 at Fri Apr 28 12:37:46 2017.
