 Entering Gaussian System, Link 0=/home/michal/g09/g09
 Input=JOB2-gau_m1-21-4.com
 Output=JOB2-gau_m1-21-4.log
 Initial command:
 /home/michal/g09/l1.exe "/home/michal/gauss_scratch/Gau-22496.inp" -scrdir="/home/michal/gauss_scratch/"
 Entering Link 1 = /home/michal/g09/l1.exe PID=     22497.
  
 Copyright (c) 1988,1990,1992,1993,1995,1998,2003,2009,2013,
            Gaussian, Inc.  All Rights Reserved.
  
 This is part of the Gaussian(R) 09 program.  It is based on
 the Gaussian(R) 03 system (copyright 2003, Gaussian, Inc.),
 the Gaussian(R) 98 system (copyright 1998, Gaussian, Inc.),
 the Gaussian(R) 94 system (copyright 1995, Gaussian, Inc.),
 the Gaussian 92(TM) system (copyright 1992, Gaussian, Inc.),
 the Gaussian 90(TM) system (copyright 1990, Gaussian, Inc.),
 the Gaussian 88(TM) system (copyright 1988, Gaussian, Inc.),
 the Gaussian 86(TM) system (copyright 1986, Carnegie Mellon
 University), and the Gaussian 82(TM) system (copyright 1983,
 Carnegie Mellon University). Gaussian is a federally registered
 trademark of Gaussian, Inc.
  
 This software contains proprietary and confidential information,
 including trade secrets, belonging to Gaussian, Inc.
  
 This software is provided under written license and may be
 used, copied, transmitted, or stored only in accord with that
 written license.
  
 The following legend is applicable only to US Government
 contracts under FAR:
  
                    RESTRICTED RIGHTS LEGEND
  
 Use, reproduction and disclosure by the US Government is
 subject to restrictions as set forth in subparagraphs (a)
 and (c) of the Commercial Computer Software - Restricted
 Rights clause in FAR 52.227-19.
  
 Gaussian, Inc.
 340 Quinnipiac St., Bldg. 40, Wallingford CT 06492
  
  
 ---------------------------------------------------------------
 Warning -- This program may not be used in any manner that
 competes with the business of Gaussian, Inc. or will provide
 assistance to any competitor of Gaussian, Inc.  The licensee
 of this program is prohibited from giving any competitor of
 Gaussian, Inc. access to this program.  By using this program,
 the user acknowledges that Gaussian, Inc. is engaged in the
 business of creating and licensing software in the field of
 computational chemistry and represents and warrants to the
 licensee that it is not a competitor of Gaussian, Inc. and that
 it will not use this program in any manner prohibited above.
 ---------------------------------------------------------------
  

 Cite this work as:
 Gaussian 09, Revision D.01,
 M. J. Frisch, G. W. Trucks, H. B. Schlegel, G. E. Scuseria, 
 M. A. Robb, J. R. Cheeseman, G. Scalmani, V. Barone, B. Mennucci, 
 G. A. Petersson, H. Nakatsuji, M. Caricato, X. Li, H. P. Hratchian, 
 A. F. Izmaylov, J. Bloino, G. Zheng, J. L. Sonnenberg, M. Hada, 
 M. Ehara, K. Toyota, R. Fukuda, J. Hasegawa, M. Ishida, T. Nakajima, 
 Y. Honda, O. Kitao, H. Nakai, T. Vreven, J. A. Montgomery, Jr., 
 J. E. Peralta, F. Ogliaro, M. Bearpark, J. J. Heyd, E. Brothers, 
 K. N. Kudin, V. N. Staroverov, T. Keith, R. Kobayashi, J. Normand, 
 K. Raghavachari, A. Rendell, J. C. Burant, S. S. Iyengar, J. Tomasi, 
 M. Cossi, N. Rega, J. M. Millam, M. Klene, J. E. Knox, J. B. Cross, 
 V. Bakken, C. Adamo, J. Jaramillo, R. Gomperts, R. E. Stratmann, 
 O. Yazyev, A. J. Austin, R. Cammi, C. Pomelli, J. W. Ochterski, 
 R. L. Martin, K. Morokuma, V. G. Zakrzewski, G. A. Voth, 
 P. Salvador, J. J. Dannenberg, S. Dapprich, A. D. Daniels, 
 O. Farkas, J. B. Foresman, J. V. Ortiz, J. Cioslowski, 
 and D. J. Fox, Gaussian, Inc., Wallingford CT, 2013.
 
 ******************************************
 Gaussian 09:  EM64L-G09RevD.01 24-Apr-2013
                21-Mar-2017 
 ******************************************
 %Mem=256MB
 %NProc=12
 Will use up to   12 processors via shared memory.
 ----------------------------------------------------------------------
 #P HF/6-31G* SCF(Conver=6) NoSymm Test Pop=mk IOp(6/33=2) GFInput GFPr
 int
 ----------------------------------------------------------------------
 1/38=1/1;
 2/12=2,15=1,17=6,18=5,40=1/2;
 3/5=1,6=6,7=1,11=9,16=1,24=110,25=1,30=1/1,2,3;
 4//1;
 5/5=2,6=6,38=5/2;
 6/7=2,8=2,9=2,10=2,15=8,20=1,28=1,33=2/1,2;
 99/5=1,9=1/99;
 Leave Link    1 at Tue Mar 21 13:01:40 2017, MaxMem=    33554432 cpu:         0.6
 (Enter /home/michal/g09/l101.exe)
 ----------------------------------------------
 MEP - Input generated by R.E.D.-III.x MOLECULE
 ----------------------------------------------
 Symbolic Z-matrix:
 Charge =  0 Multiplicity = 1
 O                     4.2116    6.55546   4.12031 
 H                     4.99197   6.90421   3.66939 
 C                     0.        0.        0. 
 C                     1.34553   0.61953  -0.47229 
 H                     2.12766   0.        0. 
 C                     1.61359   2.05473   0. 
 H                     0.85025   2.72319  -0.42299 
 C                     1.54645   2.12136   1.54803 
 H                     2.40912   1.53486   1.90548 
 C                     0.08878  -1.40579  -0.69135 
 H                     0.82581  -1.98384  -0.11123 
 C                     0.03457   0.01395   1.54262 
 H                     0.83798  -0.65625   1.88141 
 H                    -0.8941   -0.3725    1.97412 
 C                     1.76181   3.57379   2.1019 
 C                     1.39945   0.31112  -1.97555 
 H                     2.42198   0.3066   -2.36605 
 H                     0.84689   1.06777  -2.54635 
 C                     0.27805   1.43149   2.10087 
 H                    -0.60284   2.04595   1.88653 
 H                     0.3398    1.36645   3.1931 
 C                     0.72149  -1.08176  -2.08873 
 H                    -0.05197  -1.07787  -2.86611 
 H                     1.44466  -1.85001  -2.37814 
 C                     2.9878    2.54492  -0.48437 
 H                     2.95451   2.75749  -1.56123 
 H                     3.72767   1.73506  -0.3706 
 C                    -1.18113  -2.28946  -0.80407 
 H                    -1.90647  -1.75488  -1.43652 
 C                    -1.22706   0.77896  -0.52731 
 H                    -2.15488   0.35126  -0.13331 
 H                    -1.20792   1.83173  -0.2351 
 H                    -1.29379   0.74836  -1.61913 
 C                     2.93874   4.24609   1.38107 
 C                     2.11165   3.48046   3.61994 
 H                     2.88522   2.7102    3.74633 
 H                     1.23383   3.1331    4.17559 
 C                     3.47306   3.76256   0.24992 
 H                     4.32534   4.2837   -0.18771 
 C                     0.49515   4.45146   1.91549 
 H                    -0.32472   4.11151   2.55603 
 H                     0.68977   5.49608   2.17069 
 H                     0.1503    4.43202   0.87701 
 C                     3.48992   5.51043   2.01377 
 H                     4.37867   5.83925   1.45981 
 H                     2.75836   6.32853   1.95204 
 C                     2.61636   4.7869    4.2497 
 H                     1.83605   5.55814   4.24275 
 H                     2.88149   4.61853   5.29967 
 C                    -0.84507  -3.62053  -1.52192 
 H                    -0.2629   -3.40778  -2.42575 
 H                    -0.18689  -4.21626  -0.87061 
 C                     3.82911   5.32187   3.49948 
 H                     4.65372   4.59535   3.58865 
 C                    -1.84946  -2.56788   0.55388 
 H                    -1.139    -3.02631   1.2534 
 H                    -2.69595  -3.25243   0.44594 
 H                    -2.23437  -1.65786   1.01911 
 C                    -2.05547  -4.47346  -1.93724 
 H                    -2.61845  -4.78751  -1.05115 
 H                    -2.73709  -3.85198  -2.53395 
 C                    -1.63946  -5.71439  -2.74419 
 H                    -0.92683  -6.29957  -2.1449 
 H                    -1.08547  -5.38494  -3.63514 
 C                    -2.77686  -6.65727  -3.2016 
 H                    -2.28847  -7.46738  -3.76331 
 C                    -3.76317  -5.97284  -4.16246 
 H                    -3.24098  -5.51243  -5.00953 
 H                    -4.48028  -6.69677  -4.56608 
 H                    -4.33964  -5.18839  -3.65868 
 C                    -3.51758  -7.31015  -2.02264 
 H                    -2.81946  -7.80598  -1.3379 
 H                    -4.22814  -8.06478  -2.37887 
 H                    -4.0872   -6.57363  -1.44425 
 
 NAtoms=     74 NQM=       74 NQMF=       0 NMMI=      0 NMMIF=      0
                NMic=       0 NMicF=      0.
                    Isotopes and Nuclear Properties:
 (Nuclear quadrupole moments (NQMom) in fm**2, nuclear magnetic moments (NMagM)
  in nuclear magnetons)

  Atom         1           2           3           4           5           6           7           8           9          10
 IAtWgt=          16           1          12          12           1          12           1          12           1          12
 AtmWgt=  15.9949146   1.0078250  12.0000000  12.0000000   1.0078250  12.0000000   1.0078250  12.0000000   1.0078250  12.0000000
 NucSpn=           0           1           0           0           1           0           1           0           1           0
 AtZEff=   0.0000000   0.0000000   0.0000000   0.0000000   0.0000000   0.0000000   0.0000000   0.0000000   0.0000000   0.0000000
 NQMom=    0.0000000   0.0000000   0.0000000   0.0000000   0.0000000   0.0000000   0.0000000   0.0000000   0.0000000   0.0000000
 NMagM=    0.0000000   2.7928460   0.0000000   0.0000000   2.7928460   0.0000000   2.7928460   0.0000000   2.7928460   0.0000000
 AtZNuc=   8.0000000   1.0000000   6.0000000   6.0000000   1.0000000   6.0000000   1.0000000   6.0000000   1.0000000   6.0000000

  Atom        11          12          13          14          15          16          17          18          19          20
 IAtWgt=           1          12           1           1          12          12           1           1          12           1
 AtmWgt=   1.0078250  12.0000000   1.0078250   1.0078250  12.0000000  12.0000000   1.0078250   1.0078250  12.0000000   1.0078250
 NucSpn=           1           0           1           1           0           0           1           1           0           1
 AtZEff=   0.0000000   0.0000000   0.0000000   0.0000000   0.0000000   0.0000000   0.0000000   0.0000000   0.0000000   0.0000000
 NQMom=    0.0000000   0.0000000   0.0000000   0.0000000   0.0000000   0.0000000   0.0000000   0.0000000   0.0000000   0.0000000
 NMagM=    2.7928460   0.0000000   2.7928460   2.7928460   0.0000000   0.0000000   2.7928460   2.7928460   0.0000000   2.7928460
 AtZNuc=   1.0000000   6.0000000   1.0000000   1.0000000   6.0000000   6.0000000   1.0000000   1.0000000   6.0000000   1.0000000

  Atom        21          22          23          24          25          26          27          28          29          30
 IAtWgt=           1          12           1           1          12           1           1          12           1          12
 AtmWgt=   1.0078250  12.0000000   1.0078250   1.0078250  12.0000000   1.0078250   1.0078250  12.0000000   1.0078250  12.0000000
 NucSpn=           1           0           1           1           0           1           1           0           1           0
 AtZEff=   0.0000000   0.0000000   0.0000000   0.0000000   0.0000000   0.0000000   0.0000000   0.0000000   0.0000000   0.0000000
 NQMom=    0.0000000   0.0000000   0.0000000   0.0000000   0.0000000   0.0000000   0.0000000   0.0000000   0.0000000   0.0000000
 NMagM=    2.7928460   0.0000000   2.7928460   2.7928460   0.0000000   2.7928460   2.7928460   0.0000000   2.7928460   0.0000000
 AtZNuc=   1.0000000   6.0000000   1.0000000   1.0000000   6.0000000   1.0000000   1.0000000   6.0000000   1.0000000   6.0000000

  Atom        31          32          33          34          35          36          37          38          39          40
 IAtWgt=           1           1           1          12          12           1           1          12           1          12
 AtmWgt=   1.0078250   1.0078250   1.0078250  12.0000000  12.0000000   1.0078250   1.0078250  12.0000000   1.0078250  12.0000000
 NucSpn=           1           1           1           0           0           1           1           0           1           0
 AtZEff=   0.0000000   0.0000000   0.0000000   0.0000000   0.0000000   0.0000000   0.0000000   0.0000000   0.0000000   0.0000000
 NQMom=    0.0000000   0.0000000   0.0000000   0.0000000   0.0000000   0.0000000   0.0000000   0.0000000   0.0000000   0.0000000
 NMagM=    2.7928460   2.7928460   2.7928460   0.0000000   0.0000000   2.7928460   2.7928460   0.0000000   2.7928460   0.0000000
 AtZNuc=   1.0000000   1.0000000   1.0000000   6.0000000   6.0000000   1.0000000   1.0000000   6.0000000   1.0000000   6.0000000

  Atom        41          42          43          44          45          46          47          48          49          50
 IAtWgt=           1           1           1          12           1           1          12           1           1          12
 AtmWgt=   1.0078250   1.0078250   1.0078250  12.0000000   1.0078250   1.0078250  12.0000000   1.0078250   1.0078250  12.0000000
 NucSpn=           1           1           1           0           1           1           0           1           1           0
 AtZEff=   0.0000000   0.0000000   0.0000000   0.0000000   0.0000000   0.0000000   0.0000000   0.0000000   0.0000000   0.0000000
 NQMom=    0.0000000   0.0000000   0.0000000   0.0000000   0.0000000   0.0000000   0.0000000   0.0000000   0.0000000   0.0000000
 NMagM=    2.7928460   2.7928460   2.7928460   0.0000000   2.7928460   2.7928460   0.0000000   2.7928460   2.7928460   0.0000000
 AtZNuc=   1.0000000   1.0000000   1.0000000   6.0000000   1.0000000   1.0000000   6.0000000   1.0000000   1.0000000   6.0000000

  Atom        51          52          53          54          55          56          57          58          59          60
 IAtWgt=           1           1          12           1          12           1           1           1          12           1
 AtmWgt=   1.0078250   1.0078250  12.0000000   1.0078250  12.0000000   1.0078250   1.0078250   1.0078250  12.0000000   1.0078250
 NucSpn=           1           1           0           1           0           1           1           1           0           1
 AtZEff=   0.0000000   0.0000000   0.0000000   0.0000000   0.0000000   0.0000000   0.0000000   0.0000000   0.0000000   0.0000000
 NQMom=    0.0000000   0.0000000   0.0000000   0.0000000   0.0000000   0.0000000   0.0000000   0.0000000   0.0000000   0.0000000
 NMagM=    2.7928460   2.7928460   0.0000000   2.7928460   0.0000000   2.7928460   2.7928460   2.7928460   0.0000000   2.7928460
 AtZNuc=   1.0000000   1.0000000   6.0000000   1.0000000   6.0000000   1.0000000   1.0000000   1.0000000   6.0000000   1.0000000

  Atom        61          62          63          64          65          66          67          68          69          70
 IAtWgt=           1          12           1           1          12           1          12           1           1           1
 AtmWgt=   1.0078250  12.0000000   1.0078250   1.0078250  12.0000000   1.0078250  12.0000000   1.0078250   1.0078250   1.0078250
 NucSpn=           1           0           1           1           0           1           0           1           1           1
 AtZEff=   0.0000000   0.0000000   0.0000000   0.0000000   0.0000000   0.0000000   0.0000000   0.0000000   0.0000000   0.0000000
 NQMom=    0.0000000   0.0000000   0.0000000   0.0000000   0.0000000   0.0000000   0.0000000   0.0000000   0.0000000   0.0000000
 NMagM=    2.7928460   0.0000000   2.7928460   2.7928460   0.0000000   2.7928460   0.0000000   2.7928460   2.7928460   2.7928460
 AtZNuc=   1.0000000   6.0000000   1.0000000   1.0000000   6.0000000   1.0000000   6.0000000   1.0000000   1.0000000   1.0000000

  Atom        71          72          73          74
 IAtWgt=          12           1           1           1
 AtmWgt=  12.0000000   1.0078250   1.0078250   1.0078250
 NucSpn=           0           1           1           1
 AtZEff=   0.0000000   0.0000000   0.0000000   0.0000000
 NQMom=    0.0000000   0.0000000   0.0000000   0.0000000
 NMagM=    0.0000000   2.7928460   2.7928460   2.7928460
 AtZNuc=   6.0000000   1.0000000   1.0000000   1.0000000
 Leave Link  101 at Tue Mar 21 13:01:40 2017, MaxMem=    33554432 cpu:         1.0
 (Enter /home/michal/g09/l202.exe)
 Symmetry turned off by external request.
 Stoichiometry    C27H46O
 Framework group  C1[X(C27H46O)]
 Deg. of freedom   216
 Full point group                 C1      NOp   1
                          Input orientation:                          
 ---------------------------------------------------------------------
 Center     Atomic      Atomic             Coordinates (Angstroms)
 Number     Number       Type             X           Y           Z
 ---------------------------------------------------------------------
      1          8           0        4.211602    6.555456    4.120312
      2          1           0        4.991969    6.904213    3.669388
      3          6           0        0.000000    0.000000    0.000000
      4          6           0        1.345533    0.619529   -0.472292
      5          1           0        2.127660    0.000000    0.000000
      6          6           0        1.613590    2.054733    0.000000
      7          1           0        0.850247    2.723186   -0.422993
      8          6           0        1.546454    2.121364    1.548031
      9          1           0        2.409124    1.534857    1.905485
     10          6           0        0.088783   -1.405787   -0.691351
     11          1           0        0.825812   -1.983839   -0.111228
     12          6           0        0.034569    0.013948    1.542623
     13          1           0        0.837985   -0.656247    1.881413
     14          1           0       -0.894096   -0.372501    1.974116
     15          6           0        1.761806    3.573787    2.101899
     16          6           0        1.399445    0.311116   -1.975553
     17          1           0        2.421980    0.306600   -2.366046
     18          1           0        0.846885    1.067769   -2.546346
     19          6           0        0.278051    1.431488    2.100871
     20          1           0       -0.602836    2.045952    1.886532
     21          1           0        0.339798    1.366445    3.193102
     22          6           0        0.721488   -1.081756   -2.088726
     23          1           0       -0.051970   -1.077872   -2.866107
     24          1           0        1.444660   -1.850015   -2.378141
     25          6           0        2.987800    2.544916   -0.484371
     26          1           0        2.954505    2.757491   -1.561230
     27          1           0        3.727669    1.735059   -0.370604
     28          6           0       -1.181133   -2.289460   -0.804071
     29          1           0       -1.906473   -1.754881   -1.436521
     30          6           0       -1.227062    0.778959   -0.527312
     31          1           0       -2.154884    0.351259   -0.133306
     32          1           0       -1.207920    1.831730   -0.235096
     33          1           0       -1.293788    0.748360   -1.619127
     34          6           0        2.938744    4.246088    1.381073
     35          6           0        2.111647    3.480457    3.619937
     36          1           0        2.885221    2.710196    3.746325
     37          1           0        1.233834    3.133097    4.175589
     38          6           0        3.473057    3.762557    0.249917
     39          1           0        4.325338    4.283704   -0.187706
     40          6           0        0.495152    4.451463    1.915490
     41          1           0       -0.324725    4.111505    2.556026
     42          1           0        0.689767    5.496080    2.170691
     43          1           0        0.150300    4.432023    0.877006
     44          6           0        3.489917    5.510426    2.013767
     45          1           0        4.378673    5.839252    1.459807
     46          1           0        2.758359    6.328530    1.952039
     47          6           0        2.616361    4.786905    4.249701
     48          1           0        1.836047    5.558145    4.242746
     49          1           0        2.881489    4.618532    5.299668
     50          6           0       -0.845072   -3.620530   -1.521921
     51          1           0       -0.262905   -3.407778   -2.425749
     52          1           0       -0.186891   -4.216260   -0.870609
     53          6           0        3.829109    5.321869    3.499476
     54          1           0        4.653720    4.595345    3.588652
     55          6           0       -1.849456   -2.567876    0.553884
     56          1           0       -1.139001   -3.026309    1.253403
     57          1           0       -2.695948   -3.252427    0.445942
     58          1           0       -2.234371   -1.657863    1.019110
     59          6           0       -2.055468   -4.473461   -1.937243
     60          1           0       -2.618446   -4.787512   -1.051146
     61          1           0       -2.737095   -3.851979   -2.533946
     62          6           0       -1.639459   -5.714387   -2.744193
     63          1           0       -0.926826   -6.299569   -2.144900
     64          1           0       -1.085473   -5.384941   -3.635138
     65          6           0       -2.776862   -6.657271   -3.201596
     66          1           0       -2.288474   -7.467377   -3.763305
     67          6           0       -3.763165   -5.972842   -4.162463
     68          1           0       -3.240983   -5.512430   -5.009530
     69          1           0       -4.480276   -6.696774   -4.566085
     70          1           0       -4.339637   -5.188395   -3.658683
     71          6           0       -3.517576   -7.310149   -2.022640
     72          1           0       -2.819455   -7.805976   -1.337905
     73          1           0       -4.228137   -8.064783   -2.378866
     74          1           0       -4.087203   -6.573633   -1.444251
 ---------------------------------------------------------------------
 Rotational constants (GHZ):      0.6256465      0.0526175      0.0506182
 Leave Link  202 at Tue Mar 21 13:01:40 2017, MaxMem=    33554432 cpu:         0.1
 (Enter /home/michal/g09/l301.exe)
 Standard basis: 6-31G(d) (6D, 7F)
 Ernie: Thresh=  0.10000D-02 Tol=  0.10000D-05 Strict=F.
 AO basis set in the form of general basis input (Overlap normalization):
      1 0
 S   6 1.00       0.000000000000
      0.5484671660D+04  0.1831074430D-02
      0.8252349460D+03  0.1395017220D-01
      0.1880469580D+03  0.6844507810D-01
      0.5296450000D+02  0.2327143360D+00
      0.1689757040D+02  0.4701928980D+00
      0.5799635340D+01  0.3585208530D+00
 SP   3 1.00       0.000000000000
      0.1553961625D+02 -0.1107775495D+00  0.7087426823D-01
      0.3599933586D+01 -0.1480262627D+00  0.3397528391D+00
      0.1013761750D+01  0.1130767015D+01  0.7271585773D+00
 SP   1 1.00       0.000000000000
      0.2700058226D+00  0.1000000000D+01  0.1000000000D+01
 D   1 1.00       0.000000000000
      0.8000000000D+00  0.1000000000D+01
 ****
      2 0
 S   3 1.00       0.000000000000
      0.1873113696D+02  0.3349460434D-01
      0.2825394365D+01  0.2347269535D+00
      0.6401216923D+00  0.8137573261D+00
 S   1 1.00       0.000000000000
      0.1612777588D+00  0.1000000000D+01
 ****
      3 0
 S   6 1.00       0.000000000000
      0.3047524880D+04  0.1834737132D-02
      0.4573695180D+03  0.1403732281D-01
      0.1039486850D+03  0.6884262226D-01
      0.2921015530D+02  0.2321844432D+00
      0.9286662960D+01  0.4679413484D+00
      0.3163926960D+01  0.3623119853D+00
 SP   3 1.00       0.000000000000
      0.7868272350D+01 -0.1193324198D+00  0.6899906659D-01
      0.1881288540D+01 -0.1608541517D+00  0.3164239610D+00
      0.5442492580D+00  0.1143456438D+01  0.7443082909D+00
 SP   1 1.00       0.000000000000
      0.1687144782D+00  0.1000000000D+01  0.1000000000D+01
 D   1 1.00       0.000000000000
      0.8000000000D+00  0.1000000000D+01
 ****
      4 0
 S   6 1.00       0.000000000000
      0.3047524880D+04  0.1834737132D-02
      0.4573695180D+03  0.1403732281D-01
      0.1039486850D+03  0.6884262226D-01
      0.2921015530D+02  0.2321844432D+00
      0.9286662960D+01  0.4679413484D+00
      0.3163926960D+01  0.3623119853D+00
 SP   3 1.00       0.000000000000
      0.7868272350D+01 -0.1193324198D+00  0.6899906659D-01
      0.1881288540D+01 -0.1608541517D+00  0.3164239610D+00
      0.5442492580D+00  0.1143456438D+01  0.7443082909D+00
 SP   1 1.00       0.000000000000
      0.1687144782D+00  0.1000000000D+01  0.1000000000D+01
 D   1 1.00       0.000000000000
      0.8000000000D+00  0.1000000000D+01
 ****
      5 0
 S   3 1.00       0.000000000000
      0.1873113696D+02  0.3349460434D-01
      0.2825394365D+01  0.2347269535D+00
      0.6401216923D+00  0.8137573261D+00
 S   1 1.00       0.000000000000
      0.1612777588D+00  0.1000000000D+01
 ****
      6 0
 S   6 1.00       0.000000000000
      0.3047524880D+04  0.1834737132D-02
      0.4573695180D+03  0.1403732281D-01
      0.1039486850D+03  0.6884262226D-01
      0.2921015530D+02  0.2321844432D+00
      0.9286662960D+01  0.4679413484D+00
      0.3163926960D+01  0.3623119853D+00
 SP   3 1.00       0.000000000000
      0.7868272350D+01 -0.1193324198D+00  0.6899906659D-01
      0.1881288540D+01 -0.1608541517D+00  0.3164239610D+00
      0.5442492580D+00  0.1143456438D+01  0.7443082909D+00
 SP   1 1.00       0.000000000000
      0.1687144782D+00  0.1000000000D+01  0.1000000000D+01
 D   1 1.00       0.000000000000
      0.8000000000D+00  0.1000000000D+01
 ****
      7 0
 S   3 1.00       0.000000000000
      0.1873113696D+02  0.3349460434D-01
      0.2825394365D+01  0.2347269535D+00
      0.6401216923D+00  0.8137573261D+00
 S   1 1.00       0.000000000000
      0.1612777588D+00  0.1000000000D+01
 ****
      8 0
 S   6 1.00       0.000000000000
      0.3047524880D+04  0.1834737132D-02
      0.4573695180D+03  0.1403732281D-01
      0.1039486850D+03  0.6884262226D-01
      0.2921015530D+02  0.2321844432D+00
      0.9286662960D+01  0.4679413484D+00
      0.3163926960D+01  0.3623119853D+00
 SP   3 1.00       0.000000000000
      0.7868272350D+01 -0.1193324198D+00  0.6899906659D-01
      0.1881288540D+01 -0.1608541517D+00  0.3164239610D+00
      0.5442492580D+00  0.1143456438D+01  0.7443082909D+00
 SP   1 1.00       0.000000000000
      0.1687144782D+00  0.1000000000D+01  0.1000000000D+01
 D   1 1.00       0.000000000000
      0.8000000000D+00  0.1000000000D+01
 ****
      9 0
 S   3 1.00       0.000000000000
      0.1873113696D+02  0.3349460434D-01
      0.2825394365D+01  0.2347269535D+00
      0.6401216923D+00  0.8137573261D+00
 S   1 1.00       0.000000000000
      0.1612777588D+00  0.1000000000D+01
 ****
     10 0
 S   6 1.00       0.000000000000
      0.3047524880D+04  0.1834737132D-02
      0.4573695180D+03  0.1403732281D-01
      0.1039486850D+03  0.6884262226D-01
      0.2921015530D+02  0.2321844432D+00
      0.9286662960D+01  0.4679413484D+00
      0.3163926960D+01  0.3623119853D+00
 SP   3 1.00       0.000000000000
      0.7868272350D+01 -0.1193324198D+00  0.6899906659D-01
      0.1881288540D+01 -0.1608541517D+00  0.3164239610D+00
      0.5442492580D+00  0.1143456438D+01  0.7443082909D+00
 SP   1 1.00       0.000000000000
      0.1687144782D+00  0.1000000000D+01  0.1000000000D+01
 D   1 1.00       0.000000000000
      0.8000000000D+00  0.1000000000D+01
 ****
     11 0
 S   3 1.00       0.000000000000
      0.1873113696D+02  0.3349460434D-01
      0.2825394365D+01  0.2347269535D+00
      0.6401216923D+00  0.8137573261D+00
 S   1 1.00       0.000000000000
      0.1612777588D+00  0.1000000000D+01
 ****
     12 0
 S   6 1.00       0.000000000000
      0.3047524880D+04  0.1834737132D-02
      0.4573695180D+03  0.1403732281D-01
      0.1039486850D+03  0.6884262226D-01
      0.2921015530D+02  0.2321844432D+00
      0.9286662960D+01  0.4679413484D+00
      0.3163926960D+01  0.3623119853D+00
 SP   3 1.00       0.000000000000
      0.7868272350D+01 -0.1193324198D+00  0.6899906659D-01
      0.1881288540D+01 -0.1608541517D+00  0.3164239610D+00
      0.5442492580D+00  0.1143456438D+01  0.7443082909D+00
 SP   1 1.00       0.000000000000
      0.1687144782D+00  0.1000000000D+01  0.1000000000D+01
 D   1 1.00       0.000000000000
      0.8000000000D+00  0.1000000000D+01
 ****
     13 0
 S   3 1.00       0.000000000000
      0.1873113696D+02  0.3349460434D-01
      0.2825394365D+01  0.2347269535D+00
      0.6401216923D+00  0.8137573261D+00
 S   1 1.00       0.000000000000
      0.1612777588D+00  0.1000000000D+01
 ****
     14 0
 S   3 1.00       0.000000000000
      0.1873113696D+02  0.3349460434D-01
      0.2825394365D+01  0.2347269535D+00
      0.6401216923D+00  0.8137573261D+00
 S   1 1.00       0.000000000000
      0.1612777588D+00  0.1000000000D+01
 ****
     15 0
 S   6 1.00       0.000000000000
      0.3047524880D+04  0.1834737132D-02
      0.4573695180D+03  0.1403732281D-01
      0.1039486850D+03  0.6884262226D-01
      0.2921015530D+02  0.2321844432D+00
      0.9286662960D+01  0.4679413484D+00
      0.3163926960D+01  0.3623119853D+00
 SP   3 1.00       0.000000000000
      0.7868272350D+01 -0.1193324198D+00  0.6899906659D-01
      0.1881288540D+01 -0.1608541517D+00  0.3164239610D+00
      0.5442492580D+00  0.1143456438D+01  0.7443082909D+00
 SP   1 1.00       0.000000000000
      0.1687144782D+00  0.1000000000D+01  0.1000000000D+01
 D   1 1.00       0.000000000000
      0.8000000000D+00  0.1000000000D+01
 ****
     16 0
 S   6 1.00       0.000000000000
      0.3047524880D+04  0.1834737132D-02
      0.4573695180D+03  0.1403732281D-01
      0.1039486850D+03  0.6884262226D-01
      0.2921015530D+02  0.2321844432D+00
      0.9286662960D+01  0.4679413484D+00
      0.3163926960D+01  0.3623119853D+00
 SP   3 1.00       0.000000000000
      0.7868272350D+01 -0.1193324198D+00  0.6899906659D-01
      0.1881288540D+01 -0.1608541517D+00  0.3164239610D+00
      0.5442492580D+00  0.1143456438D+01  0.7443082909D+00
 SP   1 1.00       0.000000000000
      0.1687144782D+00  0.1000000000D+01  0.1000000000D+01
 D   1 1.00       0.000000000000
      0.8000000000D+00  0.1000000000D+01
 ****
     17 0
 S   3 1.00       0.000000000000
      0.1873113696D+02  0.3349460434D-01
      0.2825394365D+01  0.2347269535D+00
      0.6401216923D+00  0.8137573261D+00
 S   1 1.00       0.000000000000
      0.1612777588D+00  0.1000000000D+01
 ****
     18 0
 S   3 1.00       0.000000000000
      0.1873113696D+02  0.3349460434D-01
      0.2825394365D+01  0.2347269535D+00
      0.6401216923D+00  0.8137573261D+00
 S   1 1.00       0.000000000000
      0.1612777588D+00  0.1000000000D+01
 ****
     19 0
 S   6 1.00       0.000000000000
      0.3047524880D+04  0.1834737132D-02
      0.4573695180D+03  0.1403732281D-01
      0.1039486850D+03  0.6884262226D-01
      0.2921015530D+02  0.2321844432D+00
      0.9286662960D+01  0.4679413484D+00
      0.3163926960D+01  0.3623119853D+00
 SP   3 1.00       0.000000000000
      0.7868272350D+01 -0.1193324198D+00  0.6899906659D-01
      0.1881288540D+01 -0.1608541517D+00  0.3164239610D+00
      0.5442492580D+00  0.1143456438D+01  0.7443082909D+00
 SP   1 1.00       0.000000000000
      0.1687144782D+00  0.1000000000D+01  0.1000000000D+01
 D   1 1.00       0.000000000000
      0.8000000000D+00  0.1000000000D+01
 ****
     20 0
 S   3 1.00       0.000000000000
      0.1873113696D+02  0.3349460434D-01
      0.2825394365D+01  0.2347269535D+00
      0.6401216923D+00  0.8137573261D+00
 S   1 1.00       0.000000000000
      0.1612777588D+00  0.1000000000D+01
 ****
     21 0
 S   3 1.00       0.000000000000
      0.1873113696D+02  0.3349460434D-01
      0.2825394365D+01  0.2347269535D+00
      0.6401216923D+00  0.8137573261D+00
 S   1 1.00       0.000000000000
      0.1612777588D+00  0.1000000000D+01
 ****
     22 0
 S   6 1.00       0.000000000000
      0.3047524880D+04  0.1834737132D-02
      0.4573695180D+03  0.1403732281D-01
      0.1039486850D+03  0.6884262226D-01
      0.2921015530D+02  0.2321844432D+00
      0.9286662960D+01  0.4679413484D+00
      0.3163926960D+01  0.3623119853D+00
 SP   3 1.00       0.000000000000
      0.7868272350D+01 -0.1193324198D+00  0.6899906659D-01
      0.1881288540D+01 -0.1608541517D+00  0.3164239610D+00
      0.5442492580D+00  0.1143456438D+01  0.7443082909D+00
 SP   1 1.00       0.000000000000
      0.1687144782D+00  0.1000000000D+01  0.1000000000D+01
 D   1 1.00       0.000000000000
      0.8000000000D+00  0.1000000000D+01
 ****
     23 0
 S   3 1.00       0.000000000000
      0.1873113696D+02  0.3349460434D-01
      0.2825394365D+01  0.2347269535D+00
      0.6401216923D+00  0.8137573261D+00
 S   1 1.00       0.000000000000
      0.1612777588D+00  0.1000000000D+01
 ****
     24 0
 S   3 1.00       0.000000000000
      0.1873113696D+02  0.3349460434D-01
      0.2825394365D+01  0.2347269535D+00
      0.6401216923D+00  0.8137573261D+00
 S   1 1.00       0.000000000000
      0.1612777588D+00  0.1000000000D+01
 ****
     25 0
 S   6 1.00       0.000000000000
      0.3047524880D+04  0.1834737132D-02
      0.4573695180D+03  0.1403732281D-01
      0.1039486850D+03  0.6884262226D-01
      0.2921015530D+02  0.2321844432D+00
      0.9286662960D+01  0.4679413484D+00
      0.3163926960D+01  0.3623119853D+00
 SP   3 1.00       0.000000000000
      0.7868272350D+01 -0.1193324198D+00  0.6899906659D-01
      0.1881288540D+01 -0.1608541517D+00  0.3164239610D+00
      0.5442492580D+00  0.1143456438D+01  0.7443082909D+00
 SP   1 1.00       0.000000000000
      0.1687144782D+00  0.1000000000D+01  0.1000000000D+01
 D   1 1.00       0.000000000000
      0.8000000000D+00  0.1000000000D+01
 ****
     26 0
 S   3 1.00       0.000000000000
      0.1873113696D+02  0.3349460434D-01
      0.2825394365D+01  0.2347269535D+00
      0.6401216923D+00  0.8137573261D+00
 S   1 1.00       0.000000000000
      0.1612777588D+00  0.1000000000D+01
 ****
     27 0
 S   3 1.00       0.000000000000
      0.1873113696D+02  0.3349460434D-01
      0.2825394365D+01  0.2347269535D+00
      0.6401216923D+00  0.8137573261D+00
 S   1 1.00       0.000000000000
      0.1612777588D+00  0.1000000000D+01
 ****
     28 0
 S   6 1.00       0.000000000000
      0.3047524880D+04  0.1834737132D-02
      0.4573695180D+03  0.1403732281D-01
      0.1039486850D+03  0.6884262226D-01
      0.2921015530D+02  0.2321844432D+00
      0.9286662960D+01  0.4679413484D+00
      0.3163926960D+01  0.3623119853D+00
 SP   3 1.00       0.000000000000
      0.7868272350D+01 -0.1193324198D+00  0.6899906659D-01
      0.1881288540D+01 -0.1608541517D+00  0.3164239610D+00
      0.5442492580D+00  0.1143456438D+01  0.7443082909D+00
 SP   1 1.00       0.000000000000
      0.1687144782D+00  0.1000000000D+01  0.1000000000D+01
 D   1 1.00       0.000000000000
      0.8000000000D+00  0.1000000000D+01
 ****
     29 0
 S   3 1.00       0.000000000000
      0.1873113696D+02  0.3349460434D-01
      0.2825394365D+01  0.2347269535D+00
      0.6401216923D+00  0.8137573261D+00
 S   1 1.00       0.000000000000
      0.1612777588D+00  0.1000000000D+01
 ****
     30 0
 S   6 1.00       0.000000000000
      0.3047524880D+04  0.1834737132D-02
      0.4573695180D+03  0.1403732281D-01
      0.1039486850D+03  0.6884262226D-01
      0.2921015530D+02  0.2321844432D+00
      0.9286662960D+01  0.4679413484D+00
      0.3163926960D+01  0.3623119853D+00
 SP   3 1.00       0.000000000000
      0.7868272350D+01 -0.1193324198D+00  0.6899906659D-01
      0.1881288540D+01 -0.1608541517D+00  0.3164239610D+00
      0.5442492580D+00  0.1143456438D+01  0.7443082909D+00
 SP   1 1.00       0.000000000000
      0.1687144782D+00  0.1000000000D+01  0.1000000000D+01
 D   1 1.00       0.000000000000
      0.8000000000D+00  0.1000000000D+01
 ****
     31 0
 S   3 1.00       0.000000000000
      0.1873113696D+02  0.3349460434D-01
      0.2825394365D+01  0.2347269535D+00
      0.6401216923D+00  0.8137573261D+00
 S   1 1.00       0.000000000000
      0.1612777588D+00  0.1000000000D+01
 ****
     32 0
 S   3 1.00       0.000000000000
      0.1873113696D+02  0.3349460434D-01
      0.2825394365D+01  0.2347269535D+00
      0.6401216923D+00  0.8137573261D+00
 S   1 1.00       0.000000000000
      0.1612777588D+00  0.1000000000D+01
 ****
     33 0
 S   3 1.00       0.000000000000
      0.1873113696D+02  0.3349460434D-01
      0.2825394365D+01  0.2347269535D+00
      0.6401216923D+00  0.8137573261D+00
 S   1 1.00       0.000000000000
      0.1612777588D+00  0.1000000000D+01
 ****
     34 0
 S   6 1.00       0.000000000000
      0.3047524880D+04  0.1834737132D-02
      0.4573695180D+03  0.1403732281D-01
      0.1039486850D+03  0.6884262226D-01
      0.2921015530D+02  0.2321844432D+00
      0.9286662960D+01  0.4679413484D+00
      0.3163926960D+01  0.3623119853D+00
 SP   3 1.00       0.000000000000
      0.7868272350D+01 -0.1193324198D+00  0.6899906659D-01
      0.1881288540D+01 -0.1608541517D+00  0.3164239610D+00
      0.5442492580D+00  0.1143456438D+01  0.7443082909D+00
 SP   1 1.00       0.000000000000
      0.1687144782D+00  0.1000000000D+01  0.1000000000D+01
 D   1 1.00       0.000000000000
      0.8000000000D+00  0.1000000000D+01
 ****
     35 0
 S   6 1.00       0.000000000000
      0.3047524880D+04  0.1834737132D-02
      0.4573695180D+03  0.1403732281D-01
      0.1039486850D+03  0.6884262226D-01
      0.2921015530D+02  0.2321844432D+00
      0.9286662960D+01  0.4679413484D+00
      0.3163926960D+01  0.3623119853D+00
 SP   3 1.00       0.000000000000
      0.7868272350D+01 -0.1193324198D+00  0.6899906659D-01
      0.1881288540D+01 -0.1608541517D+00  0.3164239610D+00
      0.5442492580D+00  0.1143456438D+01  0.7443082909D+00
 SP   1 1.00       0.000000000000
      0.1687144782D+00  0.1000000000D+01  0.1000000000D+01
 D   1 1.00       0.000000000000
      0.8000000000D+00  0.1000000000D+01
 ****
     36 0
 S   3 1.00       0.000000000000
      0.1873113696D+02  0.3349460434D-01
      0.2825394365D+01  0.2347269535D+00
      0.6401216923D+00  0.8137573261D+00
 S   1 1.00       0.000000000000
      0.1612777588D+00  0.1000000000D+01
 ****
     37 0
 S   3 1.00       0.000000000000
      0.1873113696D+02  0.3349460434D-01
      0.2825394365D+01  0.2347269535D+00
      0.6401216923D+00  0.8137573261D+00
 S   1 1.00       0.000000000000
      0.1612777588D+00  0.1000000000D+01
 ****
     38 0
 S   6 1.00       0.000000000000
      0.3047524880D+04  0.1834737132D-02
      0.4573695180D+03  0.1403732281D-01
      0.1039486850D+03  0.6884262226D-01
      0.2921015530D+02  0.2321844432D+00
      0.9286662960D+01  0.4679413484D+00
      0.3163926960D+01  0.3623119853D+00
 SP   3 1.00       0.000000000000
      0.7868272350D+01 -0.1193324198D+00  0.6899906659D-01
      0.1881288540D+01 -0.1608541517D+00  0.3164239610D+00
      0.5442492580D+00  0.1143456438D+01  0.7443082909D+00
 SP   1 1.00       0.000000000000
      0.1687144782D+00  0.1000000000D+01  0.1000000000D+01
 D   1 1.00       0.000000000000
      0.8000000000D+00  0.1000000000D+01
 ****
     39 0
 S   3 1.00       0.000000000000
      0.1873113696D+02  0.3349460434D-01
      0.2825394365D+01  0.2347269535D+00
      0.6401216923D+00  0.8137573261D+00
 S   1 1.00       0.000000000000
      0.1612777588D+00  0.1000000000D+01
 ****
     40 0
 S   6 1.00       0.000000000000
      0.3047524880D+04  0.1834737132D-02
      0.4573695180D+03  0.1403732281D-01
      0.1039486850D+03  0.6884262226D-01
      0.2921015530D+02  0.2321844432D+00
      0.9286662960D+01  0.4679413484D+00
      0.3163926960D+01  0.3623119853D+00
 SP   3 1.00       0.000000000000
      0.7868272350D+01 -0.1193324198D+00  0.6899906659D-01
      0.1881288540D+01 -0.1608541517D+00  0.3164239610D+00
      0.5442492580D+00  0.1143456438D+01  0.7443082909D+00
 SP   1 1.00       0.000000000000
      0.1687144782D+00  0.1000000000D+01  0.1000000000D+01
 D   1 1.00       0.000000000000
      0.8000000000D+00  0.1000000000D+01
 ****
     41 0
 S   3 1.00       0.000000000000
      0.1873113696D+02  0.3349460434D-01
      0.2825394365D+01  0.2347269535D+00
      0.6401216923D+00  0.8137573261D+00
 S   1 1.00       0.000000000000
      0.1612777588D+00  0.1000000000D+01
 ****
     42 0
 S   3 1.00       0.000000000000
      0.1873113696D+02  0.3349460434D-01
      0.2825394365D+01  0.2347269535D+00
      0.6401216923D+00  0.8137573261D+00
 S   1 1.00       0.000000000000
      0.1612777588D+00  0.1000000000D+01
 ****
     43 0
 S   3 1.00       0.000000000000
      0.1873113696D+02  0.3349460434D-01
      0.2825394365D+01  0.2347269535D+00
      0.6401216923D+00  0.8137573261D+00
 S   1 1.00       0.000000000000
      0.1612777588D+00  0.1000000000D+01
 ****
     44 0
 S   6 1.00       0.000000000000
      0.3047524880D+04  0.1834737132D-02
      0.4573695180D+03  0.1403732281D-01
      0.1039486850D+03  0.6884262226D-01
      0.2921015530D+02  0.2321844432D+00
      0.9286662960D+01  0.4679413484D+00
      0.3163926960D+01  0.3623119853D+00
 SP   3 1.00       0.000000000000
      0.7868272350D+01 -0.1193324198D+00  0.6899906659D-01
      0.1881288540D+01 -0.1608541517D+00  0.3164239610D+00
      0.5442492580D+00  0.1143456438D+01  0.7443082909D+00
 SP   1 1.00       0.000000000000
      0.1687144782D+00  0.1000000000D+01  0.1000000000D+01
 D   1 1.00       0.000000000000
      0.8000000000D+00  0.1000000000D+01
 ****
     45 0
 S   3 1.00       0.000000000000
      0.1873113696D+02  0.3349460434D-01
      0.2825394365D+01  0.2347269535D+00
      0.6401216923D+00  0.8137573261D+00
 S   1 1.00       0.000000000000
      0.1612777588D+00  0.1000000000D+01
 ****
     46 0
 S   3 1.00       0.000000000000
      0.1873113696D+02  0.3349460434D-01
      0.2825394365D+01  0.2347269535D+00
      0.6401216923D+00  0.8137573261D+00
 S   1 1.00       0.000000000000
      0.1612777588D+00  0.1000000000D+01
 ****
     47 0
 S   6 1.00       0.000000000000
      0.3047524880D+04  0.1834737132D-02
      0.4573695180D+03  0.1403732281D-01
      0.1039486850D+03  0.6884262226D-01
      0.2921015530D+02  0.2321844432D+00
      0.9286662960D+01  0.4679413484D+00
      0.3163926960D+01  0.3623119853D+00
 SP   3 1.00       0.000000000000
      0.7868272350D+01 -0.1193324198D+00  0.6899906659D-01
      0.1881288540D+01 -0.1608541517D+00  0.3164239610D+00
      0.5442492580D+00  0.1143456438D+01  0.7443082909D+00
 SP   1 1.00       0.000000000000
      0.1687144782D+00  0.1000000000D+01  0.1000000000D+01
 D   1 1.00       0.000000000000
      0.8000000000D+00  0.1000000000D+01
 ****
     48 0
 S   3 1.00       0.000000000000
      0.1873113696D+02  0.3349460434D-01
      0.2825394365D+01  0.2347269535D+00
      0.6401216923D+00  0.8137573261D+00
 S   1 1.00       0.000000000000
      0.1612777588D+00  0.1000000000D+01
 ****
     49 0
 S   3 1.00       0.000000000000
      0.1873113696D+02  0.3349460434D-01
      0.2825394365D+01  0.2347269535D+00
      0.6401216923D+00  0.8137573261D+00
 S   1 1.00       0.000000000000
      0.1612777588D+00  0.1000000000D+01
 ****
     50 0
 S   6 1.00       0.000000000000
      0.3047524880D+04  0.1834737132D-02
      0.4573695180D+03  0.1403732281D-01
      0.1039486850D+03  0.6884262226D-01
      0.2921015530D+02  0.2321844432D+00
      0.9286662960D+01  0.4679413484D+00
      0.3163926960D+01  0.3623119853D+00
 SP   3 1.00       0.000000000000
      0.7868272350D+01 -0.1193324198D+00  0.6899906659D-01
      0.1881288540D+01 -0.1608541517D+00  0.3164239610D+00
      0.5442492580D+00  0.1143456438D+01  0.7443082909D+00
 SP   1 1.00       0.000000000000
      0.1687144782D+00  0.1000000000D+01  0.1000000000D+01
 D   1 1.00       0.000000000000
      0.8000000000D+00  0.1000000000D+01
 ****
     51 0
 S   3 1.00       0.000000000000
      0.1873113696D+02  0.3349460434D-01
      0.2825394365D+01  0.2347269535D+00
      0.6401216923D+00  0.8137573261D+00
 S   1 1.00       0.000000000000
      0.1612777588D+00  0.1000000000D+01
 ****
     52 0
 S   3 1.00       0.000000000000
      0.1873113696D+02  0.3349460434D-01
      0.2825394365D+01  0.2347269535D+00
      0.6401216923D+00  0.8137573261D+00
 S   1 1.00       0.000000000000
      0.1612777588D+00  0.1000000000D+01
 ****
     53 0
 S   6 1.00       0.000000000000
      0.3047524880D+04  0.1834737132D-02
      0.4573695180D+03  0.1403732281D-01
      0.1039486850D+03  0.6884262226D-01
      0.2921015530D+02  0.2321844432D+00
      0.9286662960D+01  0.4679413484D+00
      0.3163926960D+01  0.3623119853D+00
 SP   3 1.00       0.000000000000
      0.7868272350D+01 -0.1193324198D+00  0.6899906659D-01
      0.1881288540D+01 -0.1608541517D+00  0.3164239610D+00
      0.5442492580D+00  0.1143456438D+01  0.7443082909D+00
 SP   1 1.00       0.000000000000
      0.1687144782D+00  0.1000000000D+01  0.1000000000D+01
 D   1 1.00       0.000000000000
      0.8000000000D+00  0.1000000000D+01
 ****
     54 0
 S   3 1.00       0.000000000000
      0.1873113696D+02  0.3349460434D-01
      0.2825394365D+01  0.2347269535D+00
      0.6401216923D+00  0.8137573261D+00
 S   1 1.00       0.000000000000
      0.1612777588D+00  0.1000000000D+01
 ****
     55 0
 S   6 1.00       0.000000000000
      0.3047524880D+04  0.1834737132D-02
      0.4573695180D+03  0.1403732281D-01
      0.1039486850D+03  0.6884262226D-01
      0.2921015530D+02  0.2321844432D+00
      0.9286662960D+01  0.4679413484D+00
      0.3163926960D+01  0.3623119853D+00
 SP   3 1.00       0.000000000000
      0.7868272350D+01 -0.1193324198D+00  0.6899906659D-01
      0.1881288540D+01 -0.1608541517D+00  0.3164239610D+00
      0.5442492580D+00  0.1143456438D+01  0.7443082909D+00
 SP   1 1.00       0.000000000000
      0.1687144782D+00  0.1000000000D+01  0.1000000000D+01
 D   1 1.00       0.000000000000
      0.8000000000D+00  0.1000000000D+01
 ****
     56 0
 S   3 1.00       0.000000000000
      0.1873113696D+02  0.3349460434D-01
      0.2825394365D+01  0.2347269535D+00
      0.6401216923D+00  0.8137573261D+00
 S   1 1.00       0.000000000000
      0.1612777588D+00  0.1000000000D+01
 ****
     57 0
 S   3 1.00       0.000000000000
      0.1873113696D+02  0.3349460434D-01
      0.2825394365D+01  0.2347269535D+00
      0.6401216923D+00  0.8137573261D+00
 S   1 1.00       0.000000000000
      0.1612777588D+00  0.1000000000D+01
 ****
     58 0
 S   3 1.00       0.000000000000
      0.1873113696D+02  0.3349460434D-01
      0.2825394365D+01  0.2347269535D+00
      0.6401216923D+00  0.8137573261D+00
 S   1 1.00       0.000000000000
      0.1612777588D+00  0.1000000000D+01
 ****
     59 0
 S   6 1.00       0.000000000000
      0.3047524880D+04  0.1834737132D-02
      0.4573695180D+03  0.1403732281D-01
      0.1039486850D+03  0.6884262226D-01
      0.2921015530D+02  0.2321844432D+00
      0.9286662960D+01  0.4679413484D+00
      0.3163926960D+01  0.3623119853D+00
 SP   3 1.00       0.000000000000
      0.7868272350D+01 -0.1193324198D+00  0.6899906659D-01
      0.1881288540D+01 -0.1608541517D+00  0.3164239610D+00
      0.5442492580D+00  0.1143456438D+01  0.7443082909D+00
 SP   1 1.00       0.000000000000
      0.1687144782D+00  0.1000000000D+01  0.1000000000D+01
 D   1 1.00       0.000000000000
      0.8000000000D+00  0.1000000000D+01
 ****
     60 0
 S   3 1.00       0.000000000000
      0.1873113696D+02  0.3349460434D-01
      0.2825394365D+01  0.2347269535D+00
      0.6401216923D+00  0.8137573261D+00
 S   1 1.00       0.000000000000
      0.1612777588D+00  0.1000000000D+01
 ****
     61 0
 S   3 1.00       0.000000000000
      0.1873113696D+02  0.3349460434D-01
      0.2825394365D+01  0.2347269535D+00
      0.6401216923D+00  0.8137573261D+00
 S   1 1.00       0.000000000000
      0.1612777588D+00  0.1000000000D+01
 ****
     62 0
 S   6 1.00       0.000000000000
      0.3047524880D+04  0.1834737132D-02
      0.4573695180D+03  0.1403732281D-01
      0.1039486850D+03  0.6884262226D-01
      0.2921015530D+02  0.2321844432D+00
      0.9286662960D+01  0.4679413484D+00
      0.3163926960D+01  0.3623119853D+00
 SP   3 1.00       0.000000000000
      0.7868272350D+01 -0.1193324198D+00  0.6899906659D-01
      0.1881288540D+01 -0.1608541517D+00  0.3164239610D+00
      0.5442492580D+00  0.1143456438D+01  0.7443082909D+00
 SP   1 1.00       0.000000000000
      0.1687144782D+00  0.1000000000D+01  0.1000000000D+01
 D   1 1.00       0.000000000000
      0.8000000000D+00  0.1000000000D+01
 ****
     63 0
 S   3 1.00       0.000000000000
      0.1873113696D+02  0.3349460434D-01
      0.2825394365D+01  0.2347269535D+00
      0.6401216923D+00  0.8137573261D+00
 S   1 1.00       0.000000000000
      0.1612777588D+00  0.1000000000D+01
 ****
     64 0
 S   3 1.00       0.000000000000
      0.1873113696D+02  0.3349460434D-01
      0.2825394365D+01  0.2347269535D+00
      0.6401216923D+00  0.8137573261D+00
 S   1 1.00       0.000000000000
      0.1612777588D+00  0.1000000000D+01
 ****
     65 0
 S   6 1.00       0.000000000000
      0.3047524880D+04  0.1834737132D-02
      0.4573695180D+03  0.1403732281D-01
      0.1039486850D+03  0.6884262226D-01
      0.2921015530D+02  0.2321844432D+00
      0.9286662960D+01  0.4679413484D+00
      0.3163926960D+01  0.3623119853D+00
 SP   3 1.00       0.000000000000
      0.7868272350D+01 -0.1193324198D+00  0.6899906659D-01
      0.1881288540D+01 -0.1608541517D+00  0.3164239610D+00
      0.5442492580D+00  0.1143456438D+01  0.7443082909D+00
 SP   1 1.00       0.000000000000
      0.1687144782D+00  0.1000000000D+01  0.1000000000D+01
 D   1 1.00       0.000000000000
      0.8000000000D+00  0.1000000000D+01
 ****
     66 0
 S   3 1.00       0.000000000000
      0.1873113696D+02  0.3349460434D-01
      0.2825394365D+01  0.2347269535D+00
      0.6401216923D+00  0.8137573261D+00
 S   1 1.00       0.000000000000
      0.1612777588D+00  0.1000000000D+01
 ****
     67 0
 S   6 1.00       0.000000000000
      0.3047524880D+04  0.1834737132D-02
      0.4573695180D+03  0.1403732281D-01
      0.1039486850D+03  0.6884262226D-01
      0.2921015530D+02  0.2321844432D+00
      0.9286662960D+01  0.4679413484D+00
      0.3163926960D+01  0.3623119853D+00
 SP   3 1.00       0.000000000000
      0.7868272350D+01 -0.1193324198D+00  0.6899906659D-01
      0.1881288540D+01 -0.1608541517D+00  0.3164239610D+00
      0.5442492580D+00  0.1143456438D+01  0.7443082909D+00
 SP   1 1.00       0.000000000000
      0.1687144782D+00  0.1000000000D+01  0.1000000000D+01
 D   1 1.00       0.000000000000
      0.8000000000D+00  0.1000000000D+01
 ****
     68 0
 S   3 1.00       0.000000000000
      0.1873113696D+02  0.3349460434D-01
      0.2825394365D+01  0.2347269535D+00
      0.6401216923D+00  0.8137573261D+00
 S   1 1.00       0.000000000000
      0.1612777588D+00  0.1000000000D+01
 ****
     69 0
 S   3 1.00       0.000000000000
      0.1873113696D+02  0.3349460434D-01
      0.2825394365D+01  0.2347269535D+00
      0.6401216923D+00  0.8137573261D+00
 S   1 1.00       0.000000000000
      0.1612777588D+00  0.1000000000D+01
 ****
     70 0
 S   3 1.00       0.000000000000
      0.1873113696D+02  0.3349460434D-01
      0.2825394365D+01  0.2347269535D+00
      0.6401216923D+00  0.8137573261D+00
 S   1 1.00       0.000000000000
      0.1612777588D+00  0.1000000000D+01
 ****
     71 0
 S   6 1.00       0.000000000000
      0.3047524880D+04  0.1834737132D-02
      0.4573695180D+03  0.1403732281D-01
      0.1039486850D+03  0.6884262226D-01
      0.2921015530D+02  0.2321844432D+00
      0.9286662960D+01  0.4679413484D+00
      0.3163926960D+01  0.3623119853D+00
 SP   3 1.00       0.000000000000
      0.7868272350D+01 -0.1193324198D+00  0.6899906659D-01
      0.1881288540D+01 -0.1608541517D+00  0.3164239610D+00
      0.5442492580D+00  0.1143456438D+01  0.7443082909D+00
 SP   1 1.00       0.000000000000
      0.1687144782D+00  0.1000000000D+01  0.1000000000D+01
 D   1 1.00       0.000000000000
      0.8000000000D+00  0.1000000000D+01
 ****
     72 0
 S   3 1.00       0.000000000000
      0.1873113696D+02  0.3349460434D-01
      0.2825394365D+01  0.2347269535D+00
      0.6401216923D+00  0.8137573261D+00
 S   1 1.00       0.000000000000
      0.1612777588D+00  0.1000000000D+01
 ****
     73 0
 S   3 1.00       0.000000000000
      0.1873113696D+02  0.3349460434D-01
      0.2825394365D+01  0.2347269535D+00
      0.6401216923D+00  0.8137573261D+00
 S   1 1.00       0.000000000000
      0.1612777588D+00  0.1000000000D+01
 ****
     74 0
 S   3 1.00       0.000000000000
      0.1873113696D+02  0.3349460434D-01
      0.2825394365D+01  0.2347269535D+00
      0.6401216923D+00  0.8137573261D+00
 S   1 1.00       0.000000000000
      0.1612777588D+00  0.1000000000D+01
 ****

 AO basis set (Overlap normalization):
 Atom O1       Shell     1 S   6     bf    1 -     1          7.958773812693         12.388016516182          7.786261280940
      0.5484671660D+04  0.1831074430D-02
      0.8252349460D+03  0.1395017220D-01
      0.1880469580D+03  0.6844507810D-01
      0.5296450000D+02  0.2327143360D+00
      0.1689757040D+02  0.4701928980D+00
      0.5799635340D+01  0.3585208530D+00
 Atom O1       Shell     2 SP   3    bf    2 -     5          7.958773812693         12.388016516182          7.786261280940
      0.1553961625D+02 -0.1107775495D+00  0.7087426823D-01
      0.3599933586D+01 -0.1480262627D+00  0.3397528391D+00
      0.1013761750D+01  0.1130767015D+01  0.7271585773D+00
 Atom O1       Shell     3 SP   1    bf    6 -     9          7.958773812693         12.388016516182          7.786261280940
      0.2700058226D+00  0.1000000000D+01  0.1000000000D+01
 Atom O1       Shell     4 D   1     bf   10 -    15          7.958773812693         12.388016516182          7.786261280940
      0.8000000000D+00  0.1000000000D+01
 Atom H2       Shell     5 S   3     bf   16 -    16          9.433454349444         13.047072545691          6.934138092941
      0.1873113696D+02  0.3349460434D-01
      0.2825394365D+01  0.2347269535D+00
      0.6401216923D+00  0.8137573261D+00
 Atom H2       Shell     6 S   1     bf   17 -    17          9.433454349444         13.047072545691          6.934138092941
      0.1612777588D+00  0.1000000000D+01
 Atom C3       Shell     7 S   6     bf   18 -    18          0.000000000000          0.000000000000          0.000000000000
      0.3047524880D+04  0.1834737132D-02
      0.4573695180D+03  0.1403732281D-01
      0.1039486850D+03  0.6884262226D-01
      0.2921015530D+02  0.2321844432D+00
      0.9286662960D+01  0.4679413484D+00
      0.3163926960D+01  0.3623119853D+00
 Atom C3       Shell     8 SP   3    bf   19 -    22          0.000000000000          0.000000000000          0.000000000000
      0.7868272350D+01 -0.1193324198D+00  0.6899906659D-01
      0.1881288540D+01 -0.1608541517D+00  0.3164239610D+00
      0.5442492580D+00  0.1143456438D+01  0.7443082909D+00
 Atom C3       Shell     9 SP   1    bf   23 -    26          0.000000000000          0.000000000000          0.000000000000
      0.1687144782D+00  0.1000000000D+01  0.1000000000D+01
 Atom C3       Shell    10 D   1     bf   27 -    32          0.000000000000          0.000000000000          0.000000000000
      0.8000000000D+00  0.1000000000D+01
 Atom C4       Shell    11 S   6     bf   33 -    33          2.542688797171          1.170740935065         -0.892502648136
      0.3047524880D+04  0.1834737132D-02
      0.4573695180D+03  0.1403732281D-01
      0.1039486850D+03  0.6884262226D-01
      0.2921015530D+02  0.2321844432D+00
      0.9286662960D+01  0.4679413484D+00
      0.3163926960D+01  0.3623119853D+00
 Atom C4       Shell    12 SP   3    bf   34 -    37          2.542688797171          1.170740935065         -0.892502648136
      0.7868272350D+01 -0.1193324198D+00  0.6899906659D-01
      0.1881288540D+01 -0.1608541517D+00  0.3164239610D+00
      0.5442492580D+00  0.1143456438D+01  0.7443082909D+00
 Atom C4       Shell    13 SP   1    bf   38 -    41          2.542688797171          1.170740935065         -0.892502648136
      0.1687144782D+00  0.1000000000D+01  0.1000000000D+01
 Atom C4       Shell    14 D   1     bf   42 -    47          2.542688797171          1.170740935065         -0.892502648136
      0.8000000000D+00  0.1000000000D+01
 Atom H5       Shell    15 S   3     bf   48 -    48          4.020694212567          0.000000000000          0.000000000000
      0.1873113696D+02  0.3349460434D-01
      0.2825394365D+01  0.2347269535D+00
      0.6401216923D+00  0.8137573261D+00
 Atom H5       Shell    16 S   1     bf   49 -    49          4.020694212567          0.000000000000          0.000000000000
      0.1612777588D+00  0.1000000000D+01
 Atom C6       Shell    17 S   6     bf   50 -    50          3.049243852167          3.882883156429          0.000000000000
      0.3047524880D+04  0.1834737132D-02
      0.4573695180D+03  0.1403732281D-01
      0.1039486850D+03  0.6884262226D-01
      0.2921015530D+02  0.2321844432D+00
      0.9286662960D+01  0.4679413484D+00
      0.3163926960D+01  0.3623119853D+00
 Atom C6       Shell    18 SP   3    bf   51 -    54          3.049243852167          3.882883156429          0.000000000000
      0.7868272350D+01 -0.1193324198D+00  0.6899906659D-01
      0.1881288540D+01 -0.1608541517D+00  0.3164239610D+00
      0.5442492580D+00  0.1143456438D+01  0.7443082909D+00
 Atom C6       Shell    19 SP   1    bf   55 -    58          3.049243852167          3.882883156429          0.000000000000
      0.1687144782D+00  0.1000000000D+01  0.1000000000D+01
 Atom C6       Shell    20 D   1     bf   59 -    64          3.049243852167          3.882883156429          0.000000000000
      0.8000000000D+00  0.1000000000D+01
 Atom H7       Shell    21 S   3     bf   65 -    65          1.606734164280          5.146076013470         -0.799341247381
      0.1873113696D+02  0.3349460434D-01
      0.2825394365D+01  0.2347269535D+00
      0.6401216923D+00  0.8137573261D+00
 Atom H7       Shell    22 S   1     bf   66 -    66          1.606734164280          5.146076013470         -0.799341247381
      0.1612777588D+00  0.1000000000D+01
 Atom C8       Shell    23 S   6     bf   67 -    67          2.922374971743          4.008796251170          2.925354276169
      0.3047524880D+04  0.1834737132D-02
      0.4573695180D+03  0.1403732281D-01
      0.1039486850D+03  0.6884262226D-01
      0.2921015530D+02  0.2321844432D+00
      0.9286662960D+01  0.4679413484D+00
      0.3163926960D+01  0.3623119853D+00
 Atom C8       Shell    24 SP   3    bf   68 -    71          2.922374971743          4.008796251170          2.925354276169
      0.7868272350D+01 -0.1193324198D+00  0.6899906659D-01
      0.1881288540D+01 -0.1608541517D+00  0.3164239610D+00
      0.5442492580D+00  0.1143456438D+01  0.7443082909D+00
 Atom C8       Shell    25 SP   1    bf   72 -    75          2.922374971743          4.008796251170          2.925354276169
      0.1687144782D+00  0.1000000000D+01  0.1000000000D+01
 Atom C8       Shell    26 D   1     bf   76 -    81          2.922374971743          4.008796251170          2.925354276169
      0.8000000000D+00  0.1000000000D+01
 Atom H9       Shell    27 S   3     bf   82 -    82          4.552585317155          2.900458476074          3.600844025534
      0.1873113696D+02  0.3349460434D-01
      0.2825394365D+01  0.2347269535D+00
      0.6401216923D+00  0.8137573261D+00
 Atom H9       Shell    28 S   1     bf   83 -    83          4.552585317155          2.900458476074          3.600844025534
      0.1612777588D+00  0.1000000000D+01
 Atom C10      Shell    29 S   6     bf   84 -    84          0.167775630845         -2.656552393376         -1.306463239114
      0.3047524880D+04  0.1834737132D-02
      0.4573695180D+03  0.1403732281D-01
      0.1039486850D+03  0.6884262226D-01
      0.2921015530D+02  0.2321844432D+00
      0.9286662960D+01  0.4679413484D+00
      0.3163926960D+01  0.3623119853D+00
 Atom C10      Shell    30 SP   3    bf   85 -    88          0.167775630845         -2.656552393376         -1.306463239114
      0.7868272350D+01 -0.1193324198D+00  0.6899906659D-01
      0.1881288540D+01 -0.1608541517D+00  0.3164239610D+00
      0.5442492580D+00  0.1143456438D+01  0.7443082909D+00
 Atom C10      Shell    31 SP   1    bf   89 -    92          0.167775630845         -2.656552393376         -1.306463239114
      0.1687144782D+00  0.1000000000D+01  0.1000000000D+01
 Atom C10      Shell    32 D   1     bf   93 -    98          0.167775630845         -2.656552393376         -1.306463239114
      0.8000000000D+00  0.1000000000D+01
 Atom H11      Shell    33 S   3     bf   99 -    99          1.560558044819         -3.748912722991         -0.210190892946
      0.1873113696D+02  0.3349460434D-01
      0.2825394365D+01  0.2347269535D+00
      0.6401216923D+00  0.8137573261D+00
 Atom H11      Shell    34 S   1     bf  100 -   100          1.560558044819         -3.748912722991         -0.210190892946
      0.1612777588D+00  0.1000000000D+01
 Atom C12      Shell    35 S   6     bf  101 -   101          0.065326811962          0.026358618197          2.915134145914
      0.3047524880D+04  0.1834737132D-02
      0.4573695180D+03  0.1403732281D-01
      0.1039486850D+03  0.6884262226D-01
      0.2921015530D+02  0.2321844432D+00
      0.9286662960D+01  0.4679413484D+00
      0.3163926960D+01  0.3623119853D+00
 Atom C12      Shell    36 SP   3    bf  102 -   105          0.065326811962          0.026358618197          2.915134145914
      0.7868272350D+01 -0.1193324198D+00  0.6899906659D-01
      0.1881288540D+01 -0.1608541517D+00  0.3164239610D+00
      0.5442492580D+00  0.1143456438D+01  0.7443082909D+00
 Atom C12      Shell    37 SP   1    bf  106 -   109          0.065326811962          0.026358618197          2.915134145914
      0.1687144782D+00  0.1000000000D+01  0.1000000000D+01
 Atom C12      Shell    38 D   1     bf  110 -   115          0.065326811962          0.026358618197          2.915134145914
      0.8000000000D+00  0.1000000000D+01
 Atom H13      Shell    39 S   3     bf  116 -   116          1.583561643240         -1.240126595302          3.555356144330
      0.1873113696D+02  0.3349460434D-01
      0.2825394365D+01  0.2347269535D+00
      0.6401216923D+00  0.8137573261D+00
 Atom H13      Shell    40 S   1     bf  117 -   117          1.583561643240         -1.240126595302          3.555356144330
      0.1612777588D+00  0.1000000000D+01
 Atom H14      Shell    41 S   3     bf  118 -   118         -1.689596897762         -0.703924326205          3.730538254397
      0.1873113696D+02  0.3349460434D-01
      0.2825394365D+01  0.2347269535D+00
      0.6401216923D+00  0.8137573261D+00
 Atom H14      Shell    42 S   1     bf  119 -   119         -1.689596897762         -0.703924326205          3.730538254397
      0.1612777588D+00  0.1000000000D+01
 Atom C15      Shell    43 S   6     bf  120 -   120          3.329330631405          6.753479480952          3.972013128835
      0.3047524880D+04  0.1834737132D-02
      0.4573695180D+03  0.1403732281D-01
      0.1039486850D+03  0.6884262226D-01
      0.2921015530D+02  0.2321844432D+00
      0.9286662960D+01  0.4679413484D+00
      0.3163926960D+01  0.3623119853D+00
 Atom C15      Shell    44 SP   3    bf  121 -   124          3.329330631405          6.753479480952          3.972013128835
      0.7868272350D+01 -0.1193324198D+00  0.6899906659D-01
      0.1881288540D+01 -0.1608541517D+00  0.3164239610D+00
      0.5442492580D+00  0.1143456438D+01  0.7443082909D+00
 Atom C15      Shell    45 SP   1    bf  125 -   128          3.329330631405          6.753479480952          3.972013128835
      0.1687144782D+00  0.1000000000D+01  0.1000000000D+01
 Atom C15      Shell    46 D   1     bf  129 -   134          3.329330631405          6.753479480952          3.972013128835
      0.8000000000D+00  0.1000000000D+01
 Atom C16      Shell    47 S   6     bf  135 -   135          2.644568657310          0.587924583579         -3.733254773508
      0.3047524880D+04  0.1834737132D-02
      0.4573695180D+03  0.1403732281D-01
      0.1039486850D+03  0.6884262226D-01
      0.2921015530D+02  0.2321844432D+00
      0.9286662960D+01  0.4679413484D+00
      0.3163926960D+01  0.3623119853D+00
 Atom C16      Shell    48 SP   3    bf  136 -   139          2.644568657310          0.587924583579         -3.733254773508
      0.7868272350D+01 -0.1193324198D+00  0.6899906659D-01
      0.1881288540D+01 -0.1608541517D+00  0.3164239610D+00
      0.5442492580D+00  0.1143456438D+01  0.7443082909D+00
 Atom C16      Shell    49 SP   1    bf  140 -   143          2.644568657310          0.587924583579         -3.733254773508
      0.1687144782D+00  0.1000000000D+01  0.1000000000D+01
 Atom C16      Shell    50 D   1     bf  144 -   149          2.644568657310          0.587924583579         -3.733254773508
      0.8000000000D+00  0.1000000000D+01
 Atom H17      Shell    51 S   3     bf  150 -   150          4.576879031607          0.579389711089         -4.471179184577
      0.1873113696D+02  0.3349460434D-01
      0.2825394365D+01  0.2347269535D+00
      0.6401216923D+00  0.8137573261D+00
 Atom H17      Shell    52 S   1     bf  151 -   151          4.576879031607          0.579389711089         -4.471179184577
      0.1612777588D+00  0.1000000000D+01
 Atom H18      Shell    53 S   3     bf  152 -   152          1.600381471939          2.017790151706         -4.811897014206
      0.1873113696D+02  0.3349460434D-01
      0.2825394365D+01  0.2347269535D+00
      0.6401216923D+00  0.8137573261D+00
 Atom H18      Shell    54 S   1     bf  153 -   153          1.600381471939          2.017790151706         -4.811897014206
      0.1612777588D+00  0.1000000000D+01
 Atom C19      Shell    55 S   6     bf  154 -   154          0.525440184283          2.705119469930          3.970070641549
      0.3047524880D+04  0.1834737132D-02
      0.4573695180D+03  0.1403732281D-01
      0.1039486850D+03  0.6884262226D-01
      0.2921015530D+02  0.2321844432D+00
      0.9286662960D+01  0.4679413484D+00
      0.3163926960D+01  0.3623119853D+00
 Atom C19      Shell    56 SP   3    bf  155 -   158          0.525440184283          2.705119469930          3.970070641549
      0.7868272350D+01 -0.1193324198D+00  0.6899906659D-01
      0.1881288540D+01 -0.1608541517D+00  0.3164239610D+00
      0.5442492580D+00  0.1143456438D+01  0.7443082909D+00
 Atom C19      Shell    57 SP   1    bf  159 -   162          0.525440184283          2.705119469930          3.970070641549
      0.1687144782D+00  0.1000000000D+01  0.1000000000D+01
 Atom C19      Shell    58 D   1     bf  163 -   168          0.525440184283          2.705119469930          3.970070641549
      0.8000000000D+00  0.1000000000D+01
 Atom H20      Shell    59 S   3     bf  169 -   169         -1.139195302092          3.866288923235          3.565028254007
      0.1873113696D+02  0.3349460434D-01
      0.2825394365D+01  0.2347269535D+00
      0.6401216923D+00  0.8137573261D+00
 Atom H20      Shell    60 S   1     bf  170 -   170         -1.139195302092          3.866288923235          3.565028254007
      0.1612777588D+00  0.1000000000D+01
 Atom H21      Shell    61 S   3     bf  171 -   171          0.642125122708          2.582207524850          6.034088029808
      0.1873113696D+02  0.3349460434D-01
      0.2825394365D+01  0.2347269535D+00
      0.6401216923D+00  0.8137573261D+00
 Atom H21      Shell    62 S   1     bf  172 -   172          0.642125122708          2.582207524850          6.034088029808
      0.1612777588D+00  0.1000000000D+01
 Atom C22      Shell    63 S   6     bf  173 -   173          1.363415257287         -2.044221694435         -3.947119483028
      0.3047524880D+04  0.1834737132D-02
      0.4573695180D+03  0.1403732281D-01
      0.1039486850D+03  0.6884262226D-01
      0.2921015530D+02  0.2321844432D+00
      0.9286662960D+01  0.4679413484D+00
      0.3163926960D+01  0.3623119853D+00
 Atom C22      Shell    64 SP   3    bf  174 -   177          1.363415257287         -2.044221694435         -3.947119483028
      0.7868272350D+01 -0.1193324198D+00  0.6899906659D-01
      0.1881288540D+01 -0.1608541517D+00  0.3164239610D+00
      0.5442492580D+00  0.1143456438D+01  0.7443082909D+00
 Atom C22      Shell    65 SP   1    bf  178 -   181          1.363415257287         -2.044221694435         -3.947119483028
      0.1687144782D+00  0.1000000000D+01  0.1000000000D+01
 Atom C22      Shell    66 D   1     bf  182 -   187          1.363415257287         -2.044221694435         -3.947119483028
      0.8000000000D+00  0.1000000000D+01
 Atom H23      Shell    67 S   3     bf  188 -   188         -0.098209501763         -2.036883491018         -5.416157203060
      0.1873113696D+02  0.3349460434D-01
      0.2825394365D+01  0.2347269535D+00
      0.6401216923D+00  0.8137573261D+00
 Atom H23      Shell    68 S   1     bf  189 -   189         -0.098209501763         -2.036883491018         -5.416157203060
      0.1612777588D+00  0.1000000000D+01
 Atom H24      Shell    69 S   3     bf  190 -   190          2.730012624409         -3.496020803559         -4.494034515085
      0.1873113696D+02  0.3349460434D-01
      0.2825394365D+01  0.2347269535D+00
      0.6401216923D+00  0.8137573261D+00
 Atom H24      Shell    70 S   1     bf  191 -   191          2.730012624409         -3.496020803559         -4.494034515085
      0.1612777588D+00  0.1000000000D+01
 Atom C25      Shell    71 S   6     bf  192 -   192          5.646124571315          4.809194875911         -0.915329141424
      0.3047524880D+04  0.1834737132D-02
      0.4573695180D+03  0.1403732281D-01
      0.1039486850D+03  0.6884262226D-01
      0.2921015530D+02  0.2321844432D+00
      0.9286662960D+01  0.4679413484D+00
      0.3163926960D+01  0.3623119853D+00
 Atom C25      Shell    72 SP   3    bf  193 -   196          5.646124571315          4.809194875911         -0.915329141424
      0.7868272350D+01 -0.1193324198D+00  0.6899906659D-01
      0.1881288540D+01 -0.1608541517D+00  0.3164239610D+00
      0.5442492580D+00  0.1143456438D+01  0.7443082909D+00
 Atom C25      Shell    73 SP   1    bf  197 -   200          5.646124571315          4.809194875911         -0.915329141424
      0.1687144782D+00  0.1000000000D+01  0.1000000000D+01
 Atom C25      Shell    74 D   1     bf  201 -   206          5.646124571315          4.809194875911         -0.915329141424
      0.8000000000D+00  0.1000000000D+01
 Atom H26      Shell    75 S   3     bf  207 -   207          5.583205572803          5.210902350363         -2.950297980822
      0.1873113696D+02  0.3349460434D-01
      0.2825394365D+01  0.2347269535D+00
      0.6401216923D+00  0.8137573261D+00
 Atom H26      Shell    76 S   1     bf  208 -   208          5.583205572803          5.210902350363         -2.950297980822
      0.1612777588D+00  0.1000000000D+01
 Atom H27      Shell    77 S   3     bf  209 -   209          7.044273183897          3.278786032042         -0.700340781848
      0.1873113696D+02  0.3349460434D-01
      0.2825394365D+01  0.2347269535D+00
      0.6401216923D+00  0.8137573261D+00
 Atom H27      Shell    78 S   1     bf  210 -   210          7.044273183897          3.278786032042         -0.700340781848
      0.1612777588D+00  0.1000000000D+01
 Atom C28      Shell    79 S   6     bf  211 -   211         -2.232016970548         -4.326451447333         -1.519474586108
      0.3047524880D+04  0.1834737132D-02
      0.4573695180D+03  0.1403732281D-01
      0.1039486850D+03  0.6884262226D-01
      0.2921015530D+02  0.2321844432D+00
      0.9286662960D+01  0.4679413484D+00
      0.3163926960D+01  0.3623119853D+00
 Atom C28      Shell    80 SP   3    bf  212 -   215         -2.232016970548         -4.326451447333         -1.519474586108
      0.7868272350D+01 -0.1193324198D+00  0.6899906659D-01
      0.1881288540D+01 -0.1608541517D+00  0.3164239610D+00
      0.5442492580D+00  0.1143456438D+01  0.7443082909D+00
 Atom C28      Shell    81 SP   1    bf  216 -   219         -2.232016970548         -4.326451447333         -1.519474586108
      0.1687144782D+00  0.1000000000D+01  0.1000000000D+01
 Atom C28      Shell    82 D   1     bf  220 -   225         -2.232016970548         -4.326451447333         -1.519474586108
      0.8000000000D+00  0.1000000000D+01
 Atom H29      Shell    83 S   3     bf  226 -   226         -3.602712662323         -3.316245166106         -2.714630858399
      0.1873113696D+02  0.3349460434D-01
      0.2825394365D+01  0.2347269535D+00
      0.6401216923D+00  0.8137573261D+00
 Atom H29      Shell    84 S   1     bf  227 -   227         -3.602712662323         -3.316245166106         -2.714630858399
      0.1612777588D+00  0.1000000000D+01
 Atom C30      Shell    85 S   6     bf  228 -   228         -2.318810447770          1.472020010226         -0.996475757913
      0.3047524880D+04  0.1834737132D-02
      0.4573695180D+03  0.1403732281D-01
      0.1039486850D+03  0.6884262226D-01
      0.2921015530D+02  0.2321844432D+00
      0.9286662960D+01  0.4679413484D+00
      0.3163926960D+01  0.3623119853D+00
 Atom C30      Shell    86 SP   3    bf  229 -   232         -2.318810447770          1.472020010226         -0.996475757913
      0.7868272350D+01 -0.1193324198D+00  0.6899906659D-01
      0.1881288540D+01 -0.1608541517D+00  0.3164239610D+00
      0.5442492580D+00  0.1143456438D+01  0.7443082909D+00
 Atom C30      Shell    87 SP   1    bf  233 -   236         -2.318810447770          1.472020010226         -0.996475757913
      0.1687144782D+00  0.1000000000D+01  0.1000000000D+01
 Atom C30      Shell    88 D   1     bf  237 -   242         -2.318810447770          1.472020010226         -0.996475757913
      0.8000000000D+00  0.1000000000D+01
 Atom H31      Shell    89 S   3     bf  243 -   243         -4.072139965630          0.663782744793         -0.251911548412
      0.1873113696D+02  0.3349460434D-01
      0.2825394365D+01  0.2347269535D+00
      0.6401216923D+00  0.8137573261D+00
 Atom H31      Shell    90 S   1     bf  244 -   244         -4.072139965630          0.663782744793         -0.251911548412
      0.1612777588D+00  0.1000000000D+01
 Atom H32      Shell    91 S   3     bf  245 -   245         -2.282637801463          3.461468786384         -0.444266431327
      0.1873113696D+02  0.3349460434D-01
      0.2825394365D+01  0.2347269535D+00
      0.6401216923D+00  0.8137573261D+00
 Atom H32      Shell    92 S   1     bf  246 -   246         -2.282637801463          3.461468786384         -0.444266431327
      0.1612777588D+00  0.1000000000D+01
 Atom H33      Shell    93 S   3     bf  247 -   247         -2.444904653863          1.414196148005         -3.059705905162
      0.1873113696D+02  0.3349460434D-01
      0.2825394365D+01  0.2347269535D+00
      0.6401216923D+00  0.8137573261D+00
 Atom H33      Shell    94 S   1     bf  248 -   248         -2.444904653863          1.414196148005         -3.059705905162
      0.1612777588D+00  0.1000000000D+01
 Atom C34      Shell    95 S   6     bf  249 -   249          5.553421504736          8.023943437235          2.609849966290
      0.3047524880D+04  0.1834737132D-02
      0.4573695180D+03  0.1403732281D-01
      0.1039486850D+03  0.6884262226D-01
      0.2921015530D+02  0.2321844432D+00
      0.9286662960D+01  0.4679413484D+00
      0.3163926960D+01  0.3623119853D+00
 Atom C34      Shell    96 SP   3    bf  250 -   253          5.553421504736          8.023943437235          2.609849966290
      0.7868272350D+01 -0.1193324198D+00  0.6899906659D-01
      0.1881288540D+01 -0.1608541517D+00  0.3164239610D+00
      0.5442492580D+00  0.1143456438D+01  0.7443082909D+00
 Atom C34      Shell    97 SP   1    bf  254 -   257          5.553421504736          8.023943437235          2.609849966290
      0.1687144782D+00  0.1000000000D+01  0.1000000000D+01
 Atom C34      Shell    98 D   1     bf  258 -   263          5.553421504736          8.023943437235          2.609849966290
      0.8000000000D+00  0.1000000000D+01
 Atom C35      Shell    99 S   6     bf  264 -   264          3.990433593364          6.577110585079          6.840689340430
      0.3047524880D+04  0.1834737132D-02
      0.4573695180D+03  0.1403732281D-01
      0.1039486850D+03  0.6884262226D-01
      0.2921015530D+02  0.2321844432D+00
      0.9286662960D+01  0.4679413484D+00
      0.3163926960D+01  0.3623119853D+00
 Atom C35      Shell   100 SP   3    bf  265 -   268          3.990433593364          6.577110585079          6.840689340430
      0.7868272350D+01 -0.1193324198D+00  0.6899906659D-01
      0.1881288540D+01 -0.1608541517D+00  0.3164239610D+00
      0.5442492580D+00  0.1143456438D+01  0.7443082909D+00
 Atom C35      Shell   101 SP   1    bf  269 -   272          3.990433593364          6.577110585079          6.840689340430
      0.1687144782D+00  0.1000000000D+01  0.1000000000D+01
 Atom C35      Shell   102 D   1     bf  273 -   278          3.990433593364          6.577110585079          6.840689340430
      0.8000000000D+00  0.1000000000D+01
 Atom H36      Shell   103 S   3     bf  279 -   279          5.452277277186          5.121527696216          7.079528859495
      0.1873113696D+02  0.3349460434D-01
      0.2825394365D+01  0.2347269535D+00
      0.6401216923D+00  0.8137573261D+00
 Atom H36      Shell   104 S   1     bf  280 -   280          5.452277277186          5.121527696216          7.079528859495
      0.1612777588D+00  0.1000000000D+01
 Atom H37      Shell   105 S   3     bf  281 -   281          2.331608939258          5.920694654156          7.890718727524
      0.1873113696D+02  0.3349460434D-01
      0.2825394365D+01  0.2347269535D+00
      0.6401216923D+00  0.8137573261D+00
 Atom H37      Shell   106 S   1     bf  282 -   282          2.331608939258          5.920694654156          7.890718727524
      0.1612777588D+00  0.1000000000D+01
 Atom C38      Shell   107 S   6     bf  283 -   283          6.563126970744          7.110202119296          0.472274308007
      0.3047524880D+04  0.1834737132D-02
      0.4573695180D+03  0.1403732281D-01
      0.1039486850D+03  0.6884262226D-01
      0.2921015530D+02  0.2321844432D+00
      0.9286662960D+01  0.4679413484D+00
      0.3163926960D+01  0.3623119853D+00
 Atom C38      Shell   108 SP   3    bf  284 -   287          6.563126970744          7.110202119296          0.472274308007
      0.7868272350D+01 -0.1193324198D+00  0.6899906659D-01
      0.1881288540D+01 -0.1608541517D+00  0.3164239610D+00
      0.5442492580D+00  0.1143456438D+01  0.7443082909D+00
 Atom C38      Shell   109 SP   1    bf  288 -   291          6.563126970744          7.110202119296          0.472274308007
      0.1687144782D+00  0.1000000000D+01  0.1000000000D+01
 Atom C38      Shell   110 D   1     bf  292 -   297          6.563126970744          7.110202119296          0.472274308007
      0.8000000000D+00  0.1000000000D+01
 Atom H39      Shell   111 S   3     bf  298 -   298          8.173703590759          8.095026770737         -0.354713349239
      0.1873113696D+02  0.3349460434D-01
      0.2825394365D+01  0.2347269535D+00
      0.6401216923D+00  0.8137573261D+00
 Atom H39      Shell   112 S   1     bf  299 -   299          8.173703590759          8.095026770737         -0.354713349239
      0.1612777588D+00  0.1000000000D+01
 Atom C40      Shell   113 S   6     bf  300 -   300          0.935702600116          8.412045507139          3.619751642562
      0.3047524880D+04  0.1834737132D-02
      0.4573695180D+03  0.1403732281D-01
      0.1039486850D+03  0.6884262226D-01
      0.2921015530D+02  0.2321844432D+00
      0.9286662960D+01  0.4679413484D+00
      0.3163926960D+01  0.3623119853D+00
 Atom C40      Shell   114 SP   3    bf  301 -   304          0.935702600116          8.412045507139          3.619751642562
      0.7868272350D+01 -0.1193324198D+00  0.6899906659D-01
      0.1881288540D+01 -0.1608541517D+00  0.3164239610D+00
      0.5442492580D+00  0.1143456438D+01  0.7443082909D+00
[...]
 1560 Fit       0.002438
 1561 Fit       0.000760
 1562 Fit      -0.001383
 1563 Fit       0.001155
 1564 Fit       0.002266
 1565 Fit       0.002380
 1566 Fit       0.000529
 1567 Fit      -0.001413
 1568 Fit      -0.001517
 1569 Fit       0.000285
 1570 Fit       0.000840
 1571 Fit      -0.000525
 1572 Fit      -0.001283
 1573 Fit       0.000830
 1574 Fit       0.002385
 1575 Fit       0.002989
 1576 Fit       0.002138
 1577 Fit      -0.000847
 1578 Fit       0.001263
 1579 Fit       0.002308
 1580 Fit       0.001936
 1581 Fit       0.000503
 1582 Fit      -0.000307
 1583 Fit       0.000735
 1584 Fit      -0.000748
 1585 Fit      -0.001659
 1586 Fit       0.002184
 1587 Fit       0.002655
 1588 Fit       0.001457
 1589 Fit      -0.000784
 1590 Fit       0.002168
 1591 Fit       0.001434
 1592 Fit      -0.000002
 1593 Fit      -0.001924
 1594 Fit      -0.000306
 1595 Fit      -0.000586
 1596 Fit      -0.001792
 1597 Fit      -0.001499
 1598 Fit       0.000017
 1599 Fit      -0.002271
 1600 Fit      -0.002482
 1601 Fit      -0.002821
 1602 Fit      -0.002230
 1603 Fit      -0.000749
 1604 Fit       0.000091
 1605 Fit       0.001899
 1606 Fit       0.000288
 1607 Fit      -0.000598
 1608 Fit       0.001567
 1609 Fit       0.002929
 1610 Fit      -0.000380
 1611 Fit       0.001608
 1612 Fit       0.002756
 1613 Fit      -0.000560
 1614 Fit       0.001185
 1615 Fit       0.002272
 1616 Fit       0.000695
 1617 Fit      -0.000984
 1618 Fit      -0.000342
 1619 Fit      -0.001126
 1620 Fit      -0.001170
 1621 Fit       0.000773
 1622 Fit       0.001672
 1623 Fit       0.001301
 1624 Fit      -0.000117
 1625 Fit       0.002187
 1626 Fit       0.002681
 1627 Fit       0.001866
 1628 Fit       0.000364
 1629 Fit       0.002850
 1630 Fit       0.000133
 1631 Fit       0.002929
 1632 Fit       0.000604
 1633 Fit       0.003188
 1634 Fit       0.001407
 1635 Fit      -0.000928
 1636 Fit       0.002524
 1637 Fit       0.002124
 1638 Fit       0.000178
 1639 Fit      -0.001895
 1640 Fit      -0.024066
 1641 Fit      -0.020870
 1642 Fit      -0.023358
 1643 Fit      -0.026303
 1644 Fit      -0.023758
 1645 Fit      -0.019263
 1646 Fit      -0.013111
 1647 Fit      -0.013614
 1648 Fit      -0.017343
 1649 Fit      -0.022674
 1650 Fit      -0.026204
 1651 Fit      -0.025586
 1652 Fit      -0.013786
 1653 Fit      -0.011650
 1654 Fit      -0.019460
 1655 Fit      -0.024168
 1656 Fit      -0.023860
 1657 Fit      -0.003977
 1658 Fit      -0.008894
 1659 Fit      -0.017150
 1660 Fit      -0.020779
 1661 Fit      -0.018529
 1662 Fit      -0.007218
 1663 Fit      -0.013947
 1664 Fit       0.000659
 1665 Fit       0.000554
 1666 Fit       0.010707
 1667 Fit       0.010601
 1668 Fit       0.007539
 1669 Fit       0.000889
 1670 Fit       0.008394
 1671 Fit       0.016542
 1672 Fit       0.016023
 1673 Fit       0.013045
 1674 Fit       0.007149
 1675 Fit      -0.002189
 1676 Fit       0.015079
 1677 Fit       0.019170
 1678 Fit       0.017708
 1679 Fit       0.013282
 1680 Fit       0.005699
 1681 Fit       0.003620
 1682 Fit       0.003430
 1683 Fit       0.003541
 1684 Fit       0.002941
 1685 Fit       0.003323
 1686 Fit       0.000499
 1687 Fit       0.002643
 1688 Fit       0.002209
 1689 Fit       0.002651
 1690 Fit       0.002943
 1691 Fit      -0.000315
 1692 Fit       0.003074
 1693 Fit       0.002196
 1694 Fit       0.002831
 1695 Fit       0.003163
 1696 Fit       0.002466
 1697 Fit       0.002870
 1698 Fit       0.001392
 1699 Fit       0.002282
 1700 Fit       0.000083
 1701 Fit       0.000355
 1702 Fit      -0.000859
 1703 Fit       0.001492
 1704 Fit       0.000991
 1705 Fit       0.002518
 1706 Fit       0.000407
 1707 Fit       0.001757
 1708 Fit       0.002427
 1709 Fit       0.002313
 1710 Fit       0.002983
 1711 Fit       0.003317
 1712 Fit       0.000754
 1713 Fit       0.001367
 1714 Fit       0.000381
 1715 Fit       0.002258
 1716 Fit       0.002077
 1717 Fit       0.000109
 1718 Fit       0.002878
 1719 Fit       0.000774
 1720 Fit      -0.000162
 1721 Fit      -0.000105
 1722 Fit       0.000774
 1723 Fit      -0.000426
 1724 Fit       0.002771
 1725 Fit       0.003260
 1726 Fit       0.003316
 1727 Fit       0.002836
 1728 Fit       0.002723
 1729 Fit       0.003146
 1730 Fit       0.002810
 1731 Fit       0.002592
 1732 Fit       0.002161
 1733 Fit       0.002427
 1734 Fit       0.001528
 1735 Fit       0.000848
 1736 Fit       0.000629
 1737 Fit       0.002473
 1738 Fit       0.002757
 1739 Fit       0.001821
 1740 Fit       0.002389
 1741 Fit       0.002979
 1742 Fit       0.003705
 1743 Fit       0.001047
 1744 Fit       0.002099
 1745 Fit       0.002278
 1746 Fit       0.000708
 1747 Fit       0.001348
 1748 Fit       0.002165
 1749 Fit       0.002650
 1750 Fit       0.002026
 1751 Fit       0.002432
 1752 Fit       0.003204
 1753 Fit       0.002764
 1754 Fit       0.002274
 1755 Fit       0.002196
 1756 Fit       0.002031
 1757 Fit       0.001552
 1758 Fit       0.001271
 1759 Fit       0.000974
 1760 Fit       0.001389
 1761 Fit       0.001500
 1762 Fit       0.000179
 1763 Fit      -0.000550
 1764 Fit      -0.000019
 1765 Fit       0.003728
 1766 Fit       0.003649
 1767 Fit       0.003200
 1768 Fit       0.000542
 1769 Fit       0.002316
 1770 Fit       0.002762
 1771 Fit       0.002133
 1772 Fit       0.000715
 1773 Fit       0.001425
 1774 Fit       0.002326
 1775 Fit       0.002716
 1776 Fit       0.002034
 1777 Fit       0.002641
 1778 Fit       0.002664
 1779 Fit       0.002346
 1780 Fit       0.002711
 1781 Fit       0.001871
 1782 Fit       0.002036
 1783 Fit       0.002224
 1784 Fit       0.000662
 1785 Fit       0.001222
 1786 Fit       0.002782
 1787 Fit       0.002952
 1788 Fit      -0.002773
 1789 Fit       0.002577
 1790 Fit       0.003111
 1791 Fit       0.003607
 1792 Fit       0.002593
 1793 Fit       0.001235
 1794 Fit       0.001332
 1795 Fit       0.002701
 1796 Fit       0.003138
 1797 Fit       0.003098
 1798 Fit       0.002571
 1799 Fit       0.002654
 1800 Fit      -0.001199
 1801 Fit       0.003204
 1802 Fit       0.001699
 1803 Fit       0.001277
 1804 Fit       0.003394
 1805 Fit       0.002557
 1806 Fit       0.002466
 1807 Fit       0.003499
 1808 Fit       0.002997
 1809 Fit       0.002474
 1810 Fit       0.002939
 1811 Fit       0.001442
 1812 Fit       0.001488
 1813 Fit       0.002446
 1814 Fit       0.002387
 1815 Fit       0.003677
 1816 Fit       0.000718
 1817 Fit      -0.000279
 1818 Fit      -0.000785
 1819 Fit       0.000075
 1820 Fit      -0.000554
 1821 Fit      -0.000417
 1822 Fit       0.000362
 1823 Fit       0.003996
 1824 Fit       0.001212
 1825 Fit       0.002362
 1826 Fit       0.001044
 1827 Fit       0.002143
 1828 Fit       0.000077
 1829 Fit       0.001190
 1830 Fit       0.001429
 1831 Fit       0.000822
 1832 Fit       0.001864
 1833 Fit       0.000469
 1834 Fit       0.003169
 1835 Fit       0.001286
 1836 Fit       0.002098
 1837 Fit       0.000371
 1838 Fit       0.002037
 1839 Fit       0.001430
 1840 Fit       0.001487
 1841 Fit       0.002216
 1842 Fit       0.003236
 1843 Fit       0.003384
 1844 Fit       0.004328
 1845 Fit       0.000484
 1846 Fit       0.001168
 1847 Fit       0.000437
 1848 Fit       0.001258
 1849 Fit       0.000911
 1850 Fit       0.001546
 1851 Fit       0.001699
 1852 Fit       0.001556
 1853 Fit       0.002302
 1854 Fit       0.002573
 1855 Fit       0.002504
 1856 Fit       0.002707
 1857 Fit       0.001593
 1858 Fit      -0.000076
 1859 Fit       0.001117
 1860 Fit       0.001486
 1861 Fit       0.000218
 1862 Fit       0.001627
 1863 Fit       0.002880
 1864 Fit       0.003281
 1865 Fit       0.002242
 1866 Fit       0.003414
 1867 Fit       0.000838
 1868 Fit      -0.002974
 1869 Fit      -0.002812
 1870 Fit      -0.000601
 1871 Fit       0.001827
 1872 Fit      -0.003831
 1873 Fit      -0.006802
 1874 Fit      -0.005818
 1875 Fit      -0.002110
 1876 Fit      -0.003521
 1877 Fit       0.005254
 1878 Fit       0.001619
 1879 Fit       0.005776
 1880 Fit       0.007484
 1881 Fit       0.007757
 1882 Fit       0.003711
 1883 Fit       0.005635
 1884 Fit       0.006117
 1885 Fit       0.004624
 1886 Fit       0.000702
 1887 Fit       0.004322
 1888 Fit       0.004848
 1889 Fit       0.003906
 1890 Fit      -0.001441
 1891 Fit      -0.001419
 1892 Fit      -0.001555
 1893 Fit      -0.001815
 1894 Fit      -0.001557
 1895 Fit      -0.000427
 1896 Fit      -0.001711
 1897 Fit      -0.006006
 1898 Fit      -0.000079
 1899 Fit       0.001954
 1900 Fit      -0.000579
 1901 Fit       0.001244
 1902 Fit       0.002574
 1903 Fit       0.000245
 1904 Fit       0.001859
 1905 Fit       0.002895
 1906 Fit      -0.000464
 1907 Fit       0.001368
 1908 Fit      -0.001609
 1909 Fit      -0.001208
 1910 Fit      -0.001267
 1911 Fit      -0.000471
 1912 Fit      -0.001236
 1913 Fit      -0.001108
 1914 Fit      -0.001218
 1915 Fit      -0.000110
 1916 Fit       0.001401
 1917 Fit      -0.004255
 1918 Fit      -0.001253
 1919 Fit       0.000396
 1920 Fit       0.001892
 1921 Fit      -0.001797
 1922 Fit       0.001135
 1923 Fit       0.003359
 1924 Fit      -0.001487
 1925 Fit       0.015549
 1926 Fit       0.009167
 1927 Fit       0.010961
 1928 Fit       0.012612
 1929 Fit       0.011410
 1930 Fit       0.006705
 1931 Fit       0.007547
 1932 Fit       0.009485
 1933 Fit       0.008757
 1934 Fit       0.006076
 1935 Fit       0.001864
 1936 Fit       0.004918
 1937 Fit      -0.000388
 1938 Fit      -0.007164
 1939 Fit      -0.003230
 1940 Fit      -0.001611
 1941 Fit      -0.002039
 1942 Fit      -0.000707
 1943 Fit      -0.000946
 1944 Fit      -0.000963
 1945 Fit      -0.002979
 1946 Fit      -0.019161
 1947 Fit      -0.010354
 1948 Fit      -0.005325
 1949 Fit      -0.002107
 1950 Fit      -0.010984
 1951 Fit      -0.016223
 1952 Fit      -0.007783
 1953 Fit      -0.004093
 1954 Fit      -0.013567
 1955 Fit      -0.005829
 1956 Fit      -0.002652
 1957 Fit      -0.001233
 1958 Fit      -0.009455
 1959 Fit      -0.002730
 1960 Fit      -0.004735
 1961 Fit      -0.006307
 1962 Fit      -0.010696
 1963 Fit      -0.008298
 1964 Fit      -0.004006
 1965 Fit      -0.001847
 1966 Fit      -0.002373
 1967 Fit      -0.008651
 1968 Fit      -0.018822
 1969 Fit      -0.018199
 1970 Fit      -0.002088
 1971 Fit      -0.000559
 1972 Fit      -0.000361
 1973 Fit      -0.000741
 1974 Fit      -0.002875
 1975 Fit       0.000106
 1976 Fit      -0.002384
 1977 Fit      -0.000621
 1978 Fit       0.000369
 1979 Fit       0.001098
 1980 Fit       0.002004
 1981 Fit       0.002614
 1982 Fit       0.002090
 1983 Fit       0.002530
 1984 Fit       0.001375
 1985 Fit       0.002017
 1986 Fit       0.002226
 1987 Fit       0.001547
 1988 Fit       0.001671
 1989 Fit       0.001474
 1990 Fit       0.000319
 1991 Fit       0.000066
 1992 Fit      -0.007880
 1993 Fit      -0.002670
 1994 Fit      -0.001510
 1995 Fit       0.001092
 1996 Fit       0.000207
 1997 Fit       0.004238
 1998 Fit       0.002485
 1999 Fit       0.002950
 2000 Fit       0.007459
 2001 Fit       0.000790
 2002 Fit       0.002058
 2003 Fit       0.004078
 2004 Fit       0.007751
 2005 Fit       0.001838
 2006 Fit      -0.001052
 2007 Fit      -0.001113
 2008 Fit      -0.001453
 2009 Fit      -0.001264
 2010 Fit      -0.001406
 2011 Fit      -0.000275
 2012 Fit      -0.000765
 2013 Fit      -0.000161
 2014 Fit      -0.000131
 2015 Fit       0.001107
 2016 Fit       0.000084
 2017 Fit       0.000338
 2018 Fit      -0.000357
 2019 Fit       0.000550
 2020 Fit      -0.000524
 2021 Fit       0.000790
 2022 Fit       0.001635
 2023 Fit      -0.000021
 2024 Fit       0.001338
 2025 Fit       0.002029
 2026 Fit      -0.000456
 2027 Fit       0.000890
 2028 Fit       0.002110
 2029 Fit       0.002680
 2030 Fit       0.000444
 2031 Fit       0.000759
 2032 Fit      -0.000045
 2033 Fit      -0.000123
 2034 Fit       0.001048
 2035 Fit       0.002233
 2036 Fit       0.002849
 2037 Fit       0.000260
 2038 Fit       0.001526
 2039 Fit       0.003184
 2040 Fit       0.000554
 2041 Fit       0.000595
 2042 Fit       0.003415
 2043 Fit       0.001535
 2044 Fit       0.002221
 2045 Fit       0.000215
 2046 Fit       0.002118
 2047 Fit       0.000799
 2048 Fit       0.001612
 2049 Fit       0.001502
 2050 Fit       0.000337
 2051 Fit       0.000587
 2052 Fit       0.001522
 2053 Fit       0.002360
 2054 Fit       0.002461
 2055 Fit       0.002809
 2056 Fit       0.002602
 2057 Fit       0.002094
 2058 Fit       0.001785
 2059 Fit       0.001129
 2060 Fit      -0.001423
 2061 Fit      -0.000245
 2062 Fit       0.001175
 2063 Fit       0.002116
 2064 Fit       0.002387
 2065 Fit       0.002023
 2066 Fit       0.000336
 2067 Fit       0.001868
 2068 Fit       0.001602
 2069 Fit       0.001168
 2070 Fit      -0.000957
 2071 Fit       0.000806
 2072 Fit       0.000553
 2073 Fit      -0.000026
 2074 Fit       0.000175
 2075 Fit      -0.000669
 2076 Fit       0.001374
 2077 Fit       0.002201
 2078 Fit       0.002594
 2079 Fit       0.002361
 2080 Fit       0.000479
 2081 Fit       0.000625
 2082 Fit       0.002052
 2083 Fit       0.002638
 2084 Fit       0.001463
 2085 Fit       0.000381
 2086 Fit       0.000814
 2087 Fit       0.000506
 2088 Fit       0.000869
 2089 Fit       0.001116
 2090 Fit       0.001208
 2091 Fit       0.000762
 2092 Fit       0.000683
 2093 Fit       0.000936
 2094 Fit       0.001108
 2095 Fit       0.001339
 2096 Fit       0.001166
 2097 Fit       0.000812
 2098 Fit       0.000288
 2099 Fit       0.000914
 2100 Fit       0.000805
 2101 Fit      -0.001586
 2102 Fit      -0.001319
 2103 Fit      -0.001829
 2104 Fit      -0.001708
 2105 Fit      -0.001592
 2106 Fit      -0.001794
 2107 Fit      -0.000536
 2108 Fit      -0.001484
 2109 Fit      -0.001133
 2110 Fit       0.002370
 2111 Fit       0.001436
 2112 Fit       0.000106
 2113 Fit       0.002268
 2114 Fit       0.002644
 2115 Fit       0.002091
 2116 Fit       0.000859
 2117 Fit      -0.000718
 2118 Fit       0.001092
 2119 Fit       0.001711
 2120 Fit       0.001778
 2121 Fit       0.000472
 2122 Fit      -0.000844
 2123 Fit      -0.000857
 2124 Fit       0.000360
 2125 Fit       0.000649
 2126 Fit      -0.000587
 2127 Fit       0.000878
 2128 Fit       0.002314
 2129 Fit       0.000032
 2130 Fit       0.001350
 2131 Fit       0.002116
 2132 Fit       0.002102
 2133 Fit       0.001342
 2134 Fit      -0.000718
 2135 Fit       0.000764
 2136 Fit       0.001512
 2137 Fit       0.001270
 2138 Fit       0.000288
 2139 Fit      -0.000431
 2140 Fit       0.000298
 2141 Fit      -0.000600
 2142 Fit       0.002138
 2143 Fit       0.001406
 2144 Fit       0.001872
 2145 Fit       0.001020
 2146 Fit      -0.000287
 2147 Fit       0.001214
 2148 Fit       0.000714
 2149 Fit      -0.000126
 2150 Fit      -0.001282
 2151 Fit      -0.001060
 2152 Fit      -0.000830
 2153 Fit       0.000283
 2154 Fit      -0.001070
 2155 Fit      -0.001493
 2156 Fit      -0.001700
 2157 Fit      -0.002016
 2158 Fit      -0.001670
 2159 Fit      -0.001707
 2160 Fit      -0.001686
 2161 Fit      -0.001465
 2162 Fit      -0.001187
 2163 Fit      -0.001602
 2164 Fit      -0.000674
 2165 Fit      -0.000479
 2166 Fit       0.000085
 2167 Fit       0.001365
 2168 Fit       0.000362
 2169 Fit      -0.000428
 2170 Fit       0.001067
 2171 Fit       0.002260
 2172 Fit      -0.000155
 2173 Fit       0.001278
 2174 Fit       0.002138
 2175 Fit      -0.001089
 2176 Fit       0.000314
 2177 Fit       0.001485
 2178 Fit       0.002247
 2179 Fit      -0.000488
 2180 Fit       0.000693
 2181 Fit       0.001496
 2182 Fit      -0.001338
 2183 Fit      -0.000942
 2184 Fit      -0.001391
 2185 Fit      -0.000653
 2186 Fit       0.000340
 2187 Fit       0.000624
 2188 Fit       0.000124
 2189 Fit      -0.000882
 2190 Fit       0.000364
 2191 Fit       0.001434
 2192 Fit       0.001697
 2193 Fit       0.001185
 2194 Fit       0.000167
 2195 Fit       0.002126
 2196 Fit       0.002258
 2197 Fit       0.001651
 2198 Fit       0.000739
 2199 Fit       0.000189
 2200 Fit       0.002201
 2201 Fit       0.000432
 2202 Fit       0.002638
 2203 Fit       0.001151
 2204 Fit      -0.000578
 2205 Fit       0.002382
 2206 Fit       0.001242
 2207 Fit      -0.000278
 2208 Fit       0.000316
 2209 Fit      -0.001245
 -----------------------------------------------------------------
 Leave Link  602 at Tue Mar 21 13:02:34 2017, MaxMem=    33554432 cpu:         3.2
 (Enter /home/michal/g09/l9999.exe)

 Test job not archived.
 1\1\GINC-LINUX\SP\RHF\6-31G(d)\C27H46O1\MICHAL\21-Mar-2017\0\\#P HF/6-
 31G* SCF(Conver=6) NoSymm Test Pop=mk IOp(6/33=2) GFInput GFPrint\\MEP
  - Input generated by R.E.D.-III.x MOLECULE\\0,1\O,0,4.21160171,6.5554
 56,4.12031201\H,0,4.99196904,6.90421343,3.66938784\C,0,0.,0.,0.\C,0,1.
 34553296,0.61952942,-0.47229206\H,0,2.12765974,0.,0.\C,0,1.61359035,2.
 05473327,0.\H,0,0.8502471,2.72318614,-0.42299317\C,0,1.54645423,2.1213
 6361,1.54803081\H,0,2.40912439,1.53485652,1.90548459\C,0,0.08878304,-1
 .40578698,-0.69135057\H,0,0.82581175,-1.98383917,-0.11122823\C,0,0.034
 56946,0.01394838,1.54262255\H,0,0.83798473,-0.65624673,1.88141344\H,0,
 -0.89409617,-0.37250071,1.97411582\C,0,1.76180589,3.57378742,2.1018988
 2\C,0,1.39944546,0.31111629,-1.97555334\H,0,2.42198007,0.30659983,-2.3
 6604612\H,0,0.8468854,1.06776856,-2.54634623\C,0,0.27805097,1.43148757
 ,2.1008709\H,0,-0.60283619,2.04595198,1.8865317\H,0,0.33979798,1.36644
 537,3.19310186\C,0,0.72148828,-1.08175553,-2.08872567\H,0,-0.05197023,
 -1.07787232,-2.86610695\H,0,1.44466046,-1.85001453,-2.37814064\C,0,2.9
 8780044,2.54491632,-0.48437132\H,0,2.95450514,2.75749076,-1.56123045\H
 ,0,3.72766882,1.73505884,-0.37060438\C,0,-1.18113251,-2.2894595,-0.804
 07132\H,0,-1.90647343,-1.75488136,-1.43652078\C,0,-1.22706164,0.778959
 44,-0.52731226\H,0,-2.15488366,0.3512587,-0.13330585\H,0,-1.2079199,1.
 83173039,-0.23509567\H,0,-1.29378782,0.74836037,-1.61912663\C,0,2.9387
 4409,4.24608799,1.38107312\C,0,2.11164651,3.48045702,3.61993689\H,0,2.
 88522087,2.71019573,3.74632532\H,0,1.23383431,3.13309667,4.17558851\C,
 0,3.47305721,3.76255691,0.2499168\H,0,4.32533765,4.28370367,-0.1877062
 2\C,0,0.49515249,4.45146276,1.91549007\H,0,-0.3247245,4.11150519,2.556
 02603\H,0,0.68976722,5.49607969,2.17069059\H,0,0.15029975,4.43202313,0
 .87700615\C,0,3.48991736,5.51042574,2.01376742\H,0,4.37867265,5.839251
 61,1.45980738\H,0,2.75835917,6.32852956,1.95203852\C,0,2.61636145,4.78
 69047,4.24970112\H,0,1.83604743,5.55814481,4.24274629\H,0,2.88148932,4
 .61853245,5.29966766\C,0,-0.84507191,-3.62053026,-1.52192104\H,0,-0.26
 290492,-3.40777835,-2.42574856\H,0,-0.18689127,-4.21625985,-0.87060861
 \C,0,3.82910861,5.32186887,3.49947628\H,0,4.65371975,4.59534534,3.5886
 5194\C,0,-1.84945615,-2.56787621,0.55388357\H,0,-1.13900071,-3.0263094
 5,1.25340272\H,0,-2.6959482,-3.25242687,0.44594173\H,0,-2.23437129,-1.
 65786327,1.0191103\C,0,-2.05546753,-4.47346054,-1.93724329\H,0,-2.6184
 4613,-4.78751183,-1.05114588\H,0,-2.73709453,-3.85197893,-2.53394591\C
 ,0,-1.63945879,-5.71438676,-2.7441932\H,0,-0.92682642,-6.299569,-2.144
 89998\H,0,-1.08547269,-5.38494061,-3.63513847\C,0,-2.77686215,-6.65727
 051,-3.20159551\H,0,-2.28847385,-7.46737703,-3.76330523\C,0,-3.7631653
 4,-5.97284172,-4.16246319\H,0,-3.24098288,-5.51243049,-5.00952977\H,0,
 -4.4802757,-6.69677398,-4.5660847\H,0,-4.33963686,-5.18839478,-3.65868
 303\C,0,-3.51757593,-7.31014905,-2.0226402\H,0,-2.8194553,-7.80597589,
 -1.33790467\H,0,-4.22813716,-8.06478258,-2.37886598\H,0,-4.08720289,-6
 .57363339,-1.44425135\\Version=EM64L-G09RevD.01\HF=-1124.0788983\RMSD=
 4.638e-07\Dipole=0.2153919,-0.3878692,-0.5516637\Quadrupole=8.2637791,
 -3.9868375,-4.2769416,0.8974626,-3.250122,-8.5850235\PG=C01 [X(C27H46O
 1)]\\@


 SILVERMAN'S PARADOX - IF MURPHY'S LAW CAN GO WRONG, IT WILL.
 Job cpu time:       0 days  0 hours 10 minutes 35.9 seconds.
 File lengths (MBytes):  RWF=    142 Int=      0 D2E=      0 Chk=     10 Scr=      1
 Normal termination of Gaussian 09 at Tue Mar 21 13:02:34 2017.
