 Entering Gaussian System, Link 0=/home/michal/g09/g09
 Input=JOB2-gau_m1-5-2.com
 Output=JOB2-gau_m1-5-2.log
 Initial command:
 /home/michal/g09/l1.exe "/home/michal/gauss_scratch/Gau-13968.inp" -scrdir="/home/michal/gauss_scratch/"
 Entering Link 1 = /home/michal/g09/l1.exe PID=     13969.
  
 Copyright (c) 1988,1990,1992,1993,1995,1998,2003,2009,2013,
            Gaussian, Inc.  All Rights Reserved.
  
 This is part of the Gaussian(R) 09 program.  It is based on
 the Gaussian(R) 03 system (copyright 2003, Gaussian, Inc.),
 the Gaussian(R) 98 system (copyright 1998, Gaussian, Inc.),
 the Gaussian(R) 94 system (copyright 1995, Gaussian, Inc.),
 the Gaussian 92(TM) system (copyright 1992, Gaussian, Inc.),
 the Gaussian 90(TM) system (copyright 1990, Gaussian, Inc.),
 the Gaussian 88(TM) system (copyright 1988, Gaussian, Inc.),
 the Gaussian 86(TM) system (copyright 1986, Carnegie Mellon
 University), and the Gaussian 82(TM) system (copyright 1983,
 Carnegie Mellon University). Gaussian is a federally registered
 trademark of Gaussian, Inc.
  
 This software contains proprietary and confidential information,
 including trade secrets, belonging to Gaussian, Inc.
  
 This software is provided under written license and may be
 used, copied, transmitted, or stored only in accord with that
 written license.
  
 The following legend is applicable only to US Government
 contracts under FAR:
  
                    RESTRICTED RIGHTS LEGEND
  
 Use, reproduction and disclosure by the US Government is
 subject to restrictions as set forth in subparagraphs (a)
 and (c) of the Commercial Computer Software - Restricted
 Rights clause in FAR 52.227-19.
  
 Gaussian, Inc.
 340 Quinnipiac St., Bldg. 40, Wallingford CT 06492
  
  
 ---------------------------------------------------------------
 Warning -- This program may not be used in any manner that
 competes with the business of Gaussian, Inc. or will provide
 assistance to any competitor of Gaussian, Inc.  The licensee
 of this program is prohibited from giving any competitor of
 Gaussian, Inc. access to this program.  By using this program,
 the user acknowledges that Gaussian, Inc. is engaged in the
 business of creating and licensing software in the field of
 computational chemistry and represents and warrants to the
 licensee that it is not a competitor of Gaussian, Inc. and that
 it will not use this program in any manner prohibited above.
 ---------------------------------------------------------------
  

 Cite this work as:
 Gaussian 09, Revision D.01,
 M. J. Frisch, G. W. Trucks, H. B. Schlegel, G. E. Scuseria, 
 M. A. Robb, J. R. Cheeseman, G. Scalmani, V. Barone, B. Mennucci, 
 G. A. Petersson, H. Nakatsuji, M. Caricato, X. Li, H. P. Hratchian, 
 A. F. Izmaylov, J. Bloino, G. Zheng, J. L. Sonnenberg, M. Hada, 
 M. Ehara, K. Toyota, R. Fukuda, J. Hasegawa, M. Ishida, T. Nakajima, 
 Y. Honda, O. Kitao, H. Nakai, T. Vreven, J. A. Montgomery, Jr., 
 J. E. Peralta, F. Ogliaro, M. Bearpark, J. J. Heyd, E. Brothers, 
 K. N. Kudin, V. N. Staroverov, T. Keith, R. Kobayashi, J. Normand, 
 K. Raghavachari, A. Rendell, J. C. Burant, S. S. Iyengar, J. Tomasi, 
 M. Cossi, N. Rega, J. M. Millam, M. Klene, J. E. Knox, J. B. Cross, 
 V. Bakken, C. Adamo, J. Jaramillo, R. Gomperts, R. E. Stratmann, 
 O. Yazyev, A. J. Austin, R. Cammi, C. Pomelli, J. W. Ochterski, 
 R. L. Martin, K. Morokuma, V. G. Zakrzewski, G. A. Voth, 
 P. Salvador, J. J. Dannenberg, S. Dapprich, A. D. Daniels, 
 O. Farkas, J. B. Foresman, J. V. Ortiz, J. Cioslowski, 
 and D. J. Fox, Gaussian, Inc., Wallingford CT, 2013.
 
 ******************************************
 Gaussian 09:  EM64L-G09RevD.01 24-Apr-2013
                21-Mar-2017 
 ******************************************
 %Mem=256MB
 %NProc=12
 Will use up to   12 processors via shared memory.
 ----------------------------------------------------------------------
 #P HF/6-31G* SCF(Conver=6) NoSymm Test Pop=mk IOp(6/33=2) GFInput GFPr
 int
 ----------------------------------------------------------------------
 1/38=1/1;
 2/12=2,15=1,17=6,18=5,40=1/2;
 3/5=1,6=6,7=1,11=9,16=1,24=110,25=1,30=1/1,2,3;
 4//1;
 5/5=2,6=6,38=5/2;
 6/7=2,8=2,9=2,10=2,15=8,20=1,28=1,33=2/1,2;
 99/5=1,9=1/99;
 Leave Link    1 at Tue Mar 21 12:02:22 2017, MaxMem=    33554432 cpu:         0.6
 (Enter /home/michal/g09/l101.exe)
 ----------------------------------------------
 MEP - Input generated by R.E.D.-III.x MOLECULE
 ----------------------------------------------
 Symbolic Z-matrix:
 Charge =  0 Multiplicity = 1
 O                     0.4422   -3.38932   7.25366 
 H                     0.27567  -4.32989   7.10693 
 C                     1.50844   1.50097   0. 
 C                     1.10392   0.        0. 
 H                     0.        0.        0. 
 C                     1.51747  -0.79479   1.24576 
 H                     2.61447  -0.81679   1.31312 
 C                     0.94371  -0.11775   2.51783 
 H                    -0.15003  -0.23964   2.44831 
 C                     0.9495    1.935    -1.39971 
 H                    -0.14495   1.99382  -1.28676 
 C                     0.83611   2.13386   1.23604 
 H                    -0.25462   2.0914    1.10218 
 H                     1.09488   3.19222   1.34162 
 C                     1.36952  -0.85076   3.83849 
 C                     1.53616  -0.50874  -1.3831 
 H                     0.97986  -1.39813  -1.69553 
 H                     2.59774  -0.78549  -1.37941 
 C                     1.2225    1.40302   2.53857 
 H                     2.28418   1.58389   2.73754 
 H                     0.67847   1.86635   3.36943 
 C                     1.27578   0.70511  -2.31699 
 H                     2.152     0.91569  -2.94154 
 H                     0.45074   0.49884  -3.00518 
 C                     1.02297  -2.24785   1.15926 
 H                     1.62443  -2.80833   0.4312 
 H                    -0.00501  -2.26287   0.76019 
 C                     1.40934   3.27611  -2.02672 
 H                     2.49138   3.19661  -2.20834 
 C                     3.04143   1.69796   0.0499 
 H                     3.29333   2.76184   0.10893 
 H                     3.49433   1.21132   0.91712 
 H                     3.53577   1.29626  -0.83985 
 C                     1.21766  -2.36955   3.67378 
 C                     0.42269  -0.39037   4.99052 
 H                    -0.61248  -0.44589   4.62576 
 H                     0.61457   0.66319   5.22113 
 C                     1.04864  -2.96035   2.48166 
 H                     0.92199  -4.04314   2.45034 
 C                     2.84065  -0.53477   4.21982 
 H                     2.95966   0.51025   4.52278 
 H                     3.17995  -1.1518    5.05551 
 H                     3.51649  -0.72818   3.38102 
 C                     1.2657   -3.19887   4.94367 
 H                     1.05455  -4.24881   4.70303 
 H                     2.27022  -3.17259   5.38924 
 C                     0.52908  -1.21203   6.2835 
 H                     1.51886  -1.1013    6.74374 
 H                    -0.20026  -0.85113   7.0176 
 C                     0.72159   3.51105  -3.40686 
 H                     0.24696   2.58605  -3.75017 
 H                    -0.09783   4.23298  -3.27954 
 C                     0.28671  -2.69098   6.01205 
 H                    -0.74427  -2.82258   5.64393 
 C                     1.17247   4.49131  -1.11062 
 H                     0.12439   4.53784  -0.78971 
 H                     1.39478   5.42425  -1.63711 
 H                     1.79555   4.46751  -0.21303 
 C                     1.65085   3.99393  -4.53766 
 H                     2.44204   3.24564  -4.67864 
 H                     1.07459   4.00699  -5.47418 
 C                     2.27692   5.38225  -4.33558 
 H                     2.93785   5.37454  -3.45691 
 H                     1.47367   6.0981   -4.10867 
 C                     3.07593   5.91707  -5.54242 
 H                     2.41327   5.88129  -6.42111 
 C                     4.31703   5.0647   -5.85359 
 H                     4.05747   4.02964  -6.09706 
 H                     4.86944   5.47527  -6.70648 
 H                     5.00018   5.04571  -4.99428 
 C                     3.47532   7.3841   -5.31732 
 H                     2.59714   8.01477  -5.13724 
 H                     4.00759   7.78945  -6.18542 
 H                     4.13815   7.47967  -4.44763 
 
 NAtoms=     74 NQM=       74 NQMF=       0 NMMI=      0 NMMIF=      0
                NMic=       0 NMicF=      0.
                    Isotopes and Nuclear Properties:
 (Nuclear quadrupole moments (NQMom) in fm**2, nuclear magnetic moments (NMagM)
  in nuclear magnetons)

  Atom         1           2           3           4           5           6           7           8           9          10
 IAtWgt=          16           1          12          12           1          12           1          12           1          12
 AtmWgt=  15.9949146   1.0078250  12.0000000  12.0000000   1.0078250  12.0000000   1.0078250  12.0000000   1.0078250  12.0000000
 NucSpn=           0           1           0           0           1           0           1           0           1           0
 AtZEff=   0.0000000   0.0000000   0.0000000   0.0000000   0.0000000   0.0000000   0.0000000   0.0000000   0.0000000   0.0000000
 NQMom=    0.0000000   0.0000000   0.0000000   0.0000000   0.0000000   0.0000000   0.0000000   0.0000000   0.0000000   0.0000000
 NMagM=    0.0000000   2.7928460   0.0000000   0.0000000   2.7928460   0.0000000   2.7928460   0.0000000   2.7928460   0.0000000
 AtZNuc=   8.0000000   1.0000000   6.0000000   6.0000000   1.0000000   6.0000000   1.0000000   6.0000000   1.0000000   6.0000000

  Atom        11          12          13          14          15          16          17          18          19          20
 IAtWgt=           1          12           1           1          12          12           1           1          12           1
 AtmWgt=   1.0078250  12.0000000   1.0078250   1.0078250  12.0000000  12.0000000   1.0078250   1.0078250  12.0000000   1.0078250
 NucSpn=           1           0           1           1           0           0           1           1           0           1
 AtZEff=   0.0000000   0.0000000   0.0000000   0.0000000   0.0000000   0.0000000   0.0000000   0.0000000   0.0000000   0.0000000
 NQMom=    0.0000000   0.0000000   0.0000000   0.0000000   0.0000000   0.0000000   0.0000000   0.0000000   0.0000000   0.0000000
 NMagM=    2.7928460   0.0000000   2.7928460   2.7928460   0.0000000   0.0000000   2.7928460   2.7928460   0.0000000   2.7928460
 AtZNuc=   1.0000000   6.0000000   1.0000000   1.0000000   6.0000000   6.0000000   1.0000000   1.0000000   6.0000000   1.0000000

  Atom        21          22          23          24          25          26          27          28          29          30
 IAtWgt=           1          12           1           1          12           1           1          12           1          12
 AtmWgt=   1.0078250  12.0000000   1.0078250   1.0078250  12.0000000   1.0078250   1.0078250  12.0000000   1.0078250  12.0000000
 NucSpn=           1           0           1           1           0           1           1           0           1           0
 AtZEff=   0.0000000   0.0000000   0.0000000   0.0000000   0.0000000   0.0000000   0.0000000   0.0000000   0.0000000   0.0000000
 NQMom=    0.0000000   0.0000000   0.0000000   0.0000000   0.0000000   0.0000000   0.0000000   0.0000000   0.0000000   0.0000000
 NMagM=    2.7928460   0.0000000   2.7928460   2.7928460   0.0000000   2.7928460   2.7928460   0.0000000   2.7928460   0.0000000
 AtZNuc=   1.0000000   6.0000000   1.0000000   1.0000000   6.0000000   1.0000000   1.0000000   6.0000000   1.0000000   6.0000000

  Atom        31          32          33          34          35          36          37          38          39          40
 IAtWgt=           1           1           1          12          12           1           1          12           1          12
 AtmWgt=   1.0078250   1.0078250   1.0078250  12.0000000  12.0000000   1.0078250   1.0078250  12.0000000   1.0078250  12.0000000
 NucSpn=           1           1           1           0           0           1           1           0           1           0
 AtZEff=   0.0000000   0.0000000   0.0000000   0.0000000   0.0000000   0.0000000   0.0000000   0.0000000   0.0000000   0.0000000
 NQMom=    0.0000000   0.0000000   0.0000000   0.0000000   0.0000000   0.0000000   0.0000000   0.0000000   0.0000000   0.0000000
 NMagM=    2.7928460   2.7928460   2.7928460   0.0000000   0.0000000   2.7928460   2.7928460   0.0000000   2.7928460   0.0000000
 AtZNuc=   1.0000000   1.0000000   1.0000000   6.0000000   6.0000000   1.0000000   1.0000000   6.0000000   1.0000000   6.0000000

  Atom        41          42          43          44          45          46          47          48          49          50
 IAtWgt=           1           1           1          12           1           1          12           1           1          12
 AtmWgt=   1.0078250   1.0078250   1.0078250  12.0000000   1.0078250   1.0078250  12.0000000   1.0078250   1.0078250  12.0000000
 NucSpn=           1           1           1           0           1           1           0           1           1           0
 AtZEff=   0.0000000   0.0000000   0.0000000   0.0000000   0.0000000   0.0000000   0.0000000   0.0000000   0.0000000   0.0000000
 NQMom=    0.0000000   0.0000000   0.0000000   0.0000000   0.0000000   0.0000000   0.0000000   0.0000000   0.0000000   0.0000000
 NMagM=    2.7928460   2.7928460   2.7928460   0.0000000   2.7928460   2.7928460   0.0000000   2.7928460   2.7928460   0.0000000
 AtZNuc=   1.0000000   1.0000000   1.0000000   6.0000000   1.0000000   1.0000000   6.0000000   1.0000000   1.0000000   6.0000000

  Atom        51          52          53          54          55          56          57          58          59          60
 IAtWgt=           1           1          12           1          12           1           1           1          12           1
 AtmWgt=   1.0078250   1.0078250  12.0000000   1.0078250  12.0000000   1.0078250   1.0078250   1.0078250  12.0000000   1.0078250
 NucSpn=           1           1           0           1           0           1           1           1           0           1
 AtZEff=   0.0000000   0.0000000   0.0000000   0.0000000   0.0000000   0.0000000   0.0000000   0.0000000   0.0000000   0.0000000
 NQMom=    0.0000000   0.0000000   0.0000000   0.0000000   0.0000000   0.0000000   0.0000000   0.0000000   0.0000000   0.0000000
 NMagM=    2.7928460   2.7928460   0.0000000   2.7928460   0.0000000   2.7928460   2.7928460   2.7928460   0.0000000   2.7928460
 AtZNuc=   1.0000000   1.0000000   6.0000000   1.0000000   6.0000000   1.0000000   1.0000000   1.0000000   6.0000000   1.0000000

  Atom        61          62          63          64          65          66          67          68          69          70
 IAtWgt=           1          12           1           1          12           1          12           1           1           1
 AtmWgt=   1.0078250  12.0000000   1.0078250   1.0078250  12.0000000   1.0078250  12.0000000   1.0078250   1.0078250   1.0078250
 NucSpn=           1           0           1           1           0           1           0           1           1           1
 AtZEff=   0.0000000   0.0000000   0.0000000   0.0000000   0.0000000   0.0000000   0.0000000   0.0000000   0.0000000   0.0000000
 NQMom=    0.0000000   0.0000000   0.0000000   0.0000000   0.0000000   0.0000000   0.0000000   0.0000000   0.0000000   0.0000000
 NMagM=    2.7928460   0.0000000   2.7928460   2.7928460   0.0000000   2.7928460   0.0000000   2.7928460   2.7928460   2.7928460
 AtZNuc=   1.0000000   6.0000000   1.0000000   1.0000000   6.0000000   1.0000000   6.0000000   1.0000000   1.0000000   1.0000000

  Atom        71          72          73          74
 IAtWgt=          12           1           1           1
 AtmWgt=  12.0000000   1.0078250   1.0078250   1.0078250
 NucSpn=           0           1           1           1
 AtZEff=   0.0000000   0.0000000   0.0000000   0.0000000
 NQMom=    0.0000000   0.0000000   0.0000000   0.0000000
 NMagM=    0.0000000   2.7928460   2.7928460   2.7928460
 AtZNuc=   6.0000000   1.0000000   1.0000000   1.0000000
 Leave Link  101 at Tue Mar 21 12:02:22 2017, MaxMem=    33554432 cpu:         1.0
 (Enter /home/michal/g09/l202.exe)
 Symmetry turned off by external request.
 Stoichiometry    C27H46O
 Framework group  C1[X(C27H46O)]
 Deg. of freedom   216
 Full point group                 C1      NOp   1
                          Input orientation:                          
 ---------------------------------------------------------------------
 Center     Atomic      Atomic             Coordinates (Angstroms)
 Number     Number       Type             X           Y           Z
 ---------------------------------------------------------------------
      1          8           0        0.442204   -3.389320    7.253661
      2          1           0        0.275671   -4.329893    7.106930
      3          6           0        1.508445    1.500970    0.000000
      4          6           0        1.103920    0.000000    0.000000
      5          1           0        0.000000    0.000000    0.000000
      6          6           0        1.517474   -0.794790    1.245764
      7          1           0        2.614468   -0.816786    1.313115
      8          6           0        0.943707   -0.117747    2.517833
      9          1           0       -0.150027   -0.239645    2.448313
     10          6           0        0.949498    1.934999   -1.399712
     11          1           0       -0.144950    1.993815   -1.286756
     12          6           0        0.836112    2.133855    1.236041
     13          1           0       -0.254625    2.091402    1.102179
     14          1           0        1.094881    3.192217    1.341621
     15          6           0        1.369517   -0.850756    3.838488
     16          6           0        1.536156   -0.508736   -1.383105
     17          1           0        0.979861   -1.398128   -1.695529
     18          1           0        2.597736   -0.785485   -1.379409
     19          6           0        1.222499    1.403025    2.538569
     20          1           0        2.284179    1.583889    2.737539
     21          1           0        0.678467    1.866351    3.369430
     22          6           0        1.275780    0.705108   -2.316985
     23          1           0        2.152003    0.915688   -2.941540
     24          1           0        0.450743    0.498842   -3.005182
     25          6           0        1.022968   -2.247855    1.159259
     26          1           0        1.624431   -2.808329    0.431200
     27          1           0       -0.005015   -2.262866    0.760193
     28          6           0        1.409344    3.276112   -2.026719
     29          1           0        2.491377    3.196608   -2.208336
     30          6           0        3.041434    1.697959    0.049895
     31          1           0        3.293330    2.761836    0.108931
     32          1           0        3.494326    1.211316    0.917124
     33          1           0        3.535769    1.296257   -0.839849
     34          6           0        1.217655   -2.369546    3.673778
     35          6           0        0.422690   -0.390373    4.990520
     36          1           0       -0.612478   -0.445885    4.625763
     37          1           0        0.614567    0.663186    5.221126
     38          6           0        1.048641   -2.960345    2.481659
     39          1           0        0.921987   -4.043142    2.450342
     40          6           0        2.840650   -0.534775    4.219819
     41          1           0        2.959664    0.510250    4.522783
     42          1           0        3.179945   -1.151804    5.055514
     43          1           0        3.516489   -0.728183    3.381021
     44          6           0        1.265704   -3.198868    4.943670
     45          1           0        1.054547   -4.248815    4.703032
     46          1           0        2.270221   -3.172593    5.389236
     47          6           0        0.529079   -1.212025    6.283502
     48          1           0        1.518864   -1.101302    6.743737
     49          1           0       -0.200258   -0.851130    7.017597
     50          6           0        0.721593    3.511047   -3.406864
     51          1           0        0.246960    2.586052   -3.750173
     52          1           0       -0.097829    4.232978   -3.279537
     53          6           0        0.286709   -2.690976    6.012049
     54          1           0       -0.744272   -2.822584    5.643927
     55          6           0        1.172468    4.491309   -1.110617
     56          1           0        0.124386    4.537844   -0.789713
     57          1           0        1.394777    5.424246   -1.637114
     58          1           0        1.795551    4.467515   -0.213028
     59          6           0        1.650854    3.993931   -4.537662
     60          1           0        2.442038    3.245635   -4.678636
     61          1           0        1.074586    4.006986   -5.474183
     62          6           0        2.276920    5.382246   -4.335579
     63          1           0        2.937853    5.374540   -3.456910
     64          1           0        1.473671    6.098102   -4.108675
     65          6           0        3.075929    5.917073   -5.542416
     66          1           0        2.413265    5.881287   -6.421114
     67          6           0        4.317032    5.064700   -5.853590
     68          1           0        4.057471    4.029642   -6.097064
     69          1           0        4.869439    5.475269   -6.706480
     70          1           0        5.000176    5.045711   -4.994282
     71          6           0        3.475320    7.384102   -5.317325
     72          1           0        2.597143    8.014773   -5.137242
     73          1           0        4.007593    7.789454   -6.185419
     74          1           0        4.138146    7.479667   -4.447634
 ---------------------------------------------------------------------
 Rotational constants (GHZ):      0.5670413      0.0557789      0.0537028
 Leave Link  202 at Tue Mar 21 12:02:22 2017, MaxMem=    33554432 cpu:         0.0
 (Enter /home/michal/g09/l301.exe)
 Standard basis: 6-31G(d) (6D, 7F)
 Ernie: Thresh=  0.10000D-02 Tol=  0.10000D-05 Strict=F.
 AO basis set in the form of general basis input (Overlap normalization):
      1 0
 S   6 1.00       0.000000000000
      0.5484671660D+04  0.1831074430D-02
      0.8252349460D+03  0.1395017220D-01
      0.1880469580D+03  0.6844507810D-01
      0.5296450000D+02  0.2327143360D+00
      0.1689757040D+02  0.4701928980D+00
      0.5799635340D+01  0.3585208530D+00
 SP   3 1.00       0.000000000000
      0.1553961625D+02 -0.1107775495D+00  0.7087426823D-01
      0.3599933586D+01 -0.1480262627D+00  0.3397528391D+00
      0.1013761750D+01  0.1130767015D+01  0.7271585773D+00
 SP   1 1.00       0.000000000000
      0.2700058226D+00  0.1000000000D+01  0.1000000000D+01
 D   1 1.00       0.000000000000
      0.8000000000D+00  0.1000000000D+01
 ****
      2 0
 S   3 1.00       0.000000000000
      0.1873113696D+02  0.3349460434D-01
      0.2825394365D+01  0.2347269535D+00
      0.6401216923D+00  0.8137573261D+00
 S   1 1.00       0.000000000000
      0.1612777588D+00  0.1000000000D+01
 ****
      3 0
 S   6 1.00       0.000000000000
      0.3047524880D+04  0.1834737132D-02
      0.4573695180D+03  0.1403732281D-01
      0.1039486850D+03  0.6884262226D-01
      0.2921015530D+02  0.2321844432D+00
      0.9286662960D+01  0.4679413484D+00
      0.3163926960D+01  0.3623119853D+00
 SP   3 1.00       0.000000000000
      0.7868272350D+01 -0.1193324198D+00  0.6899906659D-01
      0.1881288540D+01 -0.1608541517D+00  0.3164239610D+00
      0.5442492580D+00  0.1143456438D+01  0.7443082909D+00
 SP   1 1.00       0.000000000000
      0.1687144782D+00  0.1000000000D+01  0.1000000000D+01
 D   1 1.00       0.000000000000
      0.8000000000D+00  0.1000000000D+01
 ****
      4 0
 S   6 1.00       0.000000000000
      0.3047524880D+04  0.1834737132D-02
      0.4573695180D+03  0.1403732281D-01
      0.1039486850D+03  0.6884262226D-01
      0.2921015530D+02  0.2321844432D+00
      0.9286662960D+01  0.4679413484D+00
      0.3163926960D+01  0.3623119853D+00
 SP   3 1.00       0.000000000000
      0.7868272350D+01 -0.1193324198D+00  0.6899906659D-01
      0.1881288540D+01 -0.1608541517D+00  0.3164239610D+00
      0.5442492580D+00  0.1143456438D+01  0.7443082909D+00
 SP   1 1.00       0.000000000000
      0.1687144782D+00  0.1000000000D+01  0.1000000000D+01
 D   1 1.00       0.000000000000
      0.8000000000D+00  0.1000000000D+01
 ****
      5 0
 S   3 1.00       0.000000000000
      0.1873113696D+02  0.3349460434D-01
      0.2825394365D+01  0.2347269535D+00
      0.6401216923D+00  0.8137573261D+00
 S   1 1.00       0.000000000000
      0.1612777588D+00  0.1000000000D+01
 ****
      6 0
 S   6 1.00       0.000000000000
      0.3047524880D+04  0.1834737132D-02
      0.4573695180D+03  0.1403732281D-01
      0.1039486850D+03  0.6884262226D-01
      0.2921015530D+02  0.2321844432D+00
      0.9286662960D+01  0.4679413484D+00
      0.3163926960D+01  0.3623119853D+00
 SP   3 1.00       0.000000000000
      0.7868272350D+01 -0.1193324198D+00  0.6899906659D-01
      0.1881288540D+01 -0.1608541517D+00  0.3164239610D+00
      0.5442492580D+00  0.1143456438D+01  0.7443082909D+00
 SP   1 1.00       0.000000000000
      0.1687144782D+00  0.1000000000D+01  0.1000000000D+01
 D   1 1.00       0.000000000000
      0.8000000000D+00  0.1000000000D+01
 ****
      7 0
 S   3 1.00       0.000000000000
      0.1873113696D+02  0.3349460434D-01
      0.2825394365D+01  0.2347269535D+00
      0.6401216923D+00  0.8137573261D+00
 S   1 1.00       0.000000000000
      0.1612777588D+00  0.1000000000D+01
 ****
      8 0
 S   6 1.00       0.000000000000
      0.3047524880D+04  0.1834737132D-02
      0.4573695180D+03  0.1403732281D-01
      0.1039486850D+03  0.6884262226D-01
      0.2921015530D+02  0.2321844432D+00
      0.9286662960D+01  0.4679413484D+00
      0.3163926960D+01  0.3623119853D+00
 SP   3 1.00       0.000000000000
      0.7868272350D+01 -0.1193324198D+00  0.6899906659D-01
      0.1881288540D+01 -0.1608541517D+00  0.3164239610D+00
      0.5442492580D+00  0.1143456438D+01  0.7443082909D+00
 SP   1 1.00       0.000000000000
      0.1687144782D+00  0.1000000000D+01  0.1000000000D+01
 D   1 1.00       0.000000000000
      0.8000000000D+00  0.1000000000D+01
 ****
      9 0
 S   3 1.00       0.000000000000
      0.1873113696D+02  0.3349460434D-01
      0.2825394365D+01  0.2347269535D+00
      0.6401216923D+00  0.8137573261D+00
 S   1 1.00       0.000000000000
      0.1612777588D+00  0.1000000000D+01
 ****
     10 0
 S   6 1.00       0.000000000000
      0.3047524880D+04  0.1834737132D-02
      0.4573695180D+03  0.1403732281D-01
      0.1039486850D+03  0.6884262226D-01
      0.2921015530D+02  0.2321844432D+00
      0.9286662960D+01  0.4679413484D+00
      0.3163926960D+01  0.3623119853D+00
 SP   3 1.00       0.000000000000
      0.7868272350D+01 -0.1193324198D+00  0.6899906659D-01
      0.1881288540D+01 -0.1608541517D+00  0.3164239610D+00
      0.5442492580D+00  0.1143456438D+01  0.7443082909D+00
 SP   1 1.00       0.000000000000
      0.1687144782D+00  0.1000000000D+01  0.1000000000D+01
 D   1 1.00       0.000000000000
      0.8000000000D+00  0.1000000000D+01
 ****
     11 0
 S   3 1.00       0.000000000000
      0.1873113696D+02  0.3349460434D-01
      0.2825394365D+01  0.2347269535D+00
      0.6401216923D+00  0.8137573261D+00
 S   1 1.00       0.000000000000
      0.1612777588D+00  0.1000000000D+01
 ****
     12 0
 S   6 1.00       0.000000000000
      0.3047524880D+04  0.1834737132D-02
      0.4573695180D+03  0.1403732281D-01
      0.1039486850D+03  0.6884262226D-01
      0.2921015530D+02  0.2321844432D+00
      0.9286662960D+01  0.4679413484D+00
      0.3163926960D+01  0.3623119853D+00
 SP   3 1.00       0.000000000000
      0.7868272350D+01 -0.1193324198D+00  0.6899906659D-01
      0.1881288540D+01 -0.1608541517D+00  0.3164239610D+00
      0.5442492580D+00  0.1143456438D+01  0.7443082909D+00
 SP   1 1.00       0.000000000000
      0.1687144782D+00  0.1000000000D+01  0.1000000000D+01
 D   1 1.00       0.000000000000
      0.8000000000D+00  0.1000000000D+01
 ****
     13 0
 S   3 1.00       0.000000000000
      0.1873113696D+02  0.3349460434D-01
      0.2825394365D+01  0.2347269535D+00
      0.6401216923D+00  0.8137573261D+00
 S   1 1.00       0.000000000000
      0.1612777588D+00  0.1000000000D+01
 ****
     14 0
 S   3 1.00       0.000000000000
      0.1873113696D+02  0.3349460434D-01
      0.2825394365D+01  0.2347269535D+00
      0.6401216923D+00  0.8137573261D+00
 S   1 1.00       0.000000000000
      0.1612777588D+00  0.1000000000D+01
 ****
     15 0
 S   6 1.00       0.000000000000
      0.3047524880D+04  0.1834737132D-02
      0.4573695180D+03  0.1403732281D-01
      0.1039486850D+03  0.6884262226D-01
      0.2921015530D+02  0.2321844432D+00
      0.9286662960D+01  0.4679413484D+00
      0.3163926960D+01  0.3623119853D+00
 SP   3 1.00       0.000000000000
      0.7868272350D+01 -0.1193324198D+00  0.6899906659D-01
      0.1881288540D+01 -0.1608541517D+00  0.3164239610D+00
      0.5442492580D+00  0.1143456438D+01  0.7443082909D+00
 SP   1 1.00       0.000000000000
      0.1687144782D+00  0.1000000000D+01  0.1000000000D+01
 D   1 1.00       0.000000000000
      0.8000000000D+00  0.1000000000D+01
 ****
     16 0
 S   6 1.00       0.000000000000
      0.3047524880D+04  0.1834737132D-02
      0.4573695180D+03  0.1403732281D-01
      0.1039486850D+03  0.6884262226D-01
      0.2921015530D+02  0.2321844432D+00
      0.9286662960D+01  0.4679413484D+00
      0.3163926960D+01  0.3623119853D+00
 SP   3 1.00       0.000000000000
      0.7868272350D+01 -0.1193324198D+00  0.6899906659D-01
      0.1881288540D+01 -0.1608541517D+00  0.3164239610D+00
      0.5442492580D+00  0.1143456438D+01  0.7443082909D+00
 SP   1 1.00       0.000000000000
      0.1687144782D+00  0.1000000000D+01  0.1000000000D+01
 D   1 1.00       0.000000000000
      0.8000000000D+00  0.1000000000D+01
 ****
     17 0
 S   3 1.00       0.000000000000
      0.1873113696D+02  0.3349460434D-01
      0.2825394365D+01  0.2347269535D+00
      0.6401216923D+00  0.8137573261D+00
 S   1 1.00       0.000000000000
      0.1612777588D+00  0.1000000000D+01
 ****
     18 0
 S   3 1.00       0.000000000000
      0.1873113696D+02  0.3349460434D-01
      0.2825394365D+01  0.2347269535D+00
      0.6401216923D+00  0.8137573261D+00
 S   1 1.00       0.000000000000
      0.1612777588D+00  0.1000000000D+01
 ****
     19 0
 S   6 1.00       0.000000000000
      0.3047524880D+04  0.1834737132D-02
      0.4573695180D+03  0.1403732281D-01
      0.1039486850D+03  0.6884262226D-01
      0.2921015530D+02  0.2321844432D+00
      0.9286662960D+01  0.4679413484D+00
      0.3163926960D+01  0.3623119853D+00
 SP   3 1.00       0.000000000000
      0.7868272350D+01 -0.1193324198D+00  0.6899906659D-01
      0.1881288540D+01 -0.1608541517D+00  0.3164239610D+00
      0.5442492580D+00  0.1143456438D+01  0.7443082909D+00
 SP   1 1.00       0.000000000000
      0.1687144782D+00  0.1000000000D+01  0.1000000000D+01
 D   1 1.00       0.000000000000
      0.8000000000D+00  0.1000000000D+01
 ****
     20 0
 S   3 1.00       0.000000000000
      0.1873113696D+02  0.3349460434D-01
      0.2825394365D+01  0.2347269535D+00
      0.6401216923D+00  0.8137573261D+00
 S   1 1.00       0.000000000000
      0.1612777588D+00  0.1000000000D+01
 ****
     21 0
 S   3 1.00       0.000000000000
      0.1873113696D+02  0.3349460434D-01
      0.2825394365D+01  0.2347269535D+00
      0.6401216923D+00  0.8137573261D+00
 S   1 1.00       0.000000000000
      0.1612777588D+00  0.1000000000D+01
 ****
     22 0
 S   6 1.00       0.000000000000
      0.3047524880D+04  0.1834737132D-02
      0.4573695180D+03  0.1403732281D-01
      0.1039486850D+03  0.6884262226D-01
      0.2921015530D+02  0.2321844432D+00
      0.9286662960D+01  0.4679413484D+00
      0.3163926960D+01  0.3623119853D+00
 SP   3 1.00       0.000000000000
      0.7868272350D+01 -0.1193324198D+00  0.6899906659D-01
      0.1881288540D+01 -0.1608541517D+00  0.3164239610D+00
      0.5442492580D+00  0.1143456438D+01  0.7443082909D+00
 SP   1 1.00       0.000000000000
      0.1687144782D+00  0.1000000000D+01  0.1000000000D+01
 D   1 1.00       0.000000000000
      0.8000000000D+00  0.1000000000D+01
 ****
     23 0
 S   3 1.00       0.000000000000
      0.1873113696D+02  0.3349460434D-01
      0.2825394365D+01  0.2347269535D+00
      0.6401216923D+00  0.8137573261D+00
 S   1 1.00       0.000000000000
      0.1612777588D+00  0.1000000000D+01
 ****
     24 0
 S   3 1.00       0.000000000000
      0.1873113696D+02  0.3349460434D-01
      0.2825394365D+01  0.2347269535D+00
      0.6401216923D+00  0.8137573261D+00
 S   1 1.00       0.000000000000
      0.1612777588D+00  0.1000000000D+01
 ****
     25 0
 S   6 1.00       0.000000000000
      0.3047524880D+04  0.1834737132D-02
      0.4573695180D+03  0.1403732281D-01
      0.1039486850D+03  0.6884262226D-01
      0.2921015530D+02  0.2321844432D+00
      0.9286662960D+01  0.4679413484D+00
      0.3163926960D+01  0.3623119853D+00
 SP   3 1.00       0.000000000000
      0.7868272350D+01 -0.1193324198D+00  0.6899906659D-01
      0.1881288540D+01 -0.1608541517D+00  0.3164239610D+00
      0.5442492580D+00  0.1143456438D+01  0.7443082909D+00
 SP   1 1.00       0.000000000000
      0.1687144782D+00  0.1000000000D+01  0.1000000000D+01
 D   1 1.00       0.000000000000
      0.8000000000D+00  0.1000000000D+01
 ****
     26 0
 S   3 1.00       0.000000000000
      0.1873113696D+02  0.3349460434D-01
      0.2825394365D+01  0.2347269535D+00
      0.6401216923D+00  0.8137573261D+00
 S   1 1.00       0.000000000000
      0.1612777588D+00  0.1000000000D+01
 ****
     27 0
 S   3 1.00       0.000000000000
      0.1873113696D+02  0.3349460434D-01
      0.2825394365D+01  0.2347269535D+00
      0.6401216923D+00  0.8137573261D+00
 S   1 1.00       0.000000000000
      0.1612777588D+00  0.1000000000D+01
 ****
     28 0
 S   6 1.00       0.000000000000
      0.3047524880D+04  0.1834737132D-02
      0.4573695180D+03  0.1403732281D-01
      0.1039486850D+03  0.6884262226D-01
      0.2921015530D+02  0.2321844432D+00
      0.9286662960D+01  0.4679413484D+00
      0.3163926960D+01  0.3623119853D+00
 SP   3 1.00       0.000000000000
      0.7868272350D+01 -0.1193324198D+00  0.6899906659D-01
      0.1881288540D+01 -0.1608541517D+00  0.3164239610D+00
      0.5442492580D+00  0.1143456438D+01  0.7443082909D+00
 SP   1 1.00       0.000000000000
      0.1687144782D+00  0.1000000000D+01  0.1000000000D+01
 D   1 1.00       0.000000000000
      0.8000000000D+00  0.1000000000D+01
 ****
     29 0
 S   3 1.00       0.000000000000
      0.1873113696D+02  0.3349460434D-01
      0.2825394365D+01  0.2347269535D+00
      0.6401216923D+00  0.8137573261D+00
 S   1 1.00       0.000000000000
      0.1612777588D+00  0.1000000000D+01
 ****
     30 0
 S   6 1.00       0.000000000000
      0.3047524880D+04  0.1834737132D-02
      0.4573695180D+03  0.1403732281D-01
      0.1039486850D+03  0.6884262226D-01
      0.2921015530D+02  0.2321844432D+00
      0.9286662960D+01  0.4679413484D+00
      0.3163926960D+01  0.3623119853D+00
 SP   3 1.00       0.000000000000
      0.7868272350D+01 -0.1193324198D+00  0.6899906659D-01
      0.1881288540D+01 -0.1608541517D+00  0.3164239610D+00
      0.5442492580D+00  0.1143456438D+01  0.7443082909D+00
 SP   1 1.00       0.000000000000
      0.1687144782D+00  0.1000000000D+01  0.1000000000D+01
 D   1 1.00       0.000000000000
      0.8000000000D+00  0.1000000000D+01
 ****
     31 0
 S   3 1.00       0.000000000000
      0.1873113696D+02  0.3349460434D-01
      0.2825394365D+01  0.2347269535D+00
      0.6401216923D+00  0.8137573261D+00
 S   1 1.00       0.000000000000
      0.1612777588D+00  0.1000000000D+01
 ****
     32 0
 S   3 1.00       0.000000000000
      0.1873113696D+02  0.3349460434D-01
      0.2825394365D+01  0.2347269535D+00
      0.6401216923D+00  0.8137573261D+00
 S   1 1.00       0.000000000000
      0.1612777588D+00  0.1000000000D+01
 ****
     33 0
 S   3 1.00       0.000000000000
      0.1873113696D+02  0.3349460434D-01
      0.2825394365D+01  0.2347269535D+00
      0.6401216923D+00  0.8137573261D+00
 S   1 1.00       0.000000000000
      0.1612777588D+00  0.1000000000D+01
 ****
     34 0
 S   6 1.00       0.000000000000
      0.3047524880D+04  0.1834737132D-02
      0.4573695180D+03  0.1403732281D-01
      0.1039486850D+03  0.6884262226D-01
      0.2921015530D+02  0.2321844432D+00
      0.9286662960D+01  0.4679413484D+00
      0.3163926960D+01  0.3623119853D+00
 SP   3 1.00       0.000000000000
      0.7868272350D+01 -0.1193324198D+00  0.6899906659D-01
      0.1881288540D+01 -0.1608541517D+00  0.3164239610D+00
      0.5442492580D+00  0.1143456438D+01  0.7443082909D+00
 SP   1 1.00       0.000000000000
      0.1687144782D+00  0.1000000000D+01  0.1000000000D+01
 D   1 1.00       0.000000000000
      0.8000000000D+00  0.1000000000D+01
 ****
     35 0
 S   6 1.00       0.000000000000
      0.3047524880D+04  0.1834737132D-02
      0.4573695180D+03  0.1403732281D-01
      0.1039486850D+03  0.6884262226D-01
      0.2921015530D+02  0.2321844432D+00
      0.9286662960D+01  0.4679413484D+00
      0.3163926960D+01  0.3623119853D+00
 SP   3 1.00       0.000000000000
      0.7868272350D+01 -0.1193324198D+00  0.6899906659D-01
      0.1881288540D+01 -0.1608541517D+00  0.3164239610D+00
      0.5442492580D+00  0.1143456438D+01  0.7443082909D+00
 SP   1 1.00       0.000000000000
      0.1687144782D+00  0.1000000000D+01  0.1000000000D+01
 D   1 1.00       0.000000000000
      0.8000000000D+00  0.1000000000D+01
 ****
     36 0
 S   3 1.00       0.000000000000
      0.1873113696D+02  0.3349460434D-01
      0.2825394365D+01  0.2347269535D+00
      0.6401216923D+00  0.8137573261D+00
 S   1 1.00       0.000000000000
      0.1612777588D+00  0.1000000000D+01
 ****
     37 0
 S   3 1.00       0.000000000000
      0.1873113696D+02  0.3349460434D-01
      0.2825394365D+01  0.2347269535D+00
      0.6401216923D+00  0.8137573261D+00
 S   1 1.00       0.000000000000
      0.1612777588D+00  0.1000000000D+01
 ****
     38 0
 S   6 1.00       0.000000000000
      0.3047524880D+04  0.1834737132D-02
      0.4573695180D+03  0.1403732281D-01
      0.1039486850D+03  0.6884262226D-01
      0.2921015530D+02  0.2321844432D+00
      0.9286662960D+01  0.4679413484D+00
      0.3163926960D+01  0.3623119853D+00
 SP   3 1.00       0.000000000000
      0.7868272350D+01 -0.1193324198D+00  0.6899906659D-01
      0.1881288540D+01 -0.1608541517D+00  0.3164239610D+00
      0.5442492580D+00  0.1143456438D+01  0.7443082909D+00
 SP   1 1.00       0.000000000000
      0.1687144782D+00  0.1000000000D+01  0.1000000000D+01
 D   1 1.00       0.000000000000
      0.8000000000D+00  0.1000000000D+01
 ****
     39 0
 S   3 1.00       0.000000000000
      0.1873113696D+02  0.3349460434D-01
      0.2825394365D+01  0.2347269535D+00
      0.6401216923D+00  0.8137573261D+00
 S   1 1.00       0.000000000000
      0.1612777588D+00  0.1000000000D+01
 ****
     40 0
 S   6 1.00       0.000000000000
      0.3047524880D+04  0.1834737132D-02
      0.4573695180D+03  0.1403732281D-01
      0.1039486850D+03  0.6884262226D-01
      0.2921015530D+02  0.2321844432D+00
      0.9286662960D+01  0.4679413484D+00
      0.3163926960D+01  0.3623119853D+00
 SP   3 1.00       0.000000000000
      0.7868272350D+01 -0.1193324198D+00  0.6899906659D-01
      0.1881288540D+01 -0.1608541517D+00  0.3164239610D+00
      0.5442492580D+00  0.1143456438D+01  0.7443082909D+00
 SP   1 1.00       0.000000000000
      0.1687144782D+00  0.1000000000D+01  0.1000000000D+01
 D   1 1.00       0.000000000000
      0.8000000000D+00  0.1000000000D+01
 ****
     41 0
 S   3 1.00       0.000000000000
      0.1873113696D+02  0.3349460434D-01
      0.2825394365D+01  0.2347269535D+00
      0.6401216923D+00  0.8137573261D+00
 S   1 1.00       0.000000000000
      0.1612777588D+00  0.1000000000D+01
 ****
     42 0
 S   3 1.00       0.000000000000
      0.1873113696D+02  0.3349460434D-01
      0.2825394365D+01  0.2347269535D+00
      0.6401216923D+00  0.8137573261D+00
 S   1 1.00       0.000000000000
      0.1612777588D+00  0.1000000000D+01
 ****
     43 0
 S   3 1.00       0.000000000000
      0.1873113696D+02  0.3349460434D-01
      0.2825394365D+01  0.2347269535D+00
      0.6401216923D+00  0.8137573261D+00
 S   1 1.00       0.000000000000
      0.1612777588D+00  0.1000000000D+01
 ****
     44 0
 S   6 1.00       0.000000000000
      0.3047524880D+04  0.1834737132D-02
      0.4573695180D+03  0.1403732281D-01
      0.1039486850D+03  0.6884262226D-01
      0.2921015530D+02  0.2321844432D+00
      0.9286662960D+01  0.4679413484D+00
      0.3163926960D+01  0.3623119853D+00
 SP   3 1.00       0.000000000000
      0.7868272350D+01 -0.1193324198D+00  0.6899906659D-01
      0.1881288540D+01 -0.1608541517D+00  0.3164239610D+00
      0.5442492580D+00  0.1143456438D+01  0.7443082909D+00
 SP   1 1.00       0.000000000000
      0.1687144782D+00  0.1000000000D+01  0.1000000000D+01
 D   1 1.00       0.000000000000
      0.8000000000D+00  0.1000000000D+01
 ****
     45 0
 S   3 1.00       0.000000000000
      0.1873113696D+02  0.3349460434D-01
      0.2825394365D+01  0.2347269535D+00
      0.6401216923D+00  0.8137573261D+00
 S   1 1.00       0.000000000000
      0.1612777588D+00  0.1000000000D+01
 ****
     46 0
 S   3 1.00       0.000000000000
      0.1873113696D+02  0.3349460434D-01
      0.2825394365D+01  0.2347269535D+00
      0.6401216923D+00  0.8137573261D+00
 S   1 1.00       0.000000000000
      0.1612777588D+00  0.1000000000D+01
 ****
     47 0
 S   6 1.00       0.000000000000
      0.3047524880D+04  0.1834737132D-02
      0.4573695180D+03  0.1403732281D-01
      0.1039486850D+03  0.6884262226D-01
      0.2921015530D+02  0.2321844432D+00
      0.9286662960D+01  0.4679413484D+00
      0.3163926960D+01  0.3623119853D+00
 SP   3 1.00       0.000000000000
      0.7868272350D+01 -0.1193324198D+00  0.6899906659D-01
      0.1881288540D+01 -0.1608541517D+00  0.3164239610D+00
      0.5442492580D+00  0.1143456438D+01  0.7443082909D+00
 SP   1 1.00       0.000000000000
      0.1687144782D+00  0.1000000000D+01  0.1000000000D+01
 D   1 1.00       0.000000000000
      0.8000000000D+00  0.1000000000D+01
 ****
     48 0
 S   3 1.00       0.000000000000
      0.1873113696D+02  0.3349460434D-01
      0.2825394365D+01  0.2347269535D+00
      0.6401216923D+00  0.8137573261D+00
 S   1 1.00       0.000000000000
      0.1612777588D+00  0.1000000000D+01
 ****
     49 0
 S   3 1.00       0.000000000000
      0.1873113696D+02  0.3349460434D-01
      0.2825394365D+01  0.2347269535D+00
      0.6401216923D+00  0.8137573261D+00
 S   1 1.00       0.000000000000
      0.1612777588D+00  0.1000000000D+01
 ****
     50 0
 S   6 1.00       0.000000000000
      0.3047524880D+04  0.1834737132D-02
      0.4573695180D+03  0.1403732281D-01
      0.1039486850D+03  0.6884262226D-01
      0.2921015530D+02  0.2321844432D+00
      0.9286662960D+01  0.4679413484D+00
      0.3163926960D+01  0.3623119853D+00
 SP   3 1.00       0.000000000000
      0.7868272350D+01 -0.1193324198D+00  0.6899906659D-01
      0.1881288540D+01 -0.1608541517D+00  0.3164239610D+00
      0.5442492580D+00  0.1143456438D+01  0.7443082909D+00
 SP   1 1.00       0.000000000000
      0.1687144782D+00  0.1000000000D+01  0.1000000000D+01
 D   1 1.00       0.000000000000
      0.8000000000D+00  0.1000000000D+01
 ****
     51 0
 S   3 1.00       0.000000000000
      0.1873113696D+02  0.3349460434D-01
      0.2825394365D+01  0.2347269535D+00
      0.6401216923D+00  0.8137573261D+00
 S   1 1.00       0.000000000000
      0.1612777588D+00  0.1000000000D+01
 ****
     52 0
 S   3 1.00       0.000000000000
      0.1873113696D+02  0.3349460434D-01
      0.2825394365D+01  0.2347269535D+00
      0.6401216923D+00  0.8137573261D+00
 S   1 1.00       0.000000000000
      0.1612777588D+00  0.1000000000D+01
 ****
     53 0
 S   6 1.00       0.000000000000
      0.3047524880D+04  0.1834737132D-02
      0.4573695180D+03  0.1403732281D-01
      0.1039486850D+03  0.6884262226D-01
      0.2921015530D+02  0.2321844432D+00
      0.9286662960D+01  0.4679413484D+00
      0.3163926960D+01  0.3623119853D+00
 SP   3 1.00       0.000000000000
      0.7868272350D+01 -0.1193324198D+00  0.6899906659D-01
      0.1881288540D+01 -0.1608541517D+00  0.3164239610D+00
      0.5442492580D+00  0.1143456438D+01  0.7443082909D+00
 SP   1 1.00       0.000000000000
      0.1687144782D+00  0.1000000000D+01  0.1000000000D+01
 D   1 1.00       0.000000000000
      0.8000000000D+00  0.1000000000D+01
 ****
     54 0
 S   3 1.00       0.000000000000
      0.1873113696D+02  0.3349460434D-01
      0.2825394365D+01  0.2347269535D+00
      0.6401216923D+00  0.8137573261D+00
 S   1 1.00       0.000000000000
      0.1612777588D+00  0.1000000000D+01
 ****
     55 0
 S   6 1.00       0.000000000000
      0.3047524880D+04  0.1834737132D-02
      0.4573695180D+03  0.1403732281D-01
      0.1039486850D+03  0.6884262226D-01
      0.2921015530D+02  0.2321844432D+00
      0.9286662960D+01  0.4679413484D+00
      0.3163926960D+01  0.3623119853D+00
 SP   3 1.00       0.000000000000
      0.7868272350D+01 -0.1193324198D+00  0.6899906659D-01
      0.1881288540D+01 -0.1608541517D+00  0.3164239610D+00
      0.5442492580D+00  0.1143456438D+01  0.7443082909D+00
 SP   1 1.00       0.000000000000
      0.1687144782D+00  0.1000000000D+01  0.1000000000D+01
 D   1 1.00       0.000000000000
      0.8000000000D+00  0.1000000000D+01
 ****
     56 0
 S   3 1.00       0.000000000000
      0.1873113696D+02  0.3349460434D-01
      0.2825394365D+01  0.2347269535D+00
      0.6401216923D+00  0.8137573261D+00
 S   1 1.00       0.000000000000
      0.1612777588D+00  0.1000000000D+01
 ****
     57 0
 S   3 1.00       0.000000000000
      0.1873113696D+02  0.3349460434D-01
      0.2825394365D+01  0.2347269535D+00
      0.6401216923D+00  0.8137573261D+00
 S   1 1.00       0.000000000000
      0.1612777588D+00  0.1000000000D+01
 ****
     58 0
 S   3 1.00       0.000000000000
      0.1873113696D+02  0.3349460434D-01
      0.2825394365D+01  0.2347269535D+00
      0.6401216923D+00  0.8137573261D+00
 S   1 1.00       0.000000000000
      0.1612777588D+00  0.1000000000D+01
 ****
     59 0
 S   6 1.00       0.000000000000
      0.3047524880D+04  0.1834737132D-02
      0.4573695180D+03  0.1403732281D-01
      0.1039486850D+03  0.6884262226D-01
      0.2921015530D+02  0.2321844432D+00
      0.9286662960D+01  0.4679413484D+00
      0.3163926960D+01  0.3623119853D+00
 SP   3 1.00       0.000000000000
      0.7868272350D+01 -0.1193324198D+00  0.6899906659D-01
      0.1881288540D+01 -0.1608541517D+00  0.3164239610D+00
      0.5442492580D+00  0.1143456438D+01  0.7443082909D+00
 SP   1 1.00       0.000000000000
      0.1687144782D+00  0.1000000000D+01  0.1000000000D+01
 D   1 1.00       0.000000000000
      0.8000000000D+00  0.1000000000D+01
 ****
     60 0
 S   3 1.00       0.000000000000
      0.1873113696D+02  0.3349460434D-01
      0.2825394365D+01  0.2347269535D+00
      0.6401216923D+00  0.8137573261D+00
 S   1 1.00       0.000000000000
      0.1612777588D+00  0.1000000000D+01
 ****
     61 0
 S   3 1.00       0.000000000000
      0.1873113696D+02  0.3349460434D-01
      0.2825394365D+01  0.2347269535D+00
      0.6401216923D+00  0.8137573261D+00
 S   1 1.00       0.000000000000
      0.1612777588D+00  0.1000000000D+01
 ****
     62 0
 S   6 1.00       0.000000000000
      0.3047524880D+04  0.1834737132D-02
      0.4573695180D+03  0.1403732281D-01
      0.1039486850D+03  0.6884262226D-01
      0.2921015530D+02  0.2321844432D+00
      0.9286662960D+01  0.4679413484D+00
      0.3163926960D+01  0.3623119853D+00
 SP   3 1.00       0.000000000000
      0.7868272350D+01 -0.1193324198D+00  0.6899906659D-01
      0.1881288540D+01 -0.1608541517D+00  0.3164239610D+00
      0.5442492580D+00  0.1143456438D+01  0.7443082909D+00
 SP   1 1.00       0.000000000000
      0.1687144782D+00  0.1000000000D+01  0.1000000000D+01
 D   1 1.00       0.000000000000
      0.8000000000D+00  0.1000000000D+01
 ****
     63 0
 S   3 1.00       0.000000000000
      0.1873113696D+02  0.3349460434D-01
      0.2825394365D+01  0.2347269535D+00
      0.6401216923D+00  0.8137573261D+00
 S   1 1.00       0.000000000000
      0.1612777588D+00  0.1000000000D+01
 ****
     64 0
 S   3 1.00       0.000000000000
      0.1873113696D+02  0.3349460434D-01
      0.2825394365D+01  0.2347269535D+00
      0.6401216923D+00  0.8137573261D+00
 S   1 1.00       0.000000000000
      0.1612777588D+00  0.1000000000D+01
 ****
     65 0
 S   6 1.00       0.000000000000
      0.3047524880D+04  0.1834737132D-02
      0.4573695180D+03  0.1403732281D-01
      0.1039486850D+03  0.6884262226D-01
      0.2921015530D+02  0.2321844432D+00
      0.9286662960D+01  0.4679413484D+00
      0.3163926960D+01  0.3623119853D+00
 SP   3 1.00       0.000000000000
      0.7868272350D+01 -0.1193324198D+00  0.6899906659D-01
      0.1881288540D+01 -0.1608541517D+00  0.3164239610D+00
      0.5442492580D+00  0.1143456438D+01  0.7443082909D+00
 SP   1 1.00       0.000000000000
      0.1687144782D+00  0.1000000000D+01  0.1000000000D+01
 D   1 1.00       0.000000000000
      0.8000000000D+00  0.1000000000D+01
 ****
     66 0
 S   3 1.00       0.000000000000
      0.1873113696D+02  0.3349460434D-01
      0.2825394365D+01  0.2347269535D+00
      0.6401216923D+00  0.8137573261D+00
 S   1 1.00       0.000000000000
      0.1612777588D+00  0.1000000000D+01
 ****
     67 0
 S   6 1.00       0.000000000000
      0.3047524880D+04  0.1834737132D-02
      0.4573695180D+03  0.1403732281D-01
      0.1039486850D+03  0.6884262226D-01
      0.2921015530D+02  0.2321844432D+00
      0.9286662960D+01  0.4679413484D+00
      0.3163926960D+01  0.3623119853D+00
 SP   3 1.00       0.000000000000
      0.7868272350D+01 -0.1193324198D+00  0.6899906659D-01
      0.1881288540D+01 -0.1608541517D+00  0.3164239610D+00
      0.5442492580D+00  0.1143456438D+01  0.7443082909D+00
 SP   1 1.00       0.000000000000
      0.1687144782D+00  0.1000000000D+01  0.1000000000D+01
 D   1 1.00       0.000000000000
      0.8000000000D+00  0.1000000000D+01
 ****
     68 0
 S   3 1.00       0.000000000000
      0.1873113696D+02  0.3349460434D-01
      0.2825394365D+01  0.2347269535D+00
      0.6401216923D+00  0.8137573261D+00
 S   1 1.00       0.000000000000
      0.1612777588D+00  0.1000000000D+01
 ****
     69 0
 S   3 1.00       0.000000000000
      0.1873113696D+02  0.3349460434D-01
      0.2825394365D+01  0.2347269535D+00
      0.6401216923D+00  0.8137573261D+00
 S   1 1.00       0.000000000000
      0.1612777588D+00  0.1000000000D+01
 ****
     70 0
 S   3 1.00       0.000000000000
      0.1873113696D+02  0.3349460434D-01
      0.2825394365D+01  0.2347269535D+00
      0.6401216923D+00  0.8137573261D+00
 S   1 1.00       0.000000000000
      0.1612777588D+00  0.1000000000D+01
 ****
     71 0
 S   6 1.00       0.000000000000
      0.3047524880D+04  0.1834737132D-02
      0.4573695180D+03  0.1403732281D-01
      0.1039486850D+03  0.6884262226D-01
      0.2921015530D+02  0.2321844432D+00
      0.9286662960D+01  0.4679413484D+00
      0.3163926960D+01  0.3623119853D+00
 SP   3 1.00       0.000000000000
      0.7868272350D+01 -0.1193324198D+00  0.6899906659D-01
      0.1881288540D+01 -0.1608541517D+00  0.3164239610D+00
      0.5442492580D+00  0.1143456438D+01  0.7443082909D+00
 SP   1 1.00       0.000000000000
      0.1687144782D+00  0.1000000000D+01  0.1000000000D+01
 D   1 1.00       0.000000000000
      0.8000000000D+00  0.1000000000D+01
 ****
     72 0
 S   3 1.00       0.000000000000
      0.1873113696D+02  0.3349460434D-01
      0.2825394365D+01  0.2347269535D+00
      0.6401216923D+00  0.8137573261D+00
 S   1 1.00       0.000000000000
      0.1612777588D+00  0.1000000000D+01
 ****
     73 0
 S   3 1.00       0.000000000000
      0.1873113696D+02  0.3349460434D-01
      0.2825394365D+01  0.2347269535D+00
      0.6401216923D+00  0.8137573261D+00
 S   1 1.00       0.000000000000
      0.1612777588D+00  0.1000000000D+01
 ****
     74 0
 S   3 1.00       0.000000000000
      0.1873113696D+02  0.3349460434D-01
      0.2825394365D+01  0.2347269535D+00
      0.6401216923D+00  0.8137573261D+00
 S   1 1.00       0.000000000000
      0.1612777588D+00  0.1000000000D+01
 ****

 AO basis set (Overlap normalization):
 Atom O1       Shell     1 S   6     bf    1 -     1          0.835644076921         -6.404886312150         13.707432996458
      0.5484671660D+04  0.1831074430D-02
      0.8252349460D+03  0.1395017220D-01
      0.1880469580D+03  0.6844507810D-01
      0.5296450000D+02  0.2327143360D+00
      0.1689757040D+02  0.4701928980D+00
      0.5799635340D+01  0.3585208530D+00
 Atom O1       Shell     2 SP   3    bf    2 -     5          0.835644076921         -6.404886312150         13.707432996458
      0.1553961625D+02 -0.1107775495D+00  0.7087426823D-01
      0.3599933586D+01 -0.1480262627D+00  0.3397528391D+00
      0.1013761750D+01  0.1130767015D+01  0.7271585773D+00
 Atom O1       Shell     3 SP   1    bf    6 -     9          0.835644076921         -6.404886312150         13.707432996458
      0.2700058226D+00  0.1000000000D+01  0.1000000000D+01
 Atom O1       Shell     4 D   1     bf   10 -    15          0.835644076921         -6.404886312150         13.707432996458
      0.8000000000D+00  0.1000000000D+01
 Atom H2       Shell     5 S   3     bf   16 -    16          0.520943259697         -8.182312616103         13.430150797568
      0.1873113696D+02  0.3349460434D-01
      0.2825394365D+01  0.2347269535D+00
      0.6401216923D+00  0.8137573261D+00
 Atom H2       Shell     6 S   1     bf   17 -    17          0.520943259697         -8.182312616103         13.430150797568
      0.1612777588D+00  0.1000000000D+01
 Atom C3       Shell     7 S   6     bf   18 -    18          2.850547596370          2.836422063602          0.000000000000
      0.3047524880D+04  0.1834737132D-02
      0.4573695180D+03  0.1403732281D-01
      0.1039486850D+03  0.6884262226D-01
      0.2921015530D+02  0.2321844432D+00
      0.9286662960D+01  0.4679413484D+00
      0.3163926960D+01  0.3623119853D+00
 Atom C3       Shell     8 SP   3    bf   19 -    22          2.850547596370          2.836422063602          0.000000000000
      0.7868272350D+01 -0.1193324198D+00  0.6899906659D-01
      0.1881288540D+01 -0.1608541517D+00  0.3164239610D+00
      0.5442492580D+00  0.1143456438D+01  0.7443082909D+00
 Atom C3       Shell     9 SP   1    bf   23 -    26          2.850547596370          2.836422063602          0.000000000000
      0.1687144782D+00  0.1000000000D+01  0.1000000000D+01
 Atom C3       Shell    10 D   1     bf   27 -    32          2.850547596370          2.836422063602          0.000000000000
      0.8000000000D+00  0.1000000000D+01
 Atom C4       Shell    11 S   6     bf   33 -    33          2.086106283643          0.000000000000          0.000000000000
      0.3047524880D+04  0.1834737132D-02
      0.4573695180D+03  0.1403732281D-01
      0.1039486850D+03  0.6884262226D-01
      0.2921015530D+02  0.2321844432D+00
      0.9286662960D+01  0.4679413484D+00
      0.3163926960D+01  0.3623119853D+00
 Atom C4       Shell    12 SP   3    bf   34 -    37          2.086106283643          0.000000000000          0.000000000000
      0.7868272350D+01 -0.1193324198D+00  0.6899906659D-01
      0.1881288540D+01 -0.1608541517D+00  0.3164239610D+00
      0.5442492580D+00  0.1143456438D+01  0.7443082909D+00
 Atom C4       Shell    13 SP   1    bf   38 -    41          2.086106283643          0.000000000000          0.000000000000
      0.1687144782D+00  0.1000000000D+01  0.1000000000D+01
 Atom C4       Shell    14 D   1     bf   42 -    47          2.086106283643          0.000000000000          0.000000000000
      0.8000000000D+00  0.1000000000D+01
 Atom H5       Shell    15 S   3     bf   48 -    48          0.000000000000          0.000000000000          0.000000000000
      0.1873113696D+02  0.3349460434D-01
      0.2825394365D+01  0.2347269535D+00
      0.6401216923D+00  0.8137573261D+00
 Atom H5       Shell    16 S   1     bf   49 -    49          0.000000000000          0.000000000000          0.000000000000
      0.1612777588D+00  0.1000000000D+01
 Atom C6       Shell    17 S   6     bf   50 -    50          2.867610557233         -1.501936037869          2.354151973626
      0.3047524880D+04  0.1834737132D-02
      0.4573695180D+03  0.1403732281D-01
      0.1039486850D+03  0.6884262226D-01
      0.2921015530D+02  0.2321844432D+00
      0.9286662960D+01  0.4679413484D+00
      0.3163926960D+01  0.3623119853D+00
 Atom C6       Shell    18 SP   3    bf   51 -    54          2.867610557233         -1.501936037869          2.354151973626
      0.7868272350D+01 -0.1193324198D+00  0.6899906659D-01
      0.1881288540D+01 -0.1608541517D+00  0.3164239610D+00
      0.5442492580D+00  0.1143456438D+01  0.7443082909D+00
 Atom C6       Shell    19 SP   1    bf   55 -    58          2.867610557233         -1.501936037869          2.354151973626
      0.1687144782D+00  0.1000000000D+01  0.1000000000D+01
 Atom C6       Shell    20 D   1     bf   59 -    64          2.867610557233         -1.501936037869          2.354151973626
      0.8000000000D+00  0.1000000000D+01
 Atom H7       Shell    21 S   3     bf   65 -    65          4.940628975625         -1.543500904312          2.481428524669
      0.1873113696D+02  0.3349460434D-01
      0.2825394365D+01  0.2347269535D+00
      0.6401216923D+00  0.8137573261D+00
 Atom H7       Shell    22 S   1     bf   66 -    66          4.940628975625         -1.543500904312          2.481428524669
      0.1612777588D+00  0.1000000000D+01
 Atom C8       Shell    23 S   6     bf   67 -    67          1.783347345050         -0.222508808181          4.758015687616
      0.3047524880D+04  0.1834737132D-02
      0.4573695180D+03  0.1403732281D-01
      0.1039486850D+03  0.6884262226D-01
      0.2921015530D+02  0.2321844432D+00
      0.9286662960D+01  0.4679413484D+00
      0.3163926960D+01  0.3623119853D+00
 Atom C8       Shell    24 SP   3    bf   68 -    71          1.783347345050         -0.222508808181          4.758015687616
      0.7868272350D+01 -0.1193324198D+00  0.6899906659D-01
      0.1881288540D+01 -0.1608541517D+00  0.3164239610D+00
      0.5442492580D+00  0.1143456438D+01  0.7443082909D+00
 Atom C8       Shell    25 SP   1    bf   72 -    75          1.783347345050         -0.222508808181          4.758015687616
      0.1687144782D+00  0.1000000000D+01  0.1000000000D+01
 Atom C8       Shell    26 D   1     bf   76 -    81          1.783347345050         -0.222508808181          4.758015687616
      0.8000000000D+00  0.1000000000D+01
 Atom H9       Shell    27 S   3     bf   82 -    82         -0.283509129956         -0.452862965581          4.626641907960
      0.1873113696D+02  0.3349460434D-01
      0.2825394365D+01  0.2347269535D+00
      0.6401216923D+00  0.8137573261D+00
 Atom H9       Shell    28 S   1     bf   83 -    83         -0.283509129956         -0.452862965581          4.626641907960
      0.1612777588D+00  0.1000000000D+01
 Atom C10      Shell    29 S   6     bf   84 -    84          1.794290635702          3.656618555353         -2.645072722859
      0.3047524880D+04  0.1834737132D-02
      0.4573695180D+03  0.1403732281D-01
      0.1039486850D+03  0.6884262226D-01
      0.2921015530D+02  0.2321844432D+00
      0.9286662960D+01  0.4679413484D+00
      0.3163926960D+01  0.3623119853D+00
 Atom C10      Shell    30 SP   3    bf   85 -    88          1.794290635702          3.656618555353         -2.645072722859
      0.7868272350D+01 -0.1193324198D+00  0.6899906659D-01
      0.1881288540D+01 -0.1608541517D+00  0.3164239610D+00
      0.5442492580D+00  0.1143456438D+01  0.7443082909D+00
 Atom C10      Shell    31 SP   1    bf   89 -    92          1.794290635702          3.656618555353         -2.645072722859
      0.1687144782D+00  0.1000000000D+01  0.1000000000D+01
 Atom C10      Shell    32 D   1     bf   93 -    98          1.794290635702          3.656618555353         -2.645072722859
      0.8000000000D+00  0.1000000000D+01
 Atom H11      Shell    33 S   3     bf   99 -    99         -0.273915368325          3.767765160016         -2.431617290224
      0.1873113696D+02  0.3349460434D-01
      0.2825394365D+01  0.2347269535D+00
      0.6401216923D+00  0.8137573261D+00
 Atom H11      Shell    34 S   1     bf  100 -   100         -0.273915368325          3.767765160016         -2.431617290224
      0.1612777588D+00  0.1000000000D+01
 Atom C12      Shell    35 S   6     bf  101 -   101          1.580022715317          4.032401878542          2.335779602628
      0.3047524880D+04  0.1834737132D-02
      0.4573695180D+03  0.1403732281D-01
      0.1039486850D+03  0.6884262226D-01
      0.2921015530D+02  0.2321844432D+00
      0.9286662960D+01  0.4679413484D+00
      0.3163926960D+01  0.3623119853D+00
 Atom C12      Shell    36 SP   3    bf  102 -   105          1.580022715317          4.032401878542          2.335779602628
      0.7868272350D+01 -0.1193324198D+00  0.6899906659D-01
      0.1881288540D+01 -0.1608541517D+00  0.3164239610D+00
      0.5442492580D+00  0.1143456438D+01  0.7443082909D+00
 Atom C12      Shell    37 SP   1    bf  106 -   109          1.580022715317          4.032401878542          2.335779602628
      0.1687144782D+00  0.1000000000D+01  0.1000000000D+01
 Atom C12      Shell    38 D   1     bf  110 -   115          1.580022715317          4.032401878542          2.335779602628
      0.8000000000D+00  0.1000000000D+01
 Atom H13      Shell    39 S   3     bf  116 -   116         -0.481170836285          3.952176768105          2.082817309795
      0.1873113696D+02  0.3349460434D-01
      0.2825394365D+01  0.2347269535D+00
      0.6401216923D+00  0.8137573261D+00
 Atom H13      Shell    40 S   1     bf  117 -   117         -0.481170836285          3.952176768105          2.082817309795
      0.1612777588D+00  0.1000000000D+01
 Atom H14      Shell    41 S   3     bf  118 -   118          2.069024841257          6.032415036365          2.535295829491
      0.1873113696D+02  0.3349460434D-01
      0.2825394365D+01  0.2347269535D+00
      0.6401216923D+00  0.8137573261D+00
 Atom H14      Shell    42 S   1     bf  119 -   119          2.069024841257          6.032415036365          2.535295829491
      0.1612777588D+00  0.1000000000D+01
 Atom C15      Shell    43 S   6     bf  120 -   120          2.588011421824         -1.607696356135          7.253690970984
      0.3047524880D+04  0.1834737132D-02
      0.4573695180D+03  0.1403732281D-01
      0.1039486850D+03  0.6884262226D-01
      0.2921015530D+02  0.2321844432D+00
      0.9286662960D+01  0.4679413484D+00
      0.3163926960D+01  0.3623119853D+00
 Atom C15      Shell    44 SP   3    bf  121 -   124          2.588011421824         -1.607696356135          7.253690970984
      0.7868272350D+01 -0.1193324198D+00  0.6899906659D-01
      0.1881288540D+01 -0.1608541517D+00  0.3164239610D+00
      0.5442492580D+00  0.1143456438D+01  0.7443082909D+00
 Atom C15      Shell    45 SP   1    bf  125 -   128          2.588011421824         -1.607696356135          7.253690970984
      0.1687144782D+00  0.1000000000D+01  0.1000000000D+01
 Atom C15      Shell    46 D   1     bf  129 -   134          2.588011421824         -1.607696356135          7.253690970984
      0.8000000000D+00  0.1000000000D+01
 Atom C16      Shell    47 S   6     bf  135 -   135          2.902913513779         -0.961371354892         -2.613688831545
      0.3047524880D+04  0.1834737132D-02
      0.4573695180D+03  0.1403732281D-01
      0.1039486850D+03  0.6884262226D-01
      0.2921015530D+02  0.2321844432D+00
      0.9286662960D+01  0.4679413484D+00
      0.3163926960D+01  0.3623119853D+00
 Atom C16      Shell    48 SP   3    bf  136 -   139          2.902913513779         -0.961371354892         -2.613688831545
      0.7868272350D+01 -0.1193324198D+00  0.6899906659D-01
      0.1881288540D+01 -0.1608541517D+00  0.3164239610D+00
      0.5442492580D+00  0.1143456438D+01  0.7443082909D+00
 Atom C16      Shell    49 SP   1    bf  140 -   143          2.902913513779         -0.961371354892         -2.613688831545
      0.1687144782D+00  0.1000000000D+01  0.1000000000D+01
 Atom C16      Shell    50 D   1     bf  144 -   149          2.902913513779         -0.961371354892         -2.613688831545
      0.8000000000D+00  0.1000000000D+01
 Atom H17      Shell    51 S   3     bf  150 -   150          1.851668635939         -2.642079661226         -3.204084591091
      0.1873113696D+02  0.3349460434D-01
      0.2825394365D+01  0.2347269535D+00
      0.6401216923D+00  0.8137573261D+00
 Atom H17      Shell    52 S   1     bf  151 -   151          1.851668635939         -2.642079661226         -3.204084591091
      0.1612777588D+00  0.1000000000D+01
 Atom H18      Shell    53 S   3     bf  152 -   152          4.909009926791         -1.484352098408         -2.606705310827
      0.1873113696D+02  0.3349460434D-01
      0.2825394365D+01  0.2347269535D+00
      0.6401216923D+00  0.8137573261D+00
 Atom H18      Shell    54 S   1     bf  153 -   153          4.909009926791         -1.484352098408         -2.606705310827
      0.1612777588D+00  0.1000000000D+01
 Atom C19      Shell    55 S   6     bf  154 -   154          2.310187495144          2.651332232804          4.797199877077
      0.3047524880D+04  0.1834737132D-02
      0.4573695180D+03  0.1403732281D-01
      0.1039486850D+03  0.6884262226D-01
      0.2921015530D+02  0.2321844432D+00
      0.9286662960D+01  0.4679413484D+00
      0.3163926960D+01  0.3623119853D+00
 Atom C19      Shell    56 SP   3    bf  155 -   158          2.310187495144          2.651332232804          4.797199877077
      0.7868272350D+01 -0.1193324198D+00  0.6899906659D-01
      0.1881288540D+01 -0.1608541517D+00  0.3164239610D+00
      0.5442492580D+00  0.1143456438D+01  0.7443082909D+00
 Atom C19      Shell    57 SP   1    bf  159 -   162          2.310187495144          2.651332232804          4.797199877077
      0.1687144782D+00  0.1000000000D+01  0.1000000000D+01
 Atom C19      Shell    58 D   1     bf  163 -   168          2.310187495144          2.651332232804          4.797199877077
      0.8000000000D+00  0.1000000000D+01
 Atom H20      Shell    59 S   3     bf  169 -   169          4.316473447687          2.993117323061          5.173199422731
      0.1873113696D+02  0.3349460434D-01
      0.2825394365D+01  0.2347269535D+00
      0.6401216923D+00  0.8137573261D+00
 Atom H20      Shell    60 S   1     bf  170 -   170          4.316473447687          2.993117323061          5.173199422731
      0.1612777588D+00  0.1000000000D+01
 Atom H21      Shell    61 S   3     bf  171 -   171          1.282117198146          3.526891369666          6.367300736511
      0.1873113696D+02  0.3349460434D-01
      0.2825394365D+01  0.2347269535D+00
      0.6401216923D+00  0.8137573261D+00
 Atom H21      Shell    62 S   1     bf  172 -   172          1.282117198146          3.526891369666          6.367300736511
      0.1612777588D+00  0.1000000000D+01
 Atom C22      Shell    63 S   6     bf  173 -   173          2.410874144409          1.332461675511         -4.378467481949
      0.3047524880D+04  0.1834737132D-02
      0.4573695180D+03  0.1403732281D-01
      0.1039486850D+03  0.6884262226D-01
      0.2921015530D+02  0.2321844432D+00
      0.9286662960D+01  0.4679413484D+00
      0.3163926960D+01  0.3623119853D+00
 Atom C22      Shell    64 SP   3    bf  174 -   177          2.410874144409          1.332461675511         -4.378467481949
      0.7868272350D+01 -0.1193324198D+00  0.6899906659D-01
      0.1881288540D+01 -0.1608541517D+00  0.3164239610D+00
      0.5442492580D+00  0.1143456438D+01  0.7443082909D+00
 Atom C22      Shell    65 SP   1    bf  178 -   181          2.410874144409          1.332461675511         -4.378467481949
      0.1687144782D+00  0.1000000000D+01  0.1000000000D+01
 Atom C22      Shell    66 D   1     bf  182 -   187          2.410874144409          1.332461675511         -4.378467481949
      0.8000000000D+00  0.1000000000D+01
 Atom H23      Shell    67 S   3     bf  188 -   188          4.066695418977          1.730400317958         -5.558705273490
      0.1873113696D+02  0.3349460434D-01
      0.2825394365D+01  0.2347269535D+00
      0.6401216923D+00  0.8137573261D+00
 Atom H23      Shell    68 S   1     bf  189 -   189          4.066695418977          1.730400317958         -5.558705273490
      0.1612777588D+00  0.1000000000D+01
 Atom H24      Shell    69 S   3     bf  190 -   190          0.851780410576          0.942674820273         -5.678970298073
      0.1873113696D+02  0.3349460434D-01
      0.2825394365D+01  0.2347269535D+00
      0.6401216923D+00  0.8137573261D+00
 Atom H24      Shell    70 S   1     bf  191 -   191          0.851780410576          0.942674820273         -5.678970298073
      0.1612777588D+00  0.1000000000D+01
 Atom C25      Shell    71 S   6     bf  192 -   192          1.933129381603         -4.247829486061          2.190682461720
      0.3047524880D+04  0.1834737132D-02
      0.4573695180D+03  0.1403732281D-01
      0.1039486850D+03  0.6884262226D-01
      0.2921015530D+02  0.2321844432D+00
      0.9286662960D+01  0.4679413484D+00
      0.3163926960D+01  0.3623119853D+00
 Atom C25      Shell    72 SP   3    bf  193 -   196          1.933129381603         -4.247829486061          2.190682461720
      0.7868272350D+01 -0.1193324198D+00  0.6899906659D-01
      0.1881288540D+01 -0.1608541517D+00  0.3164239610D+00
      0.5442492580D+00  0.1143456438D+01  0.7443082909D+00
 Atom C25      Shell    73 SP   1    bf  197 -   200          1.933129381603         -4.247829486061          2.190682461720
      0.1687144782D+00  0.1000000000D+01  0.1000000000D+01
 Atom C25      Shell    74 D   1     bf  201 -   206          1.933129381603         -4.247829486061          2.190682461720
      0.8000000000D+00  0.1000000000D+01
 Atom H26      Shell    75 S   3     bf  207 -   207          3.069729995228         -5.306972984500          0.814850626596
      0.1873113696D+02  0.3349460434D-01
      0.2825394365D+01  0.2347269535D+00
      0.6401216923D+00  0.8137573261D+00
 Atom H26      Shell    76 S   1     bf  208 -   208          3.069729995228         -5.306972984500          0.814850626596
      0.1612777588D+00  0.1000000000D+01
 Atom H27      Shell    77 S   3     bf  209 -   209         -0.009476806481         -4.276196977624          1.436556804904
      0.1873113696D+02  0.3349460434D-01
      0.2825394365D+01  0.2347269535D+00
      0.6401216923D+00  0.8137573261D+00
 Atom H27      Shell    78 S   1     bf  210 -   210         -0.009476806481         -4.276196977624          1.436556804904
      0.1612777588D+00  0.1000000000D+01
 Atom C28      Shell    79 S   6     bf  211 -   211          2.663273355546          6.190953912640         -3.829944028391
      0.3047524880D+04  0.1834737132D-02
      0.4573695180D+03  0.1403732281D-01
      0.1039486850D+03  0.6884262226D-01
      0.2921015530D+02  0.2321844432D+00
      0.9286662960D+01  0.4679413484D+00
      0.3163926960D+01  0.3623119853D+00
 Atom C28      Shell    80 SP   3    bf  212 -   215          2.663273355546          6.190953912640         -3.829944028391
      0.7868272350D+01 -0.1193324198D+00  0.6899906659D-01
      0.1881288540D+01 -0.1608541517D+00  0.3164239610D+00
      0.5442492580D+00  0.1143456438D+01  0.7443082909D+00
 Atom C28      Shell    81 SP   1    bf  216 -   219          2.663273355546          6.190953912640         -3.829944028391
      0.1687144782D+00  0.1000000000D+01  0.1000000000D+01
 Atom C28      Shell    82 D   1     bf  220 -   225          2.663273355546          6.190953912640         -3.829944028391
      0.8000000000D+00  0.1000000000D+01
 Atom H29      Shell    83 S   3     bf  226 -   226          4.708020356051          6.040714392287         -4.173150476159
      0.1873113696D+02  0.3349460434D-01
      0.2825394365D+01  0.2347269535D+00
      0.6401216923D+00  0.8137573261D+00
 Atom H29      Shell    84 S   1     bf  227 -   227          4.708020356051          6.040714392287         -4.173150476159
      0.1612777588D+00  0.1000000000D+01
 Atom C30      Shell    85 S   6     bf  228 -   228          5.747477160069          3.208678231862          0.094288244448
      0.3047524880D+04  0.1834737132D-02
      0.4573695180D+03  0.1403732281D-01
      0.1039486850D+03  0.6884262226D-01
      0.2921015530D+02  0.2321844432D+00
      0.9286662960D+01  0.4679413484D+00
      0.3163926960D+01  0.3623119853D+00
 Atom C30      Shell    86 SP   3    bf  229 -   232          5.747477160069          3.208678231862          0.094288244448
      0.7868272350D+01 -0.1193324198D+00  0.6899906659D-01
      0.1881288540D+01 -0.1608541517D+00  0.3164239610D+00
      0.5442492580D+00  0.1143456438D+01  0.7443082909D+00
 Atom C30      Shell    87 SP   1    bf  233 -   236          5.747477160069          3.208678231862          0.094288244448
      0.1687144782D+00  0.1000000000D+01  0.1000000000D+01
 Atom C30      Shell    88 D   1     bf  237 -   242          5.747477160069          3.208678231862          0.094288244448
      0.8000000000D+00  0.1000000000D+01
 Atom H31      Shell    89 S   3     bf  243 -   243          6.223491311682          5.219113115924          0.205849020388
      0.1873113696D+02  0.3349460434D-01
      0.2825394365D+01  0.2347269535D+00
      0.6401216923D+00  0.8137573261D+00
 Atom H31      Shell    90 S   1     bf  244 -   244          6.223491311682          5.219113115924          0.205849020388
      0.1612777588D+00  0.1000000000D+01
 Atom H32      Shell    91 S   3     bf  245 -   245          6.603319102330          2.289054687800          1.733113926890
      0.1873113696D+02  0.3349460434D-01
      0.2825394365D+01  0.2347269535D+00
      0.6401216923D+00  0.8137573261D+00
 Atom H32      Shell    92 S   1     bf  246 -   246          6.603319102330          2.289054687800          1.733113926890
      0.1612777588D+00  0.1000000000D+01
 Atom H33      Shell    93 S   3     bf  247 -   247          6.681635721654          2.449571408137         -1.587085169896
      0.1873113696D+02  0.3349460434D-01
      0.2825394365D+01  0.2347269535D+00
      0.6401216923D+00  0.8137573261D+00
 Atom H33      Shell    94 S   1     bf  248 -   248          6.681635721654          2.449571408137         -1.587085169896
      0.1612777588D+00  0.1000000000D+01
 Atom C34      Shell    95 S   6     bf  249 -   249          2.301035381407         -4.477793244939          6.942433669411
      0.3047524880D+04  0.1834737132D-02
      0.4573695180D+03  0.1403732281D-01
      0.1039486850D+03  0.6884262226D-01
      0.2921015530D+02  0.2321844432D+00
      0.9286662960D+01  0.4679413484D+00
      0.3163926960D+01  0.3623119853D+00
 Atom C34      Shell    96 SP   3    bf  250 -   253          2.301035381407         -4.477793244939          6.942433669411
      0.7868272350D+01 -0.1193324198D+00  0.6899906659D-01
      0.1881288540D+01 -0.1608541517D+00  0.3164239610D+00
      0.5442492580D+00  0.1143456438D+01  0.7443082909D+00
 Atom C34      Shell    97 SP   1    bf  254 -   257          2.301035381407         -4.477793244939          6.942433669411
      0.1687144782D+00  0.1000000000D+01  0.1000000000D+01
 Atom C34      Shell    98 D   1     bf  258 -   263          2.301035381407         -4.477793244939          6.942433669411
      0.8000000000D+00  0.1000000000D+01
 Atom C35      Shell    99 S   6     bf  264 -   264          0.798768943822         -0.737698267543          9.430715191414
      0.3047524880D+04  0.1834737132D-02
      0.4573695180D+03  0.1403732281D-01
      0.1039486850D+03  0.6884262226D-01
      0.2921015530D+02  0.2321844432D+00
      0.9286662960D+01  0.4679413484D+00
      0.3163926960D+01  0.3623119853D+00
 Atom C35      Shell   100 SP   3    bf  265 -   268          0.798768943822         -0.737698267543          9.430715191414
      0.7868272350D+01 -0.1193324198D+00  0.6899906659D-01
      0.1881288540D+01 -0.1608541517D+00  0.3164239610D+00
      0.5442492580D+00  0.1143456438D+01  0.7443082909D+00
 Atom C35      Shell   101 SP   1    bf  269 -   272          0.798768943822         -0.737698267543          9.430715191414
      0.1687144782D+00  0.1000000000D+01  0.1000000000D+01
 Atom C35      Shell   102 D   1     bf  273 -   278          0.798768943822         -0.737698267543          9.430715191414
      0.8000000000D+00  0.1000000000D+01
 Atom H36      Shell   103 S   3     bf  279 -   279         -1.157415380061         -0.842600801323          8.741424280772
      0.1873113696D+02  0.3349460434D-01
      0.2825394365D+01  0.2347269535D+00
      0.6401216923D+00  0.8137573261D+00
 Atom H36      Shell   104 S   1     bf  280 -   280         -1.157415380061         -0.842600801323          8.741424280772
      0.1612777588D+00  0.1000000000D+01
 Atom H37      Shell   105 S   3     bf  281 -   281          1.161363717152          1.253239386041          9.866498434261
      0.1873113696D+02  0.3349460434D-01
      0.2825394365D+01  0.2347269535D+00
      0.6401216923D+00  0.8137573261D+00
 Atom H37      Shell   106 S   1     bf  282 -   282          1.161363717152          1.253239386041          9.866498434261
      0.1612777588D+00  0.1000000000D+01
 Atom C38      Shell   107 S   6     bf  283 -   283          1.981643545825         -5.594241667905          4.689656469923
      0.3047524880D+04  0.1834737132D-02
      0.4573695180D+03  0.1403732281D-01
      0.1039486850D+03  0.6884262226D-01
      0.2921015530D+02  0.2321844432D+00
      0.9286662960D+01  0.4679413484D+00
      0.3163926960D+01  0.3623119853D+00
 Atom C38      Shell   108 SP   3    bf  284 -   287          1.981643545825         -5.594241667905          4.689656469923
      0.7868272350D+01 -0.1193324198D+00  0.6899906659D-01
      0.1881288540D+01 -0.1608541517D+00  0.3164239610D+00
      0.5442492580D+00  0.1143456438D+01  0.7443082909D+00
 Atom C38      Shell   109 SP   1    bf  288 -   291          1.981643545825         -5.594241667905          4.689656469923
      0.1687144782D+00  0.1000000000D+01  0.1000000000D+01
 Atom C38      Shell   110 D   1     bf  292 -   297          1.981643545825         -5.594241667905          4.689656469923
      0.8000000000D+00  0.1000000000D+01
 Atom H39      Shell   111 S   3     bf  298 -   298          1.742303683971         -7.640431474313          4.630476237873
      0.1873113696D+02  0.3349460434D-01
      0.2825394365D+01  0.2347269535D+00
      0.6401216923D+00  0.8137573261D+00
 Atom H39      Shell   112 S   1     bf  299 -   299          1.742303683971         -7.640431474313          4.630476237873
      0.1612777588D+00  0.1000000000D+01
 Atom C40      Shell   113 S   6     bf  300 -   300          5.368051087402         -1.010577971460          7.974301749019
      0.3047524880D+04  0.1834737132D-02
      0.4573695180D+03  0.1403732281D-01
      0.1039486850D+03  0.6884262226D-01
      0.2921015530D+02  0.2321844432D+00
      0.9286662960D+01  0.4679413484D+00
      0.3163926960D+01  0.3623119853D+00
 Atom C40      Shell   114 SP   3    bf  301 -   304          5.368051087402         -1.010577971460          7.974301749019
      0.7868272350D+01 -0.1193324198D+00  0.6899906659D-01
      0.1881288540D+01 -0.1608541517D+00  0.3164239610D+00
      0.5442492580D+00  0.1143456438D+01  0.7443082909D+00
[...]
 1541 Fit       0.001956
 1542 Fit       0.002946
 1543 Fit      -0.000570
 1544 Fit       0.001783
 1545 Fit       0.002720
 1546 Fit       0.001986
 1547 Fit       0.000144
 1548 Fit      -0.000944
 1549 Fit       0.000014
 1550 Fit       0.001340
 1551 Fit       0.003814
 1552 Fit       0.003110
 1553 Fit       0.003521
 1554 Fit       0.002650
 1555 Fit       0.001805
 1556 Fit       0.001640
 1557 Fit       0.000997
 1558 Fit       0.000971
 1559 Fit       0.001517
 1560 Fit      -0.000474
 1561 Fit      -0.000866
 1562 Fit      -0.001890
 1563 Fit      -0.001173
 1564 Fit      -0.000652
 1565 Fit      -0.001936
 1566 Fit      -0.002367
 1567 Fit      -0.002931
 1568 Fit      -0.002437
 1569 Fit      -0.002373
 1570 Fit      -0.002583
 1571 Fit      -0.002882
 1572 Fit      -0.002657
 1573 Fit      -0.002170
 1574 Fit      -0.001639
 1575 Fit      -0.000628
 1576 Fit      -0.000237
 1577 Fit      -0.000147
 1578 Fit       0.001781
 1579 Fit       0.002813
 1580 Fit      -0.001403
 1581 Fit       0.000855
 1582 Fit       0.002337
 1583 Fit       0.002935
 1584 Fit      -0.000977
 1585 Fit       0.000819
 1586 Fit       0.001536
 1587 Fit       0.001324
 1588 Fit      -0.001488
 1589 Fit      -0.000989
 1590 Fit      -0.000594
 1591 Fit      -0.000844
 1592 Fit      -0.001707
 1593 Fit       0.001863
 1594 Fit       0.001688
 1595 Fit       0.001071
 1596 Fit      -0.000166
 1597 Fit      -0.001476
 1598 Fit       0.003002
 1599 Fit       0.002271
 1600 Fit       0.000872
 1601 Fit       0.000261
 1602 Fit       0.001151
 1603 Fit       0.002129
 1604 Fit       0.001400
 1605 Fit       0.002509
 1606 Fit       0.001058
 1607 Fit      -0.000673
 1608 Fit      -0.001132
 1609 Fit       0.003250
 1610 Fit       0.001873
 1611 Fit       0.000917
 1612 Fit      -0.000455
 1613 Fit      -0.001989
 1614 Fit       0.003056
 1615 Fit      -0.000408
 1616 Fit      -0.000972
 1617 Fit      -0.001998
 1618 Fit      -0.023862
 1619 Fit      -0.024333
 1620 Fit      -0.026656
 1621 Fit      -0.025833
 1622 Fit      -0.022109
 1623 Fit      -0.016339
 1624 Fit      -0.017983
 1625 Fit      -0.023226
 1626 Fit      -0.024861
 1627 Fit      -0.024526
 1628 Fit      -0.022176
 1629 Fit      -0.018776
 1630 Fit      -0.011769
 1631 Fit      -0.004594
 1632 Fit      -0.009379
 1633 Fit      -0.017678
 1634 Fit      -0.019610
 1635 Fit      -0.015541
 1636 Fit      -0.010091
 1637 Fit      -0.005497
 1638 Fit      -0.014997
 1639 Fit      -0.003154
 1640 Fit      -0.001990
 1641 Fit      -0.003727
 1642 Fit      -0.002862
 1643 Fit       0.005627
 1644 Fit       0.007954
 1645 Fit       0.004555
 1646 Fit       0.007299
 1647 Fit       0.012803
 1648 Fit       0.014642
 1649 Fit       0.012919
 1650 Fit       0.007374
 1651 Fit       0.012300
 1652 Fit       0.016707
 1653 Fit       0.018197
 1654 Fit       0.016523
 1655 Fit       0.011318
 1656 Fit       0.018085
 1657 Fit       0.003646
 1658 Fit       0.003728
 1659 Fit       0.003554
 1660 Fit       0.003654
 1661 Fit       0.003227
 1662 Fit      -0.003113
 1663 Fit       0.002958
 1664 Fit       0.000321
 1665 Fit       0.002053
 1666 Fit       0.002546
 1667 Fit       0.002908
 1668 Fit       0.001513
 1669 Fit       0.003088
 1670 Fit       0.002935
 1671 Fit       0.001883
 1672 Fit       0.002513
 1673 Fit       0.003052
 1674 Fit       0.003534
 1675 Fit       0.001733
 1676 Fit       0.002402
 1677 Fit       0.002884
 1678 Fit       0.002311
 1679 Fit      -0.000210
 1680 Fit      -0.000009
 1681 Fit      -0.000965
 1682 Fit       0.000138
 1683 Fit       0.001344
 1684 Fit       0.002149
 1685 Fit       0.000083
 1686 Fit       0.001510
 1687 Fit       0.002494
 1688 Fit       0.003118
 1689 Fit       0.002108
 1690 Fit       0.003018
 1691 Fit       0.003653
 1692 Fit       0.002072
 1693 Fit       0.002039
 1694 Fit       0.001170
 1695 Fit       0.000190
 1696 Fit       0.000267
 1697 Fit      -0.000570
 1698 Fit       0.001212
 1699 Fit      -0.000356
 1700 Fit      -0.000002
 1701 Fit       0.003160
 1702 Fit       0.003460
 1703 Fit       0.003452
 1704 Fit       0.003081
 1705 Fit       0.002360
 1706 Fit       0.003033
 1707 Fit       0.002979
 1708 Fit       0.002378
 1709 Fit       0.001041
 1710 Fit       0.001668
 1711 Fit       0.000271
 1712 Fit       0.002888
 1713 Fit       0.002283
 1714 Fit       0.002715
 1715 Fit       0.003455
 1716 Fit       0.001230
 1717 Fit       0.001888
 1718 Fit       0.002675
 1719 Fit       0.002914
 1720 Fit       0.000536
 1721 Fit       0.001764
 1722 Fit       0.001002
 1723 Fit       0.001660
 1724 Fit       0.001905
 1725 Fit       0.002459
 1726 Fit       0.002052
 1727 Fit       0.001499
 1728 Fit       0.002011
 1729 Fit       0.002415
 1730 Fit       0.002599
 1731 Fit       0.002042
 1732 Fit       0.001202
 1733 Fit       0.001404
 1734 Fit       0.001556
 1735 Fit       0.001651
 1736 Fit       0.001448
 1737 Fit       0.003088
 1738 Fit       0.000079
 1739 Fit      -0.000569
 1740 Fit      -0.000326
 1741 Fit      -0.000072
 1742 Fit       0.004062
 1743 Fit       0.004235
 1744 Fit       0.003147
 1745 Fit       0.003530
 1746 Fit       0.000318
 1747 Fit       0.002164
 1748 Fit       0.002674
 1749 Fit       0.000809
 1750 Fit       0.000608
 1751 Fit       0.002995
 1752 Fit       0.003118
 1753 Fit       0.003353
 1754 Fit       0.003383
 1755 Fit       0.003045
 1756 Fit       0.003465
 1757 Fit       0.002829
 1758 Fit       0.001494
 1759 Fit       0.002981
 1760 Fit       0.002019
 1761 Fit       0.000295
 1762 Fit       0.001314
 1763 Fit       0.002975
 1764 Fit       0.002610
 1765 Fit      -0.000566
 1766 Fit       0.000314
 1767 Fit      -0.001010
 1768 Fit       0.001801
 1769 Fit       0.003808
 1770 Fit       0.003389
 1771 Fit       0.002506
 1772 Fit       0.001831
 1773 Fit       0.002620
 1774 Fit       0.003225
 1775 Fit       0.003225
 1776 Fit       0.002734
 1777 Fit       0.002525
 1778 Fit       0.002759
 1779 Fit       0.001763
 1780 Fit       0.001166
 1781 Fit       0.001234
 1782 Fit       0.003824
 1783 Fit       0.003267
 1784 Fit       0.002842
 1785 Fit       0.002586
 1786 Fit       0.003808
 1787 Fit       0.003481
 1788 Fit       0.002915
 1789 Fit       0.002351
 1790 Fit       0.002508
 1791 Fit       0.001700
 1792 Fit      -0.000070
 1793 Fit      -0.000484
 1794 Fit      -0.000524
 1795 Fit      -0.000279
 1796 Fit      -0.000350
 1797 Fit       0.000568
 1798 Fit       0.001851
 1799 Fit       0.001198
 1800 Fit       0.002753
 1801 Fit       0.000908
 1802 Fit       0.002388
 1803 Fit       0.000983
 1804 Fit       0.002260
 1805 Fit       0.001595
 1806 Fit       0.002053
 1807 Fit       0.001394
 1808 Fit       0.000883
 1809 Fit       0.002242
 1810 Fit       0.002239
 1811 Fit       0.001326
 1812 Fit       0.000559
 1813 Fit       0.003431
 1814 Fit       0.002248
 1815 Fit       0.002939
 1816 Fit       0.002363
 1817 Fit       0.003767
 1818 Fit       0.004485
 1819 Fit      -0.007995
 1820 Fit      -0.000203
 1821 Fit       0.000392
 1822 Fit       0.000495
 1823 Fit       0.001204
 1824 Fit       0.001797
 1825 Fit       0.002447
 1826 Fit       0.001397
 1827 Fit       0.002127
 1828 Fit       0.002552
 1829 Fit       0.002400
 1830 Fit       0.002299
 1831 Fit      -0.001795
 1832 Fit      -0.000813
 1833 Fit      -0.000673
 1834 Fit       0.000982
 1835 Fit       0.001714
 1836 Fit       0.001594
 1837 Fit       0.000654
 1838 Fit       0.003307
 1839 Fit       0.003256
 1840 Fit       0.002994
 1841 Fit       0.001731
 1842 Fit      -0.003677
 1843 Fit      -0.002534
 1844 Fit       0.000923
 1845 Fit      -0.003405
 1846 Fit      -0.007193
 1847 Fit      -0.004872
 1848 Fit      -0.001074
 1849 Fit       0.001101
 1850 Fit      -0.001980
 1851 Fit      -0.004808
 1852 Fit       0.002458
 1853 Fit       0.001148
 1854 Fit       0.003683
 1855 Fit       0.007133
 1856 Fit       0.008195
 1857 Fit       0.006814
 1858 Fit       0.003142
 1859 Fit       0.003081
 1860 Fit       0.005613
 1861 Fit       0.006500
 1862 Fit       0.005588
 1863 Fit       0.002952
 1864 Fit       0.004669
 1865 Fit       0.005342
 1866 Fit       0.004326
 1867 Fit      -0.001632
 1868 Fit      -0.001774
 1869 Fit      -0.001617
 1870 Fit      -0.001717
 1871 Fit      -0.001306
 1872 Fit      -0.001744
 1873 Fit      -0.000207
 1874 Fit       0.000861
 1875 Fit      -0.005814
 1876 Fit      -0.000113
 1877 Fit       0.000608
 1878 Fit      -0.000029
 1879 Fit       0.001467
 1880 Fit       0.002424
 1881 Fit       0.000085
 1882 Fit       0.001729
 1883 Fit       0.002637
 1884 Fit       0.002849
 1885 Fit       0.000653
 1886 Fit       0.002390
 1887 Fit      -0.001743
 1888 Fit      -0.003630
 1889 Fit      -0.001134
 1890 Fit      -0.001687
 1891 Fit      -0.000724
 1892 Fit      -0.001472
 1893 Fit      -0.000788
 1894 Fit      -0.001990
 1895 Fit      -0.000873
 1896 Fit      -0.001379
 1897 Fit       0.001128
 1898 Fit       0.001471
 1899 Fit       0.002252
 1900 Fit      -0.007682
 1901 Fit      -0.001834
 1902 Fit       0.000297
 1903 Fit       0.003047
 1904 Fit      -0.001480
 1905 Fit       0.001773
 1906 Fit      -0.000925
 1907 Fit      -0.001870
 1908 Fit      -0.006342
 1909 Fit       0.010618
 1910 Fit       0.015854
 1911 Fit       0.016475
 1912 Fit       0.013840
 1913 Fit       0.009477
 1914 Fit       0.004517
 1915 Fit       0.008590
 1916 Fit       0.010578
 1917 Fit       0.010078
 1918 Fit       0.007586
 1919 Fit       0.003764
 1920 Fit      -0.013225
 1921 Fit      -0.003319
 1922 Fit      -0.004432
 1923 Fit      -0.004512
 1924 Fit      -0.000226
 1925 Fit      -0.000988
 1926 Fit      -0.001118
 1927 Fit      -0.001055
 1928 Fit      -0.000972
 1929 Fit      -0.001347
 1930 Fit      -0.020470
 1931 Fit      -0.011730
 1932 Fit      -0.006334
 1933 Fit      -0.002552
 1934 Fit      -0.017480
 1935 Fit      -0.011730
 1936 Fit      -0.008662
 1937 Fit      -0.006358
 1938 Fit      -0.004231
 1939 Fit      -0.004115
 1940 Fit      -0.013770
 1941 Fit      -0.001657
 1942 Fit      -0.001430
 1943 Fit      -0.004536
 1944 Fit      -0.014012
 1945 Fit      -0.008745
 1946 Fit      -0.006589
 1947 Fit      -0.010048
 1948 Fit      -0.004899
 1949 Fit      -0.003116
 1950 Fit      -0.002790
 1951 Fit      -0.004324
 1952 Fit      -0.009323
 1953 Fit      -0.000866
 1954 Fit      -0.000793
 1955 Fit      -0.001296
 1956 Fit      -0.003023
 1957 Fit      -0.007329
 1958 Fit       0.000008
 1959 Fit      -0.000365
 1960 Fit       0.000129
 1961 Fit      -0.000342
 1962 Fit       0.000573
 1963 Fit       0.002213
 1964 Fit       0.000261
 1965 Fit       0.002249
 1966 Fit       0.001424
 1967 Fit       0.002724
 1968 Fit       0.001419
 1969 Fit       0.001560
 1970 Fit       0.001133
 1971 Fit       0.001374
 1972 Fit       0.001445
 1973 Fit       0.000945
 1974 Fit       0.000230
 1975 Fit       0.001748
 1976 Fit       0.001287
 1977 Fit       0.000459
 1978 Fit       0.001290
 1979 Fit       0.000558
 1980 Fit      -0.008721
 1981 Fit      -0.005242
 1982 Fit      -0.004392
 1983 Fit       0.000040
 1984 Fit       0.000455
 1985 Fit       0.002344
 1986 Fit       0.007523
 1987 Fit       0.002348
 1988 Fit       0.002530
 1989 Fit       0.003904
 1990 Fit       0.007069
 1991 Fit       0.013193
 1992 Fit       0.001980
 1993 Fit       0.002412
 1994 Fit       0.003956
 1995 Fit      -0.003256
 1996 Fit      -0.001148
 1997 Fit      -0.001256
 1998 Fit      -0.001218
 1999 Fit      -0.001754
 2000 Fit      -0.001728
 2001 Fit       0.001120
 2002 Fit      -0.000211
 2003 Fit      -0.001466
 2004 Fit      -0.001400
 2005 Fit      -0.000762
 2006 Fit      -0.000871
 2007 Fit      -0.000229
 2008 Fit       0.000766
 2009 Fit       0.000849
 2010 Fit      -0.000152
 2011 Fit       0.001145
 2012 Fit       0.001880
 2013 Fit       0.002260
 2014 Fit      -0.000137
 2015 Fit       0.001159
 2016 Fit       0.001837
 2017 Fit       0.000301
 2018 Fit      -0.000062
 2019 Fit      -0.000123
 2020 Fit      -0.000352
 2021 Fit      -0.001102
 2022 Fit       0.000125
 2023 Fit       0.000883
 2024 Fit       0.000523
 2025 Fit       0.002774
 2026 Fit       0.002716
 2027 Fit       0.001093
 2028 Fit      -0.000324
 2029 Fit       0.002125
 2030 Fit       0.000403
 2031 Fit       0.000623
 2032 Fit      -0.000099
 2033 Fit       0.002851
 2034 Fit       0.002331
 2035 Fit       0.003326
 2036 Fit       0.000576
 2037 Fit       0.002359
 2038 Fit       0.001407
 2039 Fit       0.001186
 2040 Fit       0.000897
 2041 Fit       0.000904
 2042 Fit       0.001981
 2043 Fit       0.001847
 2044 Fit       0.001658
 2045 Fit       0.001245
 2046 Fit       0.000408
 2047 Fit       0.002259
 2048 Fit       0.001961
 2049 Fit       0.001331
 2050 Fit       0.000593
 2051 Fit       0.001517
 2052 Fit       0.002775
 2053 Fit       0.002302
 2054 Fit       0.000915
 2055 Fit       0.000825
 2056 Fit       0.001442
 2057 Fit       0.002254
 2058 Fit       0.002148
 2059 Fit       0.002659
 2060 Fit       0.002196
 2061 Fit       0.001775
 2062 Fit       0.002111
 2063 Fit       0.001630
 2064 Fit       0.001252
 2065 Fit       0.000585
 2066 Fit       0.001380
 2067 Fit       0.001875
 2068 Fit       0.000886
 2069 Fit       0.001652
 2070 Fit       0.002017
 2071 Fit       0.001699
 2072 Fit       0.000476
 2073 Fit       0.000833
 2074 Fit       0.001059
 2075 Fit       0.001556
 2076 Fit       0.001143
 2077 Fit       0.000073
 2078 Fit       0.000974
 2079 Fit       0.001002
 2080 Fit      -0.001837
 2081 Fit      -0.001074
 2082 Fit      -0.001558
 2083 Fit      -0.001512
 2084 Fit      -0.001792
 2085 Fit      -0.001337
 2086 Fit      -0.001414
 2087 Fit      -0.000946
 2088 Fit      -0.000137
 2089 Fit      -0.000732
 2090 Fit       0.001787
 2091 Fit       0.002507
 2092 Fit       0.000502
 2093 Fit       0.002469
 2094 Fit       0.001943
 2095 Fit       0.000370
 2096 Fit       0.000309
 2097 Fit       0.001077
 2098 Fit       0.001529
 2099 Fit       0.000679
 2100 Fit       0.000251
 2101 Fit      -0.000383
 2102 Fit      -0.001200
 2103 Fit      -0.000218
 2104 Fit       0.000482
 2105 Fit       0.001142
 2106 Fit      -0.001118
 2107 Fit       0.000931
 2108 Fit       0.001751
 2109 Fit       0.002478
 2110 Fit      -0.000125
 2111 Fit       0.001366
 2112 Fit       0.002061
 2113 Fit       0.001596
 2114 Fit       0.000368
 2115 Fit      -0.000373
 2116 Fit       0.000188
 2117 Fit       0.001068
 2118 Fit       0.002684
 2119 Fit       0.003134
 2120 Fit       0.002487
 2121 Fit       0.001816
 2122 Fit       0.001831
 2123 Fit       0.001910
 2124 Fit       0.001487
 2125 Fit       0.001649
 2126 Fit       0.000427
 2127 Fit       0.000218
 2128 Fit       0.000096
 2129 Fit       0.000334
 2130 Fit      -0.001259
 2131 Fit      -0.001132
 2132 Fit      -0.001555
 2133 Fit      -0.001939
 2134 Fit      -0.001683
 2135 Fit      -0.001832
 2136 Fit      -0.002207
 2137 Fit      -0.002116
 2138 Fit      -0.001627
 2139 Fit      -0.001905
 2140 Fit      -0.001321
 2141 Fit      -0.000849
 2142 Fit      -0.000177
 2143 Fit      -0.000404
 2144 Fit      -0.000355
 2145 Fit       0.001080
 2146 Fit       0.002027
 2147 Fit      -0.001544
 2148 Fit       0.000174
 2149 Fit       0.001507
 2150 Fit       0.002317
 2151 Fit      -0.000110
 2152 Fit       0.001175
 2153 Fit       0.001890
 2154 Fit       0.002102
 2155 Fit      -0.001009
 2156 Fit       0.000229
 2157 Fit       0.000850
 2158 Fit      -0.001412
 2159 Fit      -0.001591
 2160 Fit       0.000212
 2161 Fit       0.000312
 2162 Fit       0.000097
 2163 Fit      -0.000491
 2164 Fit      -0.001262
 2165 Fit       0.001965
 2166 Fit       0.001607
 2167 Fit       0.001088
 2168 Fit       0.000226
 2169 Fit      -0.000615
 2170 Fit       0.002427
 2171 Fit       0.001797
 2172 Fit       0.000871
 2173 Fit       0.000550
 2174 Fit       0.001738
 2175 Fit       0.001135
 2176 Fit       0.001965
 2177 Fit       0.000842
 2178 Fit      -0.000313
 2179 Fit      -0.000476
 2180 Fit       0.002653
 2181 Fit       0.001767
 2182 Fit       0.000938
 2183 Fit      -0.000107
 2184 Fit      -0.001179
 2185 Fit       0.002752
 2186 Fit       0.000547
 2187 Fit      -0.000035
 2188 Fit      -0.000833
 2189 Fit      -0.001806
 2190 Fit      -0.001345
 2191 Fit      -0.001516
 -----------------------------------------------------------------
 Leave Link  602 at Tue Mar 21 12:03:18 2017, MaxMem=    33554432 cpu:         3.2
 (Enter /home/michal/g09/l9999.exe)

 Test job not archived.
 1\1\GINC-LINUX\SP\RHF\6-31G(d)\C27H46O1\MICHAL\21-Mar-2017\0\\#P HF/6-
 31G* SCF(Conver=6) NoSymm Test Pop=mk IOp(6/33=2) GFInput GFPrint\\MEP
  - Input generated by R.E.D.-III.x MOLECULE\\0,1\O,0,0.4422038,-3.3893
 1986,7.25366113\H,0,0.2756713,-4.32989335,7.10692971\C,0,1.50844482,1.
 50096991,0.\C,0,1.1039199,0.,0.\H,0,0.,0.,0.\C,0,1.51747415,-0.7947903
 2,1.24576357\H,0,2.61446825,-0.8167855,1.31311542\C,0,0.94370677,-0.11
 774659,2.51783346\H,0,-0.15002657,-0.23964476,2.44831345\C,0,0.9494977
 1,1.9349992,-1.3997122\H,0,-0.14494977,1.99381545,-1.28675645\C,0,0.83
 611201,2.13385517,1.23604133\H,0,-0.25462464,2.09140187,1.10217945\H,0
 ,1.09488079,3.19221655,1.34162077\C,0,1.36951666,-0.85075627,3.8384879
 4\C,0,1.53615567,-0.50873581,-1.38310456\H,0,0.97986084,-1.39812834,-1
 .69552854\H,0,2.59773617,-0.7854853,-1.37940904\C,0,1.22249857,1.40302
 459,2.53856884\H,0,2.28417937,1.58388947,2.73753923\H,0,0.6784672,1.86
 635053,3.36943043\C,0,1.27577965,0.70510835,-2.3169852\H,0,2.15200253,
 0.91568841,-2.94154014\H,0,0.45074278,0.49884203,-3.00518165\C,0,1.022
 96801,-2.24785455,1.15925923\H,0,1.62443115,-2.80832915,0.43120038\H,0
 ,-0.00501491,-2.26286598,0.76019312\C,0,1.40934356,3.27611171,-2.02671
 909\H,0,2.49137707,3.19660838,-2.20833612\C,0,3.04143392,1.69795939,0.
 04989519\H,0,3.29332976,2.76183571,0.10893061\H,0,3.49432597,1.2113155
 7,0.91712439\H,0,3.53576934,1.29625736,-0.8398493\C,0,1.21765548,-2.36
 954613,3.67377767\C,0,0.42269032,-0.39037311,4.99051954\H,0,-0.6124778
 4,-0.44588514,4.6257625\H,0,0.61456721,0.66318572,5.2211261\C,0,1.0486
 406,-2.96034519,2.48165932\H,0,0.9219874,-4.0431422,2.45034249\C,0,2.8
 4065029,-0.53477483,4.21981874\H,0,2.95966365,0.51024964,4.52278339\H,
 0,3.17994524,-1.15180373,5.0555141\H,0,3.5164887,-0.72818291,3.3810212
 \C,0,1.26570441,-3.1988675,4.94367026\H,0,1.05454745,-4.24881478,4.703
 03241\H,0,2.27022113,-3.17259272,5.3892364\C,0,0.5290785,-1.21202528,6
 .28350237\H,0,1.51886396,-1.10130214,6.74373689\H,0,-0.20025804,-0.851
 12957,7.01759688\C,0,0.72159298,3.51104722,-3.40686391\H,0,0.24696024,
 2.58605187,-3.75017259\H,0,-0.09782855,4.23297797,-3.27953716\C,0,0.28
 670944,-2.69097586,6.01204881\H,0,-0.74427214,-2.82258407,5.64392698\C
 ,0,1.17246752,4.49130907,-1.11061661\H,0,0.12438592,4.53784366,-0.7897
 1327\H,0,1.39477738,5.42424636,-1.63711449\H,0,1.79555089,4.46751498,-
 0.21302803\C,0,1.65085353,3.99393125,-4.53766236\H,0,2.44203775,3.2456
 351,-4.67863576\H,0,1.07458575,4.00698641,-5.47418277\C,0,2.27692038,5
 .38224638,-4.33557859\H,0,2.93785327,5.37454036,-3.45690981\H,0,1.4736
 7072,6.09810186,-4.10867466\C,0,3.07592919,5.91707323,-5.54241632\H,0,
 2.41326534,5.88128736,-6.42111434\C,0,4.31703195,5.06470029,-5.8535904
 3\H,0,4.057471,4.02964193,-6.09706424\H,0,4.86943911,5.47526922,-6.706
 4804\H,0,5.00017611,5.0457111,-4.99428204\C,0,3.4753198,7.38410225,-5.
 31732469\H,0,2.59714269,8.0147726,-5.13724221\H,0,4.00759349,7.7894541
 1,-6.18541864\H,0,4.13814584,7.47966737,-4.44763371\\Version=EM64L-G09
 RevD.01\HF=-1124.075778\RMSD=4.596e-07\Dipole=-0.1560621,-0.1765885,-0
 .6809731\Quadrupole=3.2318468,8.4533202,-11.6851671,0.939827,-1.753854
 ,0.8431493\PG=C01 [X(C27H46O1)]\\@


 Any fool can criticize, condemn, and complain -- and most do.
 -- Dale Carnegie
 Job cpu time:       0 days  0 hours 10 minutes 41.3 seconds.
 File lengths (MBytes):  RWF=    142 Int=      0 D2E=      0 Chk=     10 Scr=      1
 Normal termination of Gaussian 09 at Tue Mar 21 12:03:18 2017.
