 Entering Gaussian System, Link 0=/home/michal/g09/g09
 Input=JOB2-gau_m1-24-2.com
 Output=JOB2-gau_m1-24-2.log
 Initial command:
 /home/michal/g09/l1.exe "/home/michal/gauss_scratch/Gau-23752.inp" -scrdir="/home/michal/gauss_scratch/"
 Entering Link 1 = /home/michal/g09/l1.exe PID=     23753.
  
 Copyright (c) 1988,1990,1992,1993,1995,1998,2003,2009,2013,
            Gaussian, Inc.  All Rights Reserved.
  
 This is part of the Gaussian(R) 09 program.  It is based on
 the Gaussian(R) 03 system (copyright 2003, Gaussian, Inc.),
 the Gaussian(R) 98 system (copyright 1998, Gaussian, Inc.),
 the Gaussian(R) 94 system (copyright 1995, Gaussian, Inc.),
 the Gaussian 92(TM) system (copyright 1992, Gaussian, Inc.),
 the Gaussian 90(TM) system (copyright 1990, Gaussian, Inc.),
 the Gaussian 88(TM) system (copyright 1988, Gaussian, Inc.),
 the Gaussian 86(TM) system (copyright 1986, Carnegie Mellon
 University), and the Gaussian 82(TM) system (copyright 1983,
 Carnegie Mellon University). Gaussian is a federally registered
 trademark of Gaussian, Inc.
  
 This software contains proprietary and confidential information,
 including trade secrets, belonging to Gaussian, Inc.
  
 This software is provided under written license and may be
 used, copied, transmitted, or stored only in accord with that
 written license.
  
 The following legend is applicable only to US Government
 contracts under FAR:
  
                    RESTRICTED RIGHTS LEGEND
  
 Use, reproduction and disclosure by the US Government is
 subject to restrictions as set forth in subparagraphs (a)
 and (c) of the Commercial Computer Software - Restricted
 Rights clause in FAR 52.227-19.
  
 Gaussian, Inc.
 340 Quinnipiac St., Bldg. 40, Wallingford CT 06492
  
  
 ---------------------------------------------------------------
 Warning -- This program may not be used in any manner that
 competes with the business of Gaussian, Inc. or will provide
 assistance to any competitor of Gaussian, Inc.  The licensee
 of this program is prohibited from giving any competitor of
 Gaussian, Inc. access to this program.  By using this program,
 the user acknowledges that Gaussian, Inc. is engaged in the
 business of creating and licensing software in the field of
 computational chemistry and represents and warrants to the
 licensee that it is not a competitor of Gaussian, Inc. and that
 it will not use this program in any manner prohibited above.
 ---------------------------------------------------------------
  

 Cite this work as:
 Gaussian 09, Revision D.01,
 M. J. Frisch, G. W. Trucks, H. B. Schlegel, G. E. Scuseria, 
 M. A. Robb, J. R. Cheeseman, G. Scalmani, V. Barone, B. Mennucci, 
 G. A. Petersson, H. Nakatsuji, M. Caricato, X. Li, H. P. Hratchian, 
 A. F. Izmaylov, J. Bloino, G. Zheng, J. L. Sonnenberg, M. Hada, 
 M. Ehara, K. Toyota, R. Fukuda, J. Hasegawa, M. Ishida, T. Nakajima, 
 Y. Honda, O. Kitao, H. Nakai, T. Vreven, J. A. Montgomery, Jr., 
 J. E. Peralta, F. Ogliaro, M. Bearpark, J. J. Heyd, E. Brothers, 
 K. N. Kudin, V. N. Staroverov, T. Keith, R. Kobayashi, J. Normand, 
 K. Raghavachari, A. Rendell, J. C. Burant, S. S. Iyengar, J. Tomasi, 
 M. Cossi, N. Rega, J. M. Millam, M. Klene, J. E. Knox, J. B. Cross, 
 V. Bakken, C. Adamo, J. Jaramillo, R. Gomperts, R. E. Stratmann, 
 O. Yazyev, A. J. Austin, R. Cammi, C. Pomelli, J. W. Ochterski, 
 R. L. Martin, K. Morokuma, V. G. Zakrzewski, G. A. Voth, 
 P. Salvador, J. J. Dannenberg, S. Dapprich, A. D. Daniels, 
 O. Farkas, J. B. Foresman, J. V. Ortiz, J. Cioslowski, 
 and D. J. Fox, Gaussian, Inc., Wallingford CT, 2013.
 
 ******************************************
 Gaussian 09:  EM64L-G09RevD.01 24-Apr-2013
                21-Mar-2017 
 ******************************************
 %Mem=256MB
 %NProc=12
 Will use up to   12 processors via shared memory.
 ----------------------------------------------------------------------
 #P HF/6-31G* SCF(Conver=6) NoSymm Test Pop=mk IOp(6/33=2) GFInput GFPr
 int
 ----------------------------------------------------------------------
 1/38=1/1;
 2/12=2,15=1,17=6,18=5,40=1/2;
 3/5=1,6=6,7=1,11=9,16=1,24=110,25=1,30=1/1,2,3;
 4//1;
 5/5=2,6=6,38=5/2;
 6/7=2,8=2,9=2,10=2,15=8,20=1,28=1,33=2/1,2;
 99/5=1,9=1/99;
 Leave Link    1 at Tue Mar 21 13:10:29 2017, MaxMem=    33554432 cpu:         0.6
 (Enter /home/michal/g09/l101.exe)
 ----------------------------------------------
 MEP - Input generated by R.E.D.-III.x MOLECULE
 ----------------------------------------------
 Symbolic Z-matrix:
 Charge =  0 Multiplicity = 1
 O                     0.42451  -3.39592   7.24813 
 H                     0.26119  -4.3369    7.10039 
 C                     1.50718   1.50168   0. 
 C                     1.10387   0.        0. 
 H                     0.        0.        0. 
 C                     1.51711  -0.79478   1.2459 
 H                     2.61402  -0.81248   1.31619 
 C                     0.93678  -0.12072   2.51637 
 H                    -0.1563   -0.24557   2.44239 
 C                     0.95093   1.93299  -1.4024 
 H                    -0.14411   1.98431  -1.29179 
 C                     0.82942   2.13183   1.2349 
 H                    -0.26075   2.08889   1.09676 
 H                     1.08645   3.19004   1.34484 
 C                     1.35908  -0.85284   3.83848 
 C                     1.53547  -0.51067  -1.38229 
 H                     0.97375  -1.39624  -1.69584 
 H                     2.59518  -0.79468  -1.37693 
 C                     1.21175   1.40059   2.53847 
 H                     2.27224   1.58356   2.74191 
 H                     0.66328   1.86271   3.36709 
 C                     1.28589   0.70465  -2.31678 
 H                     2.17203   0.91468  -2.92756 
 H                     0.46972   0.50428  -3.01727 
 C                     1.02813  -2.24951   1.15665 
 H                     1.63452  -2.80755   0.43083 
 H                     0.00189  -2.26795   0.7533 
 C                     1.39802   3.27984  -2.02977 
 H                     2.48237   3.22033  -2.20148 
 C                     3.03903   1.70349   0.05356 
 H                     3.28666   2.76897   0.10442 
 H                     3.4911    1.22568   0.9262 
 H                     3.53741   1.29622  -0.83144 
 C                     1.21231  -2.37192   3.67213 
 C                     0.4056   -0.39591   4.98637 
 H                    -0.62768  -0.45413   4.61672 
 H                     0.59339   0.65807   5.21841 
 C                     1.0505   -2.96252   2.47889 
 H                     0.92729  -4.04568   2.44642 
 C                     2.8276   -0.53295   4.22658 
 H                     2.94238   0.51179   4.53222 
 H                     3.16535  -1.15058   5.06248 
 H                     3.5075   -0.72269   3.39025 
 C                     1.25704  -3.20187   4.94171 
 H                     1.04995  -4.25227   4.69952 
 H                     2.25952  -3.17297   5.3917 
 C                     0.50842  -1.21792   6.27939 
 H                     1.49566  -1.10434   6.74436 
 H                    -0.22546  -0.85963   7.01022 
 C                     0.70973   3.46944  -3.40611 
 H                     0.88335   2.5792   -4.01979 
 H                    -0.37748   3.51073  -3.24169 
 C                     0.27194  -2.69752   6.0062 
 H                    -0.75709  -2.83229   5.63377 
 C                     1.12851   4.49241  -1.12246 
 H                     0.06511   4.55838  -0.85945 
 H                     1.4047    5.42823  -1.61743 
 H                     1.69919   4.44535  -0.19266 
 C                     1.1171    4.71133  -4.22439 
 H                     0.52521   4.71209  -5.14863 
 H                     0.81846   5.62288  -3.69251 
 C                     2.61232   4.82954  -4.57609 
 H                     3.19491   4.93189  -3.65044 
 H                     2.76302   5.76955  -5.12748 
 C                     3.22031   3.68093  -5.4088 
 H                     3.08093   2.74176  -4.85413 
 C                     4.73306   3.89313  -5.58091 
 H                     5.23919   3.9684   -4.61152 
 H                     5.19114   3.06599  -6.13523 
 H                     4.93737   4.81812  -6.13537 
 C                     2.53951   3.52314  -6.7778 
 H                     1.47414   3.28875  -6.68535 
 H                     3.005     2.7165   -7.35553 
 H                     2.62848   4.44638  -7.36516 
 
 NAtoms=     74 NQM=       74 NQMF=       0 NMMI=      0 NMMIF=      0
                NMic=       0 NMicF=      0.
                    Isotopes and Nuclear Properties:
 (Nuclear quadrupole moments (NQMom) in fm**2, nuclear magnetic moments (NMagM)
  in nuclear magnetons)

  Atom         1           2           3           4           5           6           7           8           9          10
 IAtWgt=          16           1          12          12           1          12           1          12           1          12
 AtmWgt=  15.9949146   1.0078250  12.0000000  12.0000000   1.0078250  12.0000000   1.0078250  12.0000000   1.0078250  12.0000000
 NucSpn=           0           1           0           0           1           0           1           0           1           0
 AtZEff=   0.0000000   0.0000000   0.0000000   0.0000000   0.0000000   0.0000000   0.0000000   0.0000000   0.0000000   0.0000000
 NQMom=    0.0000000   0.0000000   0.0000000   0.0000000   0.0000000   0.0000000   0.0000000   0.0000000   0.0000000   0.0000000
 NMagM=    0.0000000   2.7928460   0.0000000   0.0000000   2.7928460   0.0000000   2.7928460   0.0000000   2.7928460   0.0000000
 AtZNuc=   8.0000000   1.0000000   6.0000000   6.0000000   1.0000000   6.0000000   1.0000000   6.0000000   1.0000000   6.0000000

  Atom        11          12          13          14          15          16          17          18          19          20
 IAtWgt=           1          12           1           1          12          12           1           1          12           1
 AtmWgt=   1.0078250  12.0000000   1.0078250   1.0078250  12.0000000  12.0000000   1.0078250   1.0078250  12.0000000   1.0078250
 NucSpn=           1           0           1           1           0           0           1           1           0           1
 AtZEff=   0.0000000   0.0000000   0.0000000   0.0000000   0.0000000   0.0000000   0.0000000   0.0000000   0.0000000   0.0000000
 NQMom=    0.0000000   0.0000000   0.0000000   0.0000000   0.0000000   0.0000000   0.0000000   0.0000000   0.0000000   0.0000000
 NMagM=    2.7928460   0.0000000   2.7928460   2.7928460   0.0000000   0.0000000   2.7928460   2.7928460   0.0000000   2.7928460
 AtZNuc=   1.0000000   6.0000000   1.0000000   1.0000000   6.0000000   6.0000000   1.0000000   1.0000000   6.0000000   1.0000000

  Atom        21          22          23          24          25          26          27          28          29          30
 IAtWgt=           1          12           1           1          12           1           1          12           1          12
 AtmWgt=   1.0078250  12.0000000   1.0078250   1.0078250  12.0000000   1.0078250   1.0078250  12.0000000   1.0078250  12.0000000
 NucSpn=           1           0           1           1           0           1           1           0           1           0
 AtZEff=   0.0000000   0.0000000   0.0000000   0.0000000   0.0000000   0.0000000   0.0000000   0.0000000   0.0000000   0.0000000
 NQMom=    0.0000000   0.0000000   0.0000000   0.0000000   0.0000000   0.0000000   0.0000000   0.0000000   0.0000000   0.0000000
 NMagM=    2.7928460   0.0000000   2.7928460   2.7928460   0.0000000   2.7928460   2.7928460   0.0000000   2.7928460   0.0000000
 AtZNuc=   1.0000000   6.0000000   1.0000000   1.0000000   6.0000000   1.0000000   1.0000000   6.0000000   1.0000000   6.0000000

  Atom        31          32          33          34          35          36          37          38          39          40
 IAtWgt=           1           1           1          12          12           1           1          12           1          12
 AtmWgt=   1.0078250   1.0078250   1.0078250  12.0000000  12.0000000   1.0078250   1.0078250  12.0000000   1.0078250  12.0000000
 NucSpn=           1           1           1           0           0           1           1           0           1           0
 AtZEff=   0.0000000   0.0000000   0.0000000   0.0000000   0.0000000   0.0000000   0.0000000   0.0000000   0.0000000   0.0000000
 NQMom=    0.0000000   0.0000000   0.0000000   0.0000000   0.0000000   0.0000000   0.0000000   0.0000000   0.0000000   0.0000000
 NMagM=    2.7928460   2.7928460   2.7928460   0.0000000   0.0000000   2.7928460   2.7928460   0.0000000   2.7928460   0.0000000
 AtZNuc=   1.0000000   1.0000000   1.0000000   6.0000000   6.0000000   1.0000000   1.0000000   6.0000000   1.0000000   6.0000000

  Atom        41          42          43          44          45          46          47          48          49          50
 IAtWgt=           1           1           1          12           1           1          12           1           1          12
 AtmWgt=   1.0078250   1.0078250   1.0078250  12.0000000   1.0078250   1.0078250  12.0000000   1.0078250   1.0078250  12.0000000
 NucSpn=           1           1           1           0           1           1           0           1           1           0
 AtZEff=   0.0000000   0.0000000   0.0000000   0.0000000   0.0000000   0.0000000   0.0000000   0.0000000   0.0000000   0.0000000
 NQMom=    0.0000000   0.0000000   0.0000000   0.0000000   0.0000000   0.0000000   0.0000000   0.0000000   0.0000000   0.0000000
 NMagM=    2.7928460   2.7928460   2.7928460   0.0000000   2.7928460   2.7928460   0.0000000   2.7928460   2.7928460   0.0000000
 AtZNuc=   1.0000000   1.0000000   1.0000000   6.0000000   1.0000000   1.0000000   6.0000000   1.0000000   1.0000000   6.0000000

  Atom        51          52          53          54          55          56          57          58          59          60
 IAtWgt=           1           1          12           1          12           1           1           1          12           1
 AtmWgt=   1.0078250   1.0078250  12.0000000   1.0078250  12.0000000   1.0078250   1.0078250   1.0078250  12.0000000   1.0078250
 NucSpn=           1           1           0           1           0           1           1           1           0           1
 AtZEff=   0.0000000   0.0000000   0.0000000   0.0000000   0.0000000   0.0000000   0.0000000   0.0000000   0.0000000   0.0000000
 NQMom=    0.0000000   0.0000000   0.0000000   0.0000000   0.0000000   0.0000000   0.0000000   0.0000000   0.0000000   0.0000000
 NMagM=    2.7928460   2.7928460   0.0000000   2.7928460   0.0000000   2.7928460   2.7928460   2.7928460   0.0000000   2.7928460
 AtZNuc=   1.0000000   1.0000000   6.0000000   1.0000000   6.0000000   1.0000000   1.0000000   1.0000000   6.0000000   1.0000000

  Atom        61          62          63          64          65          66          67          68          69          70
 IAtWgt=           1          12           1           1          12           1          12           1           1           1
 AtmWgt=   1.0078250  12.0000000   1.0078250   1.0078250  12.0000000   1.0078250  12.0000000   1.0078250   1.0078250   1.0078250
 NucSpn=           1           0           1           1           0           1           0           1           1           1
 AtZEff=   0.0000000   0.0000000   0.0000000   0.0000000   0.0000000   0.0000000   0.0000000   0.0000000   0.0000000   0.0000000
 NQMom=    0.0000000   0.0000000   0.0000000   0.0000000   0.0000000   0.0000000   0.0000000   0.0000000   0.0000000   0.0000000
 NMagM=    2.7928460   0.0000000   2.7928460   2.7928460   0.0000000   2.7928460   0.0000000   2.7928460   2.7928460   2.7928460
 AtZNuc=   1.0000000   6.0000000   1.0000000   1.0000000   6.0000000   1.0000000   6.0000000   1.0000000   1.0000000   1.0000000

  Atom        71          72          73          74
 IAtWgt=          12           1           1           1
 AtmWgt=  12.0000000   1.0078250   1.0078250   1.0078250
 NucSpn=           0           1           1           1
 AtZEff=   0.0000000   0.0000000   0.0000000   0.0000000
 NQMom=    0.0000000   0.0000000   0.0000000   0.0000000
 NMagM=    0.0000000   2.7928460   2.7928460   2.7928460
 AtZNuc=   6.0000000   1.0000000   1.0000000   1.0000000
 Leave Link  101 at Tue Mar 21 13:10:29 2017, MaxMem=    33554432 cpu:         1.8
 (Enter /home/michal/g09/l202.exe)
 Symmetry turned off by external request.
 Stoichiometry    C27H46O
 Framework group  C1[X(C27H46O)]
 Deg. of freedom   216
 Full point group                 C1      NOp   1
                          Input orientation:                          
 ---------------------------------------------------------------------
 Center     Atomic      Atomic             Coordinates (Angstroms)
 Number     Number       Type             X           Y           Z
 ---------------------------------------------------------------------
      1          8           0        0.424509   -3.395922    7.248131
      2          1           0        0.261193   -4.336904    7.100394
      3          6           0        1.507182    1.501681    0.000000
      4          6           0        1.103869    0.000000    0.000000
      5          1           0        0.000000    0.000000    0.000000
      6          6           0        1.517111   -0.794776    1.245899
      7          1           0        2.614023   -0.812485    1.316191
      8          6           0        0.936785   -0.120720    2.516369
      9          1           0       -0.156302   -0.245574    2.442389
     10          6           0        0.950934    1.932992   -1.402395
     11          1           0       -0.144109    1.984309   -1.291794
     12          6           0        0.829421    2.131829    1.234900
     13          1           0       -0.260755    2.088890    1.096762
     14          1           0        1.086445    3.190041    1.344837
     15          6           0        1.359080   -0.852836    3.838480
     16          6           0        1.535466   -0.510668   -1.382288
     17          1           0        0.973746   -1.396241   -1.695845
     18          1           0        2.595177   -0.794676   -1.376932
     19          6           0        1.211750    1.400593    2.538468
     20          1           0        2.272239    1.583564    2.741907
     21          1           0        0.663277    1.862706    3.367090
     22          6           0        1.285888    0.704655   -2.316776
     23          1           0        2.172032    0.914676   -2.927561
     24          1           0        0.469717    0.504281   -3.017265
     25          6           0        1.028126   -2.249514    1.156653
     26          1           0        1.634519   -2.807548    0.430830
     27          1           0        0.001888   -2.267954    0.753298
     28          6           0        1.398024    3.279837   -2.029769
     29          1           0        2.482373    3.220333   -2.201476
     30          6           0        3.039027    1.703489    0.053561
     31          1           0        3.286656    2.768971    0.104421
     32          1           0        3.491095    1.225678    0.926205
     33          1           0        3.537411    1.296216   -0.831445
     34          6           0        1.212311   -2.371921    3.672126
     35          6           0        0.405601   -0.395914    4.986366
     36          1           0       -0.627679   -0.454130    4.616721
     37          1           0        0.593387    0.658072    5.218408
     38          6           0        1.050496   -2.962518    2.478889
     39          1           0        0.927292   -4.045677    2.446416
     40          6           0        2.827604   -0.532951    4.226578
     41          1           0        2.942382    0.511787    4.532218
     42          1           0        3.165350   -1.150576    5.062477
     43          1           0        3.507499   -0.722690    3.390246
     44          6           0        1.257042   -3.201875    4.941714
     45          1           0        1.049953   -4.252268    4.699524
     46          1           0        2.259523   -3.172970    5.391703
     47          6           0        0.508421   -1.217919    6.279387
     48          1           0        1.495664   -1.104343    6.744356
     49          1           0       -0.225456   -0.859626    7.010225
     50          6           0        0.709732    3.469437   -3.406107
     51          1           0        0.883346    2.579198   -4.019785
     52          1           0       -0.377478    3.510726   -3.241688
     53          6           0        0.271939   -2.697518    6.006199
     54          1           0       -0.757090   -2.832294    5.633772
     55          6           0        1.128512    4.492413   -1.122459
     56          1           0        0.065112    4.558385   -0.859455
     57          1           0        1.404701    5.428230   -1.617429
     58          1           0        1.699187    4.445347   -0.192659
     59          6           0        1.117097    4.711330   -4.224391
     60          1           0        0.525207    4.712091   -5.148633
     61          1           0        0.818463    5.622880   -3.692508
     62          6           0        2.612320    4.829542   -4.576092
     63          1           0        3.194910    4.931889   -3.650443
     64          1           0        2.763022    5.769545   -5.127482
     65          6           0        3.220311    3.680932   -5.408797
     66          1           0        3.080933    2.741762   -4.854128
     67          6           0        4.733060    3.893126   -5.580906
     68          1           0        5.239193    3.968404   -4.611523
     69          1           0        5.191141    3.065988   -6.135228
     70          1           0        4.937369    4.818115   -6.135374
     71          6           0        2.539510    3.523139   -6.777803
     72          1           0        1.474138    3.288753   -6.685345
     73          1           0        3.005003    2.716496   -7.355528
     74          1           0        2.628484    4.446382   -7.365157
 ---------------------------------------------------------------------
 Rotational constants (GHZ):      0.5386440      0.0602779      0.0580007
 Leave Link  202 at Tue Mar 21 13:10:29 2017, MaxMem=    33554432 cpu:         0.0
 (Enter /home/michal/g09/l301.exe)
 Standard basis: 6-31G(d) (6D, 7F)
 Ernie: Thresh=  0.10000D-02 Tol=  0.10000D-05 Strict=F.
 AO basis set in the form of general basis input (Overlap normalization):
      1 0
 S   6 1.00       0.000000000000
      0.5484671660D+04  0.1831074430D-02
      0.8252349460D+03  0.1395017220D-01
      0.1880469580D+03  0.6844507810D-01
      0.5296450000D+02  0.2327143360D+00
      0.1689757040D+02  0.4701928980D+00
      0.5799635340D+01  0.3585208530D+00
 SP   3 1.00       0.000000000000
      0.1553961625D+02 -0.1107775495D+00  0.7087426823D-01
      0.3599933586D+01 -0.1480262627D+00  0.3397528391D+00
      0.1013761750D+01  0.1130767015D+01  0.7271585773D+00
 SP   1 1.00       0.000000000000
      0.2700058226D+00  0.1000000000D+01  0.1000000000D+01
 D   1 1.00       0.000000000000
      0.8000000000D+00  0.1000000000D+01
 ****
      2 0
 S   3 1.00       0.000000000000
      0.1873113696D+02  0.3349460434D-01
      0.2825394365D+01  0.2347269535D+00
      0.6401216923D+00  0.8137573261D+00
 S   1 1.00       0.000000000000
      0.1612777588D+00  0.1000000000D+01
 ****
      3 0
 S   6 1.00       0.000000000000
      0.3047524880D+04  0.1834737132D-02
      0.4573695180D+03  0.1403732281D-01
      0.1039486850D+03  0.6884262226D-01
      0.2921015530D+02  0.2321844432D+00
      0.9286662960D+01  0.4679413484D+00
      0.3163926960D+01  0.3623119853D+00
 SP   3 1.00       0.000000000000
      0.7868272350D+01 -0.1193324198D+00  0.6899906659D-01
      0.1881288540D+01 -0.1608541517D+00  0.3164239610D+00
      0.5442492580D+00  0.1143456438D+01  0.7443082909D+00
 SP   1 1.00       0.000000000000
      0.1687144782D+00  0.1000000000D+01  0.1000000000D+01
 D   1 1.00       0.000000000000
      0.8000000000D+00  0.1000000000D+01
 ****
      4 0
 S   6 1.00       0.000000000000
      0.3047524880D+04  0.1834737132D-02
      0.4573695180D+03  0.1403732281D-01
      0.1039486850D+03  0.6884262226D-01
      0.2921015530D+02  0.2321844432D+00
      0.9286662960D+01  0.4679413484D+00
      0.3163926960D+01  0.3623119853D+00
 SP   3 1.00       0.000000000000
      0.7868272350D+01 -0.1193324198D+00  0.6899906659D-01
      0.1881288540D+01 -0.1608541517D+00  0.3164239610D+00
      0.5442492580D+00  0.1143456438D+01  0.7443082909D+00
 SP   1 1.00       0.000000000000
      0.1687144782D+00  0.1000000000D+01  0.1000000000D+01
 D   1 1.00       0.000000000000
      0.8000000000D+00  0.1000000000D+01
 ****
      5 0
 S   3 1.00       0.000000000000
      0.1873113696D+02  0.3349460434D-01
      0.2825394365D+01  0.2347269535D+00
      0.6401216923D+00  0.8137573261D+00
 S   1 1.00       0.000000000000
      0.1612777588D+00  0.1000000000D+01
 ****
      6 0
 S   6 1.00       0.000000000000
      0.3047524880D+04  0.1834737132D-02
      0.4573695180D+03  0.1403732281D-01
      0.1039486850D+03  0.6884262226D-01
      0.2921015530D+02  0.2321844432D+00
      0.9286662960D+01  0.4679413484D+00
      0.3163926960D+01  0.3623119853D+00
 SP   3 1.00       0.000000000000
      0.7868272350D+01 -0.1193324198D+00  0.6899906659D-01
      0.1881288540D+01 -0.1608541517D+00  0.3164239610D+00
      0.5442492580D+00  0.1143456438D+01  0.7443082909D+00
 SP   1 1.00       0.000000000000
      0.1687144782D+00  0.1000000000D+01  0.1000000000D+01
 D   1 1.00       0.000000000000
      0.8000000000D+00  0.1000000000D+01
 ****
      7 0
 S   3 1.00       0.000000000000
      0.1873113696D+02  0.3349460434D-01
      0.2825394365D+01  0.2347269535D+00
      0.6401216923D+00  0.8137573261D+00
 S   1 1.00       0.000000000000
      0.1612777588D+00  0.1000000000D+01
 ****
      8 0
 S   6 1.00       0.000000000000
      0.3047524880D+04  0.1834737132D-02
      0.4573695180D+03  0.1403732281D-01
      0.1039486850D+03  0.6884262226D-01
      0.2921015530D+02  0.2321844432D+00
      0.9286662960D+01  0.4679413484D+00
      0.3163926960D+01  0.3623119853D+00
 SP   3 1.00       0.000000000000
      0.7868272350D+01 -0.1193324198D+00  0.6899906659D-01
      0.1881288540D+01 -0.1608541517D+00  0.3164239610D+00
      0.5442492580D+00  0.1143456438D+01  0.7443082909D+00
 SP   1 1.00       0.000000000000
      0.1687144782D+00  0.1000000000D+01  0.1000000000D+01
 D   1 1.00       0.000000000000
      0.8000000000D+00  0.1000000000D+01
 ****
      9 0
 S   3 1.00       0.000000000000
      0.1873113696D+02  0.3349460434D-01
      0.2825394365D+01  0.2347269535D+00
      0.6401216923D+00  0.8137573261D+00
 S   1 1.00       0.000000000000
      0.1612777588D+00  0.1000000000D+01
 ****
     10 0
 S   6 1.00       0.000000000000
      0.3047524880D+04  0.1834737132D-02
      0.4573695180D+03  0.1403732281D-01
      0.1039486850D+03  0.6884262226D-01
      0.2921015530D+02  0.2321844432D+00
      0.9286662960D+01  0.4679413484D+00
      0.3163926960D+01  0.3623119853D+00
 SP   3 1.00       0.000000000000
      0.7868272350D+01 -0.1193324198D+00  0.6899906659D-01
      0.1881288540D+01 -0.1608541517D+00  0.3164239610D+00
      0.5442492580D+00  0.1143456438D+01  0.7443082909D+00
 SP   1 1.00       0.000000000000
      0.1687144782D+00  0.1000000000D+01  0.1000000000D+01
 D   1 1.00       0.000000000000
      0.8000000000D+00  0.1000000000D+01
 ****
     11 0
 S   3 1.00       0.000000000000
      0.1873113696D+02  0.3349460434D-01
      0.2825394365D+01  0.2347269535D+00
      0.6401216923D+00  0.8137573261D+00
 S   1 1.00       0.000000000000
      0.1612777588D+00  0.1000000000D+01
 ****
     12 0
 S   6 1.00       0.000000000000
      0.3047524880D+04  0.1834737132D-02
      0.4573695180D+03  0.1403732281D-01
      0.1039486850D+03  0.6884262226D-01
      0.2921015530D+02  0.2321844432D+00
      0.9286662960D+01  0.4679413484D+00
      0.3163926960D+01  0.3623119853D+00
 SP   3 1.00       0.000000000000
      0.7868272350D+01 -0.1193324198D+00  0.6899906659D-01
      0.1881288540D+01 -0.1608541517D+00  0.3164239610D+00
      0.5442492580D+00  0.1143456438D+01  0.7443082909D+00
 SP   1 1.00       0.000000000000
      0.1687144782D+00  0.1000000000D+01  0.1000000000D+01
 D   1 1.00       0.000000000000
      0.8000000000D+00  0.1000000000D+01
 ****
     13 0
 S   3 1.00       0.000000000000
      0.1873113696D+02  0.3349460434D-01
      0.2825394365D+01  0.2347269535D+00
      0.6401216923D+00  0.8137573261D+00
 S   1 1.00       0.000000000000
      0.1612777588D+00  0.1000000000D+01
 ****
     14 0
 S   3 1.00       0.000000000000
      0.1873113696D+02  0.3349460434D-01
      0.2825394365D+01  0.2347269535D+00
      0.6401216923D+00  0.8137573261D+00
 S   1 1.00       0.000000000000
      0.1612777588D+00  0.1000000000D+01
 ****
     15 0
 S   6 1.00       0.000000000000
      0.3047524880D+04  0.1834737132D-02
      0.4573695180D+03  0.1403732281D-01
      0.1039486850D+03  0.6884262226D-01
      0.2921015530D+02  0.2321844432D+00
      0.9286662960D+01  0.4679413484D+00
      0.3163926960D+01  0.3623119853D+00
 SP   3 1.00       0.000000000000
      0.7868272350D+01 -0.1193324198D+00  0.6899906659D-01
      0.1881288540D+01 -0.1608541517D+00  0.3164239610D+00
      0.5442492580D+00  0.1143456438D+01  0.7443082909D+00
 SP   1 1.00       0.000000000000
      0.1687144782D+00  0.1000000000D+01  0.1000000000D+01
 D   1 1.00       0.000000000000
      0.8000000000D+00  0.1000000000D+01
 ****
     16 0
 S   6 1.00       0.000000000000
      0.3047524880D+04  0.1834737132D-02
      0.4573695180D+03  0.1403732281D-01
      0.1039486850D+03  0.6884262226D-01
      0.2921015530D+02  0.2321844432D+00
      0.9286662960D+01  0.4679413484D+00
      0.3163926960D+01  0.3623119853D+00
 SP   3 1.00       0.000000000000
      0.7868272350D+01 -0.1193324198D+00  0.6899906659D-01
      0.1881288540D+01 -0.1608541517D+00  0.3164239610D+00
      0.5442492580D+00  0.1143456438D+01  0.7443082909D+00
 SP   1 1.00       0.000000000000
      0.1687144782D+00  0.1000000000D+01  0.1000000000D+01
 D   1 1.00       0.000000000000
      0.8000000000D+00  0.1000000000D+01
 ****
     17 0
 S   3 1.00       0.000000000000
      0.1873113696D+02  0.3349460434D-01
      0.2825394365D+01  0.2347269535D+00
      0.6401216923D+00  0.8137573261D+00
 S   1 1.00       0.000000000000
      0.1612777588D+00  0.1000000000D+01
 ****
     18 0
 S   3 1.00       0.000000000000
      0.1873113696D+02  0.3349460434D-01
      0.2825394365D+01  0.2347269535D+00
      0.6401216923D+00  0.8137573261D+00
 S   1 1.00       0.000000000000
      0.1612777588D+00  0.1000000000D+01
 ****
     19 0
 S   6 1.00       0.000000000000
      0.3047524880D+04  0.1834737132D-02
      0.4573695180D+03  0.1403732281D-01
      0.1039486850D+03  0.6884262226D-01
      0.2921015530D+02  0.2321844432D+00
      0.9286662960D+01  0.4679413484D+00
      0.3163926960D+01  0.3623119853D+00
 SP   3 1.00       0.000000000000
      0.7868272350D+01 -0.1193324198D+00  0.6899906659D-01
      0.1881288540D+01 -0.1608541517D+00  0.3164239610D+00
      0.5442492580D+00  0.1143456438D+01  0.7443082909D+00
 SP   1 1.00       0.000000000000
      0.1687144782D+00  0.1000000000D+01  0.1000000000D+01
 D   1 1.00       0.000000000000
      0.8000000000D+00  0.1000000000D+01
 ****
     20 0
 S   3 1.00       0.000000000000
      0.1873113696D+02  0.3349460434D-01
      0.2825394365D+01  0.2347269535D+00
      0.6401216923D+00  0.8137573261D+00
 S   1 1.00       0.000000000000
      0.1612777588D+00  0.1000000000D+01
 ****
     21 0
 S   3 1.00       0.000000000000
      0.1873113696D+02  0.3349460434D-01
      0.2825394365D+01  0.2347269535D+00
      0.6401216923D+00  0.8137573261D+00
 S   1 1.00       0.000000000000
      0.1612777588D+00  0.1000000000D+01
 ****
     22 0
 S   6 1.00       0.000000000000
      0.3047524880D+04  0.1834737132D-02
      0.4573695180D+03  0.1403732281D-01
      0.1039486850D+03  0.6884262226D-01
      0.2921015530D+02  0.2321844432D+00
      0.9286662960D+01  0.4679413484D+00
      0.3163926960D+01  0.3623119853D+00
 SP   3 1.00       0.000000000000
      0.7868272350D+01 -0.1193324198D+00  0.6899906659D-01
      0.1881288540D+01 -0.1608541517D+00  0.3164239610D+00
      0.5442492580D+00  0.1143456438D+01  0.7443082909D+00
 SP   1 1.00       0.000000000000
      0.1687144782D+00  0.1000000000D+01  0.1000000000D+01
 D   1 1.00       0.000000000000
      0.8000000000D+00  0.1000000000D+01
 ****
     23 0
 S   3 1.00       0.000000000000
      0.1873113696D+02  0.3349460434D-01
      0.2825394365D+01  0.2347269535D+00
      0.6401216923D+00  0.8137573261D+00
 S   1 1.00       0.000000000000
      0.1612777588D+00  0.1000000000D+01
 ****
     24 0
 S   3 1.00       0.000000000000
      0.1873113696D+02  0.3349460434D-01
      0.2825394365D+01  0.2347269535D+00
      0.6401216923D+00  0.8137573261D+00
 S   1 1.00       0.000000000000
      0.1612777588D+00  0.1000000000D+01
 ****
     25 0
 S   6 1.00       0.000000000000
      0.3047524880D+04  0.1834737132D-02
      0.4573695180D+03  0.1403732281D-01
      0.1039486850D+03  0.6884262226D-01
      0.2921015530D+02  0.2321844432D+00
      0.9286662960D+01  0.4679413484D+00
      0.3163926960D+01  0.3623119853D+00
 SP   3 1.00       0.000000000000
      0.7868272350D+01 -0.1193324198D+00  0.6899906659D-01
      0.1881288540D+01 -0.1608541517D+00  0.3164239610D+00
      0.5442492580D+00  0.1143456438D+01  0.7443082909D+00
 SP   1 1.00       0.000000000000
      0.1687144782D+00  0.1000000000D+01  0.1000000000D+01
 D   1 1.00       0.000000000000
      0.8000000000D+00  0.1000000000D+01
 ****
     26 0
 S   3 1.00       0.000000000000
      0.1873113696D+02  0.3349460434D-01
      0.2825394365D+01  0.2347269535D+00
      0.6401216923D+00  0.8137573261D+00
 S   1 1.00       0.000000000000
      0.1612777588D+00  0.1000000000D+01
 ****
     27 0
 S   3 1.00       0.000000000000
      0.1873113696D+02  0.3349460434D-01
      0.2825394365D+01  0.2347269535D+00
      0.6401216923D+00  0.8137573261D+00
 S   1 1.00       0.000000000000
      0.1612777588D+00  0.1000000000D+01
 ****
     28 0
 S   6 1.00       0.000000000000
      0.3047524880D+04  0.1834737132D-02
      0.4573695180D+03  0.1403732281D-01
      0.1039486850D+03  0.6884262226D-01
      0.2921015530D+02  0.2321844432D+00
      0.9286662960D+01  0.4679413484D+00
      0.3163926960D+01  0.3623119853D+00
 SP   3 1.00       0.000000000000
      0.7868272350D+01 -0.1193324198D+00  0.6899906659D-01
      0.1881288540D+01 -0.1608541517D+00  0.3164239610D+00
      0.5442492580D+00  0.1143456438D+01  0.7443082909D+00
 SP   1 1.00       0.000000000000
      0.1687144782D+00  0.1000000000D+01  0.1000000000D+01
 D   1 1.00       0.000000000000
      0.8000000000D+00  0.1000000000D+01
 ****
     29 0
 S   3 1.00       0.000000000000
      0.1873113696D+02  0.3349460434D-01
      0.2825394365D+01  0.2347269535D+00
      0.6401216923D+00  0.8137573261D+00
 S   1 1.00       0.000000000000
      0.1612777588D+00  0.1000000000D+01
 ****
     30 0
 S   6 1.00       0.000000000000
      0.3047524880D+04  0.1834737132D-02
      0.4573695180D+03  0.1403732281D-01
      0.1039486850D+03  0.6884262226D-01
      0.2921015530D+02  0.2321844432D+00
      0.9286662960D+01  0.4679413484D+00
      0.3163926960D+01  0.3623119853D+00
 SP   3 1.00       0.000000000000
      0.7868272350D+01 -0.1193324198D+00  0.6899906659D-01
      0.1881288540D+01 -0.1608541517D+00  0.3164239610D+00
      0.5442492580D+00  0.1143456438D+01  0.7443082909D+00
 SP   1 1.00       0.000000000000
      0.1687144782D+00  0.1000000000D+01  0.1000000000D+01
 D   1 1.00       0.000000000000
      0.8000000000D+00  0.1000000000D+01
 ****
     31 0
 S   3 1.00       0.000000000000
      0.1873113696D+02  0.3349460434D-01
      0.2825394365D+01  0.2347269535D+00
      0.6401216923D+00  0.8137573261D+00
 S   1 1.00       0.000000000000
      0.1612777588D+00  0.1000000000D+01
 ****
     32 0
 S   3 1.00       0.000000000000
      0.1873113696D+02  0.3349460434D-01
      0.2825394365D+01  0.2347269535D+00
      0.6401216923D+00  0.8137573261D+00
 S   1 1.00       0.000000000000
      0.1612777588D+00  0.1000000000D+01
 ****
     33 0
 S   3 1.00       0.000000000000
      0.1873113696D+02  0.3349460434D-01
      0.2825394365D+01  0.2347269535D+00
      0.6401216923D+00  0.8137573261D+00
 S   1 1.00       0.000000000000
      0.1612777588D+00  0.1000000000D+01
 ****
     34 0
 S   6 1.00       0.000000000000
      0.3047524880D+04  0.1834737132D-02
      0.4573695180D+03  0.1403732281D-01
      0.1039486850D+03  0.6884262226D-01
      0.2921015530D+02  0.2321844432D+00
      0.9286662960D+01  0.4679413484D+00
      0.3163926960D+01  0.3623119853D+00
 SP   3 1.00       0.000000000000
      0.7868272350D+01 -0.1193324198D+00  0.6899906659D-01
      0.1881288540D+01 -0.1608541517D+00  0.3164239610D+00
      0.5442492580D+00  0.1143456438D+01  0.7443082909D+00
 SP   1 1.00       0.000000000000
      0.1687144782D+00  0.1000000000D+01  0.1000000000D+01
 D   1 1.00       0.000000000000
      0.8000000000D+00  0.1000000000D+01
 ****
     35 0
 S   6 1.00       0.000000000000
      0.3047524880D+04  0.1834737132D-02
      0.4573695180D+03  0.1403732281D-01
      0.1039486850D+03  0.6884262226D-01
      0.2921015530D+02  0.2321844432D+00
      0.9286662960D+01  0.4679413484D+00
      0.3163926960D+01  0.3623119853D+00
 SP   3 1.00       0.000000000000
      0.7868272350D+01 -0.1193324198D+00  0.6899906659D-01
      0.1881288540D+01 -0.1608541517D+00  0.3164239610D+00
      0.5442492580D+00  0.1143456438D+01  0.7443082909D+00
 SP   1 1.00       0.000000000000
      0.1687144782D+00  0.1000000000D+01  0.1000000000D+01
 D   1 1.00       0.000000000000
      0.8000000000D+00  0.1000000000D+01
 ****
     36 0
 S   3 1.00       0.000000000000
      0.1873113696D+02  0.3349460434D-01
      0.2825394365D+01  0.2347269535D+00
      0.6401216923D+00  0.8137573261D+00
 S   1 1.00       0.000000000000
      0.1612777588D+00  0.1000000000D+01
 ****
     37 0
 S   3 1.00       0.000000000000
      0.1873113696D+02  0.3349460434D-01
      0.2825394365D+01  0.2347269535D+00
      0.6401216923D+00  0.8137573261D+00
 S   1 1.00       0.000000000000
      0.1612777588D+00  0.1000000000D+01
 ****
     38 0
 S   6 1.00       0.000000000000
      0.3047524880D+04  0.1834737132D-02
      0.4573695180D+03  0.1403732281D-01
      0.1039486850D+03  0.6884262226D-01
      0.2921015530D+02  0.2321844432D+00
      0.9286662960D+01  0.4679413484D+00
      0.3163926960D+01  0.3623119853D+00
 SP   3 1.00       0.000000000000
      0.7868272350D+01 -0.1193324198D+00  0.6899906659D-01
      0.1881288540D+01 -0.1608541517D+00  0.3164239610D+00
      0.5442492580D+00  0.1143456438D+01  0.7443082909D+00
 SP   1 1.00       0.000000000000
      0.1687144782D+00  0.1000000000D+01  0.1000000000D+01
 D   1 1.00       0.000000000000
      0.8000000000D+00  0.1000000000D+01
 ****
     39 0
 S   3 1.00       0.000000000000
      0.1873113696D+02  0.3349460434D-01
      0.2825394365D+01  0.2347269535D+00
      0.6401216923D+00  0.8137573261D+00
 S   1 1.00       0.000000000000
      0.1612777588D+00  0.1000000000D+01
 ****
     40 0
 S   6 1.00       0.000000000000
      0.3047524880D+04  0.1834737132D-02
      0.4573695180D+03  0.1403732281D-01
      0.1039486850D+03  0.6884262226D-01
      0.2921015530D+02  0.2321844432D+00
      0.9286662960D+01  0.4679413484D+00
      0.3163926960D+01  0.3623119853D+00
 SP   3 1.00       0.000000000000
      0.7868272350D+01 -0.1193324198D+00  0.6899906659D-01
      0.1881288540D+01 -0.1608541517D+00  0.3164239610D+00
      0.5442492580D+00  0.1143456438D+01  0.7443082909D+00
 SP   1 1.00       0.000000000000
      0.1687144782D+00  0.1000000000D+01  0.1000000000D+01
 D   1 1.00       0.000000000000
      0.8000000000D+00  0.1000000000D+01
 ****
     41 0
 S   3 1.00       0.000000000000
      0.1873113696D+02  0.3349460434D-01
      0.2825394365D+01  0.2347269535D+00
      0.6401216923D+00  0.8137573261D+00
 S   1 1.00       0.000000000000
      0.1612777588D+00  0.1000000000D+01
 ****
     42 0
 S   3 1.00       0.000000000000
      0.1873113696D+02  0.3349460434D-01
      0.2825394365D+01  0.2347269535D+00
      0.6401216923D+00  0.8137573261D+00
 S   1 1.00       0.000000000000
      0.1612777588D+00  0.1000000000D+01
 ****
     43 0
 S   3 1.00       0.000000000000
      0.1873113696D+02  0.3349460434D-01
      0.2825394365D+01  0.2347269535D+00
      0.6401216923D+00  0.8137573261D+00
 S   1 1.00       0.000000000000
      0.1612777588D+00  0.1000000000D+01
 ****
     44 0
 S   6 1.00       0.000000000000
      0.3047524880D+04  0.1834737132D-02
      0.4573695180D+03  0.1403732281D-01
      0.1039486850D+03  0.6884262226D-01
      0.2921015530D+02  0.2321844432D+00
      0.9286662960D+01  0.4679413484D+00
      0.3163926960D+01  0.3623119853D+00
 SP   3 1.00       0.000000000000
      0.7868272350D+01 -0.1193324198D+00  0.6899906659D-01
      0.1881288540D+01 -0.1608541517D+00  0.3164239610D+00
      0.5442492580D+00  0.1143456438D+01  0.7443082909D+00
 SP   1 1.00       0.000000000000
      0.1687144782D+00  0.1000000000D+01  0.1000000000D+01
 D   1 1.00       0.000000000000
      0.8000000000D+00  0.1000000000D+01
 ****
     45 0
 S   3 1.00       0.000000000000
      0.1873113696D+02  0.3349460434D-01
      0.2825394365D+01  0.2347269535D+00
      0.6401216923D+00  0.8137573261D+00
 S   1 1.00       0.000000000000
      0.1612777588D+00  0.1000000000D+01
 ****
     46 0
 S   3 1.00       0.000000000000
      0.1873113696D+02  0.3349460434D-01
      0.2825394365D+01  0.2347269535D+00
      0.6401216923D+00  0.8137573261D+00
 S   1 1.00       0.000000000000
      0.1612777588D+00  0.1000000000D+01
 ****
     47 0
 S   6 1.00       0.000000000000
      0.3047524880D+04  0.1834737132D-02
      0.4573695180D+03  0.1403732281D-01
      0.1039486850D+03  0.6884262226D-01
      0.2921015530D+02  0.2321844432D+00
      0.9286662960D+01  0.4679413484D+00
      0.3163926960D+01  0.3623119853D+00
 SP   3 1.00       0.000000000000
      0.7868272350D+01 -0.1193324198D+00  0.6899906659D-01
      0.1881288540D+01 -0.1608541517D+00  0.3164239610D+00
      0.5442492580D+00  0.1143456438D+01  0.7443082909D+00
 SP   1 1.00       0.000000000000
      0.1687144782D+00  0.1000000000D+01  0.1000000000D+01
 D   1 1.00       0.000000000000
      0.8000000000D+00  0.1000000000D+01
 ****
     48 0
 S   3 1.00       0.000000000000
      0.1873113696D+02  0.3349460434D-01
      0.2825394365D+01  0.2347269535D+00
      0.6401216923D+00  0.8137573261D+00
 S   1 1.00       0.000000000000
      0.1612777588D+00  0.1000000000D+01
 ****
     49 0
 S   3 1.00       0.000000000000
      0.1873113696D+02  0.3349460434D-01
      0.2825394365D+01  0.2347269535D+00
      0.6401216923D+00  0.8137573261D+00
 S   1 1.00       0.000000000000
      0.1612777588D+00  0.1000000000D+01
 ****
     50 0
 S   6 1.00       0.000000000000
      0.3047524880D+04  0.1834737132D-02
      0.4573695180D+03  0.1403732281D-01
      0.1039486850D+03  0.6884262226D-01
      0.2921015530D+02  0.2321844432D+00
      0.9286662960D+01  0.4679413484D+00
      0.3163926960D+01  0.3623119853D+00
 SP   3 1.00       0.000000000000
      0.7868272350D+01 -0.1193324198D+00  0.6899906659D-01
      0.1881288540D+01 -0.1608541517D+00  0.3164239610D+00
      0.5442492580D+00  0.1143456438D+01  0.7443082909D+00
 SP   1 1.00       0.000000000000
      0.1687144782D+00  0.1000000000D+01  0.1000000000D+01
 D   1 1.00       0.000000000000
      0.8000000000D+00  0.1000000000D+01
 ****
     51 0
 S   3 1.00       0.000000000000
      0.1873113696D+02  0.3349460434D-01
      0.2825394365D+01  0.2347269535D+00
      0.6401216923D+00  0.8137573261D+00
 S   1 1.00       0.000000000000
      0.1612777588D+00  0.1000000000D+01
 ****
     52 0
 S   3 1.00       0.000000000000
      0.1873113696D+02  0.3349460434D-01
      0.2825394365D+01  0.2347269535D+00
      0.6401216923D+00  0.8137573261D+00
 S   1 1.00       0.000000000000
      0.1612777588D+00  0.1000000000D+01
 ****
     53 0
 S   6 1.00       0.000000000000
      0.3047524880D+04  0.1834737132D-02
      0.4573695180D+03  0.1403732281D-01
      0.1039486850D+03  0.6884262226D-01
      0.2921015530D+02  0.2321844432D+00
      0.9286662960D+01  0.4679413484D+00
      0.3163926960D+01  0.3623119853D+00
 SP   3 1.00       0.000000000000
      0.7868272350D+01 -0.1193324198D+00  0.6899906659D-01
      0.1881288540D+01 -0.1608541517D+00  0.3164239610D+00
      0.5442492580D+00  0.1143456438D+01  0.7443082909D+00
 SP   1 1.00       0.000000000000
      0.1687144782D+00  0.1000000000D+01  0.1000000000D+01
 D   1 1.00       0.000000000000
      0.8000000000D+00  0.1000000000D+01
 ****
     54 0
 S   3 1.00       0.000000000000
      0.1873113696D+02  0.3349460434D-01
      0.2825394365D+01  0.2347269535D+00
      0.6401216923D+00  0.8137573261D+00
 S   1 1.00       0.000000000000
      0.1612777588D+00  0.1000000000D+01
 ****
     55 0
 S   6 1.00       0.000000000000
      0.3047524880D+04  0.1834737132D-02
      0.4573695180D+03  0.1403732281D-01
      0.1039486850D+03  0.6884262226D-01
      0.2921015530D+02  0.2321844432D+00
      0.9286662960D+01  0.4679413484D+00
      0.3163926960D+01  0.3623119853D+00
 SP   3 1.00       0.000000000000
      0.7868272350D+01 -0.1193324198D+00  0.6899906659D-01
      0.1881288540D+01 -0.1608541517D+00  0.3164239610D+00
      0.5442492580D+00  0.1143456438D+01  0.7443082909D+00
 SP   1 1.00       0.000000000000
      0.1687144782D+00  0.1000000000D+01  0.1000000000D+01
 D   1 1.00       0.000000000000
      0.8000000000D+00  0.1000000000D+01
 ****
     56 0
 S   3 1.00       0.000000000000
      0.1873113696D+02  0.3349460434D-01
      0.2825394365D+01  0.2347269535D+00
      0.6401216923D+00  0.8137573261D+00
 S   1 1.00       0.000000000000
      0.1612777588D+00  0.1000000000D+01
 ****
     57 0
 S   3 1.00       0.000000000000
      0.1873113696D+02  0.3349460434D-01
      0.2825394365D+01  0.2347269535D+00
      0.6401216923D+00  0.8137573261D+00
 S   1 1.00       0.000000000000
      0.1612777588D+00  0.1000000000D+01
 ****
     58 0
 S   3 1.00       0.000000000000
      0.1873113696D+02  0.3349460434D-01
      0.2825394365D+01  0.2347269535D+00
      0.6401216923D+00  0.8137573261D+00
 S   1 1.00       0.000000000000
      0.1612777588D+00  0.1000000000D+01
 ****
     59 0
 S   6 1.00       0.000000000000
      0.3047524880D+04  0.1834737132D-02
      0.4573695180D+03  0.1403732281D-01
      0.1039486850D+03  0.6884262226D-01
      0.2921015530D+02  0.2321844432D+00
      0.9286662960D+01  0.4679413484D+00
      0.3163926960D+01  0.3623119853D+00
 SP   3 1.00       0.000000000000
      0.7868272350D+01 -0.1193324198D+00  0.6899906659D-01
      0.1881288540D+01 -0.1608541517D+00  0.3164239610D+00
      0.5442492580D+00  0.1143456438D+01  0.7443082909D+00
 SP   1 1.00       0.000000000000
      0.1687144782D+00  0.1000000000D+01  0.1000000000D+01
 D   1 1.00       0.000000000000
      0.8000000000D+00  0.1000000000D+01
 ****
     60 0
 S   3 1.00       0.000000000000
      0.1873113696D+02  0.3349460434D-01
      0.2825394365D+01  0.2347269535D+00
      0.6401216923D+00  0.8137573261D+00
 S   1 1.00       0.000000000000
      0.1612777588D+00  0.1000000000D+01
 ****
     61 0
 S   3 1.00       0.000000000000
      0.1873113696D+02  0.3349460434D-01
      0.2825394365D+01  0.2347269535D+00
      0.6401216923D+00  0.8137573261D+00
 S   1 1.00       0.000000000000
      0.1612777588D+00  0.1000000000D+01
 ****
     62 0
 S   6 1.00       0.000000000000
      0.3047524880D+04  0.1834737132D-02
      0.4573695180D+03  0.1403732281D-01
      0.1039486850D+03  0.6884262226D-01
      0.2921015530D+02  0.2321844432D+00
      0.9286662960D+01  0.4679413484D+00
      0.3163926960D+01  0.3623119853D+00
 SP   3 1.00       0.000000000000
      0.7868272350D+01 -0.1193324198D+00  0.6899906659D-01
      0.1881288540D+01 -0.1608541517D+00  0.3164239610D+00
      0.5442492580D+00  0.1143456438D+01  0.7443082909D+00
 SP   1 1.00       0.000000000000
      0.1687144782D+00  0.1000000000D+01  0.1000000000D+01
 D   1 1.00       0.000000000000
      0.8000000000D+00  0.1000000000D+01
 ****
     63 0
 S   3 1.00       0.000000000000
      0.1873113696D+02  0.3349460434D-01
      0.2825394365D+01  0.2347269535D+00
      0.6401216923D+00  0.8137573261D+00
 S   1 1.00       0.000000000000
      0.1612777588D+00  0.1000000000D+01
 ****
     64 0
 S   3 1.00       0.000000000000
      0.1873113696D+02  0.3349460434D-01
      0.2825394365D+01  0.2347269535D+00
      0.6401216923D+00  0.8137573261D+00
 S   1 1.00       0.000000000000
      0.1612777588D+00  0.1000000000D+01
 ****
     65 0
 S   6 1.00       0.000000000000
      0.3047524880D+04  0.1834737132D-02
      0.4573695180D+03  0.1403732281D-01
      0.1039486850D+03  0.6884262226D-01
      0.2921015530D+02  0.2321844432D+00
      0.9286662960D+01  0.4679413484D+00
      0.3163926960D+01  0.3623119853D+00
 SP   3 1.00       0.000000000000
      0.7868272350D+01 -0.1193324198D+00  0.6899906659D-01
      0.1881288540D+01 -0.1608541517D+00  0.3164239610D+00
      0.5442492580D+00  0.1143456438D+01  0.7443082909D+00
 SP   1 1.00       0.000000000000
      0.1687144782D+00  0.1000000000D+01  0.1000000000D+01
 D   1 1.00       0.000000000000
      0.8000000000D+00  0.1000000000D+01
 ****
     66 0
 S   3 1.00       0.000000000000
      0.1873113696D+02  0.3349460434D-01
      0.2825394365D+01  0.2347269535D+00
      0.6401216923D+00  0.8137573261D+00
 S   1 1.00       0.000000000000
      0.1612777588D+00  0.1000000000D+01
 ****
     67 0
 S   6 1.00       0.000000000000
      0.3047524880D+04  0.1834737132D-02
      0.4573695180D+03  0.1403732281D-01
      0.1039486850D+03  0.6884262226D-01
      0.2921015530D+02  0.2321844432D+00
      0.9286662960D+01  0.4679413484D+00
      0.3163926960D+01  0.3623119853D+00
 SP   3 1.00       0.000000000000
      0.7868272350D+01 -0.1193324198D+00  0.6899906659D-01
      0.1881288540D+01 -0.1608541517D+00  0.3164239610D+00
      0.5442492580D+00  0.1143456438D+01  0.7443082909D+00
 SP   1 1.00       0.000000000000
      0.1687144782D+00  0.1000000000D+01  0.1000000000D+01
 D   1 1.00       0.000000000000
      0.8000000000D+00  0.1000000000D+01
 ****
     68 0
 S   3 1.00       0.000000000000
      0.1873113696D+02  0.3349460434D-01
      0.2825394365D+01  0.2347269535D+00
      0.6401216923D+00  0.8137573261D+00
 S   1 1.00       0.000000000000
      0.1612777588D+00  0.1000000000D+01
 ****
     69 0
 S   3 1.00       0.000000000000
      0.1873113696D+02  0.3349460434D-01
      0.2825394365D+01  0.2347269535D+00
      0.6401216923D+00  0.8137573261D+00
 S   1 1.00       0.000000000000
      0.1612777588D+00  0.1000000000D+01
 ****
     70 0
 S   3 1.00       0.000000000000
      0.1873113696D+02  0.3349460434D-01
      0.2825394365D+01  0.2347269535D+00
      0.6401216923D+00  0.8137573261D+00
 S   1 1.00       0.000000000000
      0.1612777588D+00  0.1000000000D+01
 ****
     71 0
 S   6 1.00       0.000000000000
      0.3047524880D+04  0.1834737132D-02
      0.4573695180D+03  0.1403732281D-01
      0.1039486850D+03  0.6884262226D-01
      0.2921015530D+02  0.2321844432D+00
      0.9286662960D+01  0.4679413484D+00
      0.3163926960D+01  0.3623119853D+00
 SP   3 1.00       0.000000000000
      0.7868272350D+01 -0.1193324198D+00  0.6899906659D-01
      0.1881288540D+01 -0.1608541517D+00  0.3164239610D+00
      0.5442492580D+00  0.1143456438D+01  0.7443082909D+00
 SP   1 1.00       0.000000000000
      0.1687144782D+00  0.1000000000D+01  0.1000000000D+01
 D   1 1.00       0.000000000000
      0.8000000000D+00  0.1000000000D+01
 ****
     72 0
 S   3 1.00       0.000000000000
      0.1873113696D+02  0.3349460434D-01
      0.2825394365D+01  0.2347269535D+00
      0.6401216923D+00  0.8137573261D+00
 S   1 1.00       0.000000000000
      0.1612777588D+00  0.1000000000D+01
 ****
     73 0
 S   3 1.00       0.000000000000
      0.1873113696D+02  0.3349460434D-01
      0.2825394365D+01  0.2347269535D+00
      0.6401216923D+00  0.8137573261D+00
 S   1 1.00       0.000000000000
      0.1612777588D+00  0.1000000000D+01
 ****
     74 0
 S   3 1.00       0.000000000000
      0.1873113696D+02  0.3349460434D-01
      0.2825394365D+01  0.2347269535D+00
      0.6401216923D+00  0.8137573261D+00
 S   1 1.00       0.000000000000
      0.1612777588D+00  0.1000000000D+01
 ****

 AO basis set (Overlap normalization):
 Atom O1       Shell     1 S   6     bf    1 -     1          0.802206128890         -6.417362454155         13.696981828285
      0.5484671660D+04  0.1831074430D-02
      0.8252349460D+03  0.1395017220D-01
      0.1880469580D+03  0.6844507810D-01
      0.5296450000D+02  0.2327143360D+00
      0.1689757040D+02  0.4701928980D+00
      0.5799635340D+01  0.3585208530D+00
 Atom O1       Shell     2 SP   3    bf    2 -     5          0.802206128890         -6.417362454155         13.696981828285
      0.1553961625D+02 -0.1107775495D+00  0.7087426823D-01
      0.3599933586D+01 -0.1480262627D+00  0.3397528391D+00
      0.1013761750D+01  0.1130767015D+01  0.7271585773D+00
 Atom O1       Shell     3 SP   1    bf    6 -     9          0.802206128890         -6.417362454155         13.696981828285
      0.2700058226D+00  0.1000000000D+01  0.1000000000D+01
 Atom O1       Shell     4 D   1     bf   10 -    15          0.802206128890         -6.417362454155         13.696981828285
      0.8000000000D+00  0.1000000000D+01
 Atom H2       Shell     5 S   3     bf   16 -    16          0.493583332313         -8.195560578952         13.417799831023
      0.1873113696D+02  0.3349460434D-01
      0.2825394365D+01  0.2347269535D+00
      0.6401216923D+00  0.8137573261D+00
 Atom H2       Shell     6 S   1     bf   17 -    17          0.493583332313         -8.195560578952         13.417799831023
      0.1612777588D+00  0.1000000000D+01
 Atom C3       Shell     7 S   6     bf   18 -    18          2.848161949408          2.837765526602          0.000000000000
      0.3047524880D+04  0.1834737132D-02
      0.4573695180D+03  0.1403732281D-01
      0.1039486850D+03  0.6884262226D-01
      0.2921015530D+02  0.2321844432D+00
      0.9286662960D+01  0.4679413484D+00
      0.3163926960D+01  0.3623119853D+00
 Atom C3       Shell     8 SP   3    bf   19 -    22          2.848161949408          2.837765526602          0.000000000000
      0.7868272350D+01 -0.1193324198D+00  0.6899906659D-01
      0.1881288540D+01 -0.1608541517D+00  0.3164239610D+00
      0.5442492580D+00  0.1143456438D+01  0.7443082909D+00
 Atom C3       Shell     9 SP   1    bf   23 -    26          2.848161949408          2.837765526602          0.000000000000
      0.1687144782D+00  0.1000000000D+01  0.1000000000D+01
 Atom C3       Shell    10 D   1     bf   27 -    32          2.848161949408          2.837765526602          0.000000000000
      0.8000000000D+00  0.1000000000D+01
 Atom C4       Shell    11 S   6     bf   33 -    33          2.086010701295          0.000000000000          0.000000000000
      0.3047524880D+04  0.1834737132D-02
      0.4573695180D+03  0.1403732281D-01
      0.1039486850D+03  0.6884262226D-01
      0.2921015530D+02  0.2321844432D+00
      0.9286662960D+01  0.4679413484D+00
      0.3163926960D+01  0.3623119853D+00
 Atom C4       Shell    12 SP   3    bf   34 -    37          2.086010701295          0.000000000000          0.000000000000
      0.7868272350D+01 -0.1193324198D+00  0.6899906659D-01
      0.1881288540D+01 -0.1608541517D+00  0.3164239610D+00
      0.5442492580D+00  0.1143456438D+01  0.7443082909D+00
 Atom C4       Shell    13 SP   1    bf   38 -    41          2.086010701295          0.000000000000          0.000000000000
      0.1687144782D+00  0.1000000000D+01  0.1000000000D+01
 Atom C4       Shell    14 D   1     bf   42 -    47          2.086010701295          0.000000000000          0.000000000000
      0.8000000000D+00  0.1000000000D+01
 Atom H5       Shell    15 S   3     bf   48 -    48          0.000000000000          0.000000000000          0.000000000000
      0.1873113696D+02  0.3349460434D-01
      0.2825394365D+01  0.2347269535D+00
      0.6401216923D+00  0.8137573261D+00
 Atom H5       Shell    16 S   1     bf   49 -    49          0.000000000000          0.000000000000          0.000000000000
      0.1612777588D+00  0.1000000000D+01
 Atom C6       Shell    17 S   6     bf   50 -    50          2.866923849654         -1.501909884059          2.354407577983
      0.3047524880D+04  0.1834737132D-02
      0.4573695180D+03  0.1403732281D-01
      0.1039486850D+03  0.6884262226D-01
      0.2921015530D+02  0.2321844432D+00
      0.9286662960D+01  0.4679413484D+00
      0.3163926960D+01  0.3623119853D+00
 Atom C6       Shell    18 SP   3    bf   51 -    54          2.866923849654         -1.501909884059          2.354407577983
      0.7868272350D+01 -0.1193324198D+00  0.6899906659D-01
      0.1881288540D+01 -0.1608541517D+00  0.3164239610D+00
      0.5442492580D+00  0.1143456438D+01  0.7443082909D+00
 Atom C6       Shell    19 SP   1    bf   55 -    58          2.866923849654         -1.501909884059          2.354407577983
      0.1687144782D+00  0.1000000000D+01  0.1000000000D+01
 Atom C6       Shell    20 D   1     bf   59 -    64          2.866923849654         -1.501909884059          2.354407577983
      0.8000000000D+00  0.1000000000D+01
 Atom H7       Shell    21 S   3     bf   65 -    65          4.939787291605         -1.535373211112          2.487241303357
      0.1873113696D+02  0.3349460434D-01
      0.2825394365D+01  0.2347269535D+00
      0.6401216923D+00  0.8137573261D+00
 Atom H7       Shell    22 S   1     bf   66 -    66          4.939787291605         -1.535373211112          2.487241303357
      0.1612777588D+00  0.1000000000D+01
 Atom C8       Shell    23 S   6     bf   67 -    67          1.770266471786         -0.228128097810          4.755247503393
      0.3047524880D+04  0.1834737132D-02
      0.4573695180D+03  0.1403732281D-01
      0.1039486850D+03  0.6884262226D-01
      0.2921015530D+02  0.2321844432D+00
      0.9286662960D+01  0.4679413484D+00
      0.3163926960D+01  0.3623119853D+00
 Atom C8       Shell    24 SP   3    bf   68 -    71          1.770266471786         -0.228128097810          4.755247503393
      0.7868272350D+01 -0.1193324198D+00  0.6899906659D-01
      0.1881288540D+01 -0.1608541517D+00  0.3164239610D+00
      0.5442492580D+00  0.1143456438D+01  0.7443082909D+00
 Atom C8       Shell    25 SP   1    bf   72 -    75          1.770266471786         -0.228128097810          4.755247503393
      0.1687144782D+00  0.1000000000D+01  0.1000000000D+01
 Atom C8       Shell    26 D   1     bf   76 -    81          1.770266471786         -0.228128097810          4.755247503393
      0.8000000000D+00  0.1000000000D+01
 Atom H9       Shell    27 S   3     bf   82 -    82         -0.295367633872         -0.464067340796          4.615446282178
      0.1873113696D+02  0.3349460434D-01
      0.2825394365D+01  0.2347269535D+00
      0.6401216923D+00  0.8137573261D+00
 Atom H9       Shell    28 S   1     bf   83 -    83         -0.295367633872         -0.464067340796          4.615446282178
      0.1612777588D+00  0.1000000000D+01
 Atom C10      Shell    29 S   6     bf   84 -    84          1.797005435162          3.652824873449         -2.650143349402
      0.3047524880D+04  0.1834737132D-02
      0.4573695180D+03  0.1403732281D-01
      0.1039486850D+03  0.6884262226D-01
      0.2921015530D+02  0.2321844432D+00
      0.9286662960D+01  0.4679413484D+00
      0.3163926960D+01  0.3623119853D+00
 Atom C10      Shell    30 SP   3    bf   85 -    88          1.797005435162          3.652824873449         -2.650143349402
      0.7868272350D+01 -0.1193324198D+00  0.6899906659D-01
      0.1881288540D+01 -0.1608541517D+00  0.3164239610D+00
      0.5442492580D+00  0.1143456438D+01  0.7443082909D+00
 Atom C10      Shell    31 SP   1    bf   89 -    92          1.797005435162          3.652824873449         -2.650143349402
      0.1687144782D+00  0.1000000000D+01  0.1000000000D+01
 Atom C10      Shell    32 D   1     bf   93 -    98          1.797005435162          3.652824873449         -2.650143349402
      0.8000000000D+00  0.1000000000D+01
 Atom H11      Shell    33 S   3     bf   99 -    99         -0.272325636215          3.749800591917         -2.441136899002
      0.1873113696D+02  0.3349460434D-01
      0.2825394365D+01  0.2347269535D+00
      0.6401216923D+00  0.8137573261D+00
 Atom H11      Shell    34 S   1     bf  100 -   100         -0.272325636215          3.749800591917         -2.441136899002
      0.1612777588D+00  0.1000000000D+01
 Atom C12      Shell    35 S   6     bf  101 -   101          1.567378198713          4.028573085527          2.333622574733
      0.3047524880D+04  0.1834737132D-02
      0.4573695180D+03  0.1403732281D-01
      0.1039486850D+03  0.6884262226D-01
      0.2921015530D+02  0.2321844432D+00
      0.9286662960D+01  0.4679413484D+00
      0.3163926960D+01  0.3623119853D+00
 Atom C12      Shell    36 SP   3    bf  102 -   105          1.567378198713          4.028573085527          2.333622574733
      0.7868272350D+01 -0.1193324198D+00  0.6899906659D-01
      0.1881288540D+01 -0.1608541517D+00  0.3164239610D+00
      0.5442492580D+00  0.1143456438D+01  0.7443082909D+00
 Atom C12      Shell    37 SP   1    bf  106 -   109          1.567378198713          4.028573085527          2.333622574733
      0.1687144782D+00  0.1000000000D+01  0.1000000000D+01
 Atom C12      Shell    38 D   1     bf  110 -   115          1.567378198713          4.028573085527          2.333622574733
      0.8000000000D+00  0.1000000000D+01
 Atom H13      Shell    39 S   3     bf  116 -   116         -0.492754838582          3.947430513052          2.072579623983
      0.1873113696D+02  0.3349460434D-01
      0.2825394365D+01  0.2347269535D+00
      0.6401216923D+00  0.8137573261D+00
 Atom H13      Shell    40 S   1     bf  117 -   117         -0.492754838582          3.947430513052          2.072579623983
      0.1612777588D+00  0.1000000000D+01
 Atom H14      Shell    41 S   3     bf  118 -   118          2.053083980874          6.028303597012          2.541374209187
      0.1873113696D+02  0.3349460434D-01
      0.2825394365D+01  0.2347269535D+00
      0.6401216923D+00  0.8137573261D+00
 Atom H14      Shell    42 S   1     bf  119 -   119          2.053083980874          6.028303597012          2.541374209187
      0.1612777588D+00  0.1000000000D+01
 Atom C15      Shell    43 S   6     bf  120 -   120          2.568289918648         -1.611625909348          7.253675588614
      0.3047524880D+04  0.1834737132D-02
      0.4573695180D+03  0.1403732281D-01
      0.1039486850D+03  0.6884262226D-01
      0.2921015530D+02  0.2321844432D+00
      0.9286662960D+01  0.4679413484D+00
      0.3163926960D+01  0.3623119853D+00
 Atom C15      Shell    44 SP   3    bf  121 -   124          2.568289918648         -1.611625909348          7.253675588614
      0.7868272350D+01 -0.1193324198D+00  0.6899906659D-01
      0.1881288540D+01 -0.1608541517D+00  0.3164239610D+00
      0.5442492580D+00  0.1143456438D+01  0.7443082909D+00
 Atom C15      Shell    45 SP   1    bf  125 -   128          2.568289918648         -1.611625909348          7.253675588614
      0.1687144782D+00  0.1000000000D+01  0.1000000000D+01
 Atom C15      Shell    46 D   1     bf  129 -   134          2.568289918648         -1.611625909348          7.253675588614
      0.8000000000D+00  0.1000000000D+01
 Atom C16      Shell    47 S   6     bf  135 -   135          2.901610698789         -0.965022438061         -2.612145945747
      0.3047524880D+04  0.1834737132D-02
      0.4573695180D+03  0.1403732281D-01
      0.1039486850D+03  0.6884262226D-01
      0.2921015530D+02  0.2321844432D+00
      0.9286662960D+01  0.4679413484D+00
      0.3163926960D+01  0.3623119853D+00
 Atom C16      Shell    48 SP   3    bf  136 -   139          2.901610698789         -0.965022438061         -2.612145945747
      0.7868272350D+01 -0.1193324198D+00  0.6899906659D-01
      0.1881288540D+01 -0.1608541517D+00  0.3164239610D+00
      0.5442492580D+00  0.1143456438D+01  0.7443082909D+00
 Atom C16      Shell    49 SP   1    bf  140 -   143          2.901610698789         -0.965022438061         -2.612145945747
      0.1687144782D+00  0.1000000000D+01  0.1000000000D+01
 Atom C16      Shell    50 D   1     bf  144 -   149          2.901610698789         -0.965022438061         -2.612145945747
      0.8000000000D+00  0.1000000000D+01
 Atom H17      Shell    51 S   3     bf  150 -   150          1.840112374822         -2.638513899191         -3.204682330365
      0.1873113696D+02  0.3349460434D-01
      0.2825394365D+01  0.2347269535D+00
      0.6401216923D+00  0.8137573261D+00
 Atom H17      Shell    52 S   1     bf  151 -   151          1.840112374822         -2.638513899191         -3.204682330365
      0.1612777588D+00  0.1000000000D+01
 Atom H18      Shell    53 S   3     bf  152 -   152          4.904173134960         -1.501720212247         -2.602024874935
      0.1873113696D+02  0.3349460434D-01
      0.2825394365D+01  0.2347269535D+00
      0.6401216923D+00  0.8137573261D+00
 Atom H18      Shell    54 S   1     bf  153 -   153          4.904173134960         -1.501720212247         -2.602024874935
      0.1612777588D+00  0.1000000000D+01
 Atom C19      Shell    55 S   6     bf  154 -   154          2.289875736010          2.646736683411          4.797010205265
      0.3047524880D+04  0.1834737132D-02
      0.4573695180D+03  0.1403732281D-01
      0.1039486850D+03  0.6884262226D-01
      0.2921015530D+02  0.2321844432D+00
      0.9286662960D+01  0.4679413484D+00
      0.3163926960D+01  0.3623119853D+00
 Atom C19      Shell    56 SP   3    bf  155 -   158          2.289875736010          2.646736683411          4.797010205265
      0.7868272350D+01 -0.1193324198D+00  0.6899906659D-01
      0.1881288540D+01 -0.1608541517D+00  0.3164239610D+00
      0.5442492580D+00  0.1143456438D+01  0.7443082909D+00
 Atom C19      Shell    57 SP   1    bf  159 -   162          2.289875736010          2.646736683411          4.797010205265
      0.1687144782D+00  0.1000000000D+01  0.1000000000D+01
 Atom C19      Shell    58 D   1     bf  163 -   168          2.289875736010          2.646736683411          4.797010205265
      0.8000000000D+00  0.1000000000D+01
 Atom H20      Shell    59 S   3     bf  169 -   169          4.293908832647          2.992502462870          5.181453255150
      0.1873113696D+02  0.3349460434D-01
      0.2825394365D+01  0.2347269535D+00
      0.6401216923D+00  0.8137573261D+00
 Atom H20      Shell    60 S   1     bf  170 -   170          4.293908832647          2.992502462870          5.181453255150
      0.1612777588D+00  0.1000000000D+01
 Atom H21      Shell    61 S   3     bf  171 -   171          1.253412012523          3.520004073802          6.362878380518
      0.1873113696D+02  0.3349460434D-01
      0.2825394365D+01  0.2347269535D+00
      0.6401216923D+00  0.8137573261D+00
 Atom H21      Shell    62 S   1     bf  172 -   172          1.253412012523          3.520004073802          6.362878380518
      0.1612777588D+00  0.1000000000D+01
 Atom C22      Shell    63 S   6     bf  173 -   173          2.429977083530          1.331604590223         -4.378072113448
      0.3047524880D+04  0.1834737132D-02
      0.4573695180D+03  0.1403732281D-01
      0.1039486850D+03  0.6884262226D-01
      0.2921015530D+02  0.2321844432D+00
      0.9286662960D+01  0.4679413484D+00
      0.3163926960D+01  0.3623119853D+00
 Atom C22      Shell    64 SP   3    bf  174 -   177          2.429977083530          1.331604590223         -4.378072113448
      0.7868272350D+01 -0.1193324198D+00  0.6899906659D-01
      0.1881288540D+01 -0.1608541517D+00  0.3164239610D+00
      0.5442492580D+00  0.1143456438D+01  0.7443082909D+00
 Atom C22      Shell    65 SP   1    bf  178 -   181          2.429977083530          1.331604590223         -4.378072113448
      0.1687144782D+00  0.1000000000D+01  0.1000000000D+01
 Atom C22      Shell    66 D   1     bf  182 -   187          2.429977083530          1.331604590223         -4.378072113448
      0.8000000000D+00  0.1000000000D+01
 Atom H23      Shell    67 S   3     bf  188 -   188          4.104545197227          1.728487971803         -5.532289321002
      0.1873113696D+02  0.3349460434D-01
      0.2825394365D+01  0.2347269535D+00
      0.6401216923D+00  0.8137573261D+00
 Atom H23      Shell    68 S   1     bf  189 -   189          4.104545197227          1.728487971803         -5.532289321002
      0.1612777588D+00  0.1000000000D+01
 Atom H24      Shell    69 S   3     bf  190 -   190          0.887637302543          0.952952719456         -5.701804860492
      0.1873113696D+02  0.3349460434D-01
      0.2825394365D+01  0.2347269535D+00
      0.6401216923D+00  0.8137573261D+00
 Atom H24      Shell    70 S   1     bf  191 -   191          0.887637302543          0.952952719456         -5.701804860492
      0.1612777588D+00  0.1000000000D+01
 Atom C25      Shell    71 S   6     bf  192 -   192          1.942876948044         -4.250965089736          2.185756720479
      0.3047524880D+04  0.1834737132D-02
      0.4573695180D+03  0.1403732281D-01
      0.1039486850D+03  0.6884262226D-01
      0.2921015530D+02  0.2321844432D+00
      0.9286662960D+01  0.4679413484D+00
      0.3163926960D+01  0.3623119853D+00
 Atom C25      Shell    72 SP   3    bf  193 -   196          1.942876948044         -4.250965089736          2.185756720479
      0.7868272350D+01 -0.1193324198D+00  0.6899906659D-01
      0.1881288540D+01 -0.1608541517D+00  0.3164239610D+00
      0.5442492580D+00  0.1143456438D+01  0.7443082909D+00
 Atom C25      Shell    73 SP   1    bf  197 -   200          1.942876948044         -4.250965089736          2.185756720479
      0.1687144782D+00  0.1000000000D+01  0.1000000000D+01
 Atom C25      Shell    74 D   1     bf  201 -   206          1.942876948044         -4.250965089736          2.185756720479
      0.8000000000D+00  0.1000000000D+01
 Atom H26      Shell    75 S   3     bf  207 -   207          3.088792683183         -5.305497316260          0.814150142913
      0.1873113696D+02  0.3349460434D-01
      0.2825394365D+01  0.2347269535D+00
      0.6401216923D+00  0.8137573261D+00
 Atom H26      Shell    76 S   1     bf  208 -   208          3.088792683183         -5.305497316260          0.814150142913
      0.1612777588D+00  0.1000000000D+01
 Atom H27      Shell    77 S   3     bf  209 -   209          0.003567047048         -4.285812093161          1.423526462916
      0.1873113696D+02  0.3349460434D-01
      0.2825394365D+01  0.2347269535D+00
      0.6401216923D+00  0.8137573261D+00
 Atom H27      Shell    78 S   1     bf  210 -   210          0.003567047048         -4.285812093161          1.423526462916
      0.1612777588D+00  0.1000000000D+01
 Atom C28      Shell    79 S   6     bf  211 -   211          2.641881995873          6.197994106245         -3.835707107281
      0.3047524880D+04  0.1834737132D-02
      0.4573695180D+03  0.1403732281D-01
      0.1039486850D+03  0.6884262226D-01
      0.2921015530D+02  0.2321844432D+00
      0.9286662960D+01  0.4679413484D+00
      0.3163926960D+01  0.3623119853D+00
 Atom C28      Shell    80 SP   3    bf  212 -   215          2.641881995873          6.197994106245         -3.835707107281
      0.7868272350D+01 -0.1193324198D+00  0.6899906659D-01
      0.1881288540D+01 -0.1608541517D+00  0.3164239610D+00
      0.5442492580D+00  0.1143456438D+01  0.7443082909D+00
 Atom C28      Shell    81 SP   1    bf  216 -   219          2.641881995873          6.197994106245         -3.835707107281
      0.1687144782D+00  0.1000000000D+01  0.1000000000D+01
 Atom C28      Shell    82 D   1     bf  220 -   225          2.641881995873          6.197994106245         -3.835707107281
      0.8000000000D+00  0.1000000000D+01
 Atom H29      Shell    83 S   3     bf  226 -   226          4.691004676135          6.085547048749         -4.160185896641
      0.1873113696D+02  0.3349460434D-01
      0.2825394365D+01  0.2347269535D+00
      0.6401216923D+00  0.8137573261D+00
 Atom H29      Shell    84 S   1     bf  227 -   227          4.691004676135          6.085547048749         -4.160185896641
      0.1612777588D+00  0.1000000000D+01
 Atom C30      Shell    85 S   6     bf  228 -   228          5.742927833377          3.219128379582          0.101216528472
      0.3047524880D+04  0.1834737132D-02
      0.4573695180D+03  0.1403732281D-01
      0.1039486850D+03  0.6884262226D-01
      0.2921015530D+02  0.2321844432D+00
      0.9286662960D+01  0.4679413484D+00
      0.3163926960D+01  0.3623119853D+00
 Atom C30      Shell    86 SP   3    bf  229 -   232          5.742927833377          3.219128379582          0.101216528472
      0.7868272350D+01 -0.1193324198D+00  0.6899906659D-01
      0.1881288540D+01 -0.1608541517D+00  0.3164239610D+00
      0.5442492580D+00  0.1143456438D+01  0.7443082909D+00
 Atom C30      Shell    87 SP   1    bf  233 -   236          5.742927833377          3.219128379582          0.101216528472
      0.1687144782D+00  0.1000000000D+01  0.1000000000D+01
 Atom C30      Shell    88 D   1     bf  237 -   242          5.742927833377          3.219128379582          0.101216528472
      0.8000000000D+00  0.1000000000D+01
 Atom H31      Shell    89 S   3     bf  243 -   243          6.210880394410          5.232596444163          0.197326827960
      0.1873113696D+02  0.3349460434D-01
      0.2825394365D+01  0.2347269535D+00
      0.6401216923D+00  0.8137573261D+00
 Atom H31      Shell    90 S   1     bf  244 -   244          6.210880394410          5.232596444163          0.197326827960
      0.1612777588D+00  0.1000000000D+01
 Atom H32      Shell    91 S   3     bf  245 -   245          6.597214020804          2.316196276226          1.750273055916
      0.1873113696D+02  0.3349460434D-01
      0.2825394365D+01  0.2347269535D+00
      0.6401216923D+00  0.8137573261D+00
 Atom H32      Shell    92 S   1     bf  246 -   246          6.597214020804          2.316196276226          1.750273055916
      0.1612777588D+00  0.1000000000D+01
 Atom H33      Shell    93 S   3     bf  247 -   247          6.684737272464          2.449493154578         -1.571202739845
      0.1873113696D+02  0.3349460434D-01
      0.2825394365D+01  0.2347269535D+00
      0.6401216923D+00  0.8137573261D+00
 Atom H33      Shell    94 S   1     bf  248 -   248          6.684737272464          2.449493154578         -1.571202739845
      0.1612777588D+00  0.1000000000D+01
 Atom C34      Shell    95 S   6     bf  249 -   249          2.290936401494         -4.482280191772          6.939312805600
      0.3047524880D+04  0.1834737132D-02
      0.4573695180D+03  0.1403732281D-01
      0.1039486850D+03  0.6884262226D-01
      0.2921015530D+02  0.2321844432D+00
      0.9286662960D+01  0.4679413484D+00
      0.3163926960D+01  0.3623119853D+00
 Atom C34      Shell    96 SP   3    bf  250 -   253          2.290936401494         -4.482280191772          6.939312805600
      0.7868272350D+01 -0.1193324198D+00  0.6899906659D-01
      0.1881288540D+01 -0.1608541517D+00  0.3164239610D+00
      0.5442492580D+00  0.1143456438D+01  0.7443082909D+00
 Atom C34      Shell    97 SP   1    bf  254 -   257          2.290936401494         -4.482280191772          6.939312805600
      0.1687144782D+00  0.1000000000D+01  0.1000000000D+01
 Atom C34      Shell    98 D   1     bf  258 -   263          2.290936401494         -4.482280191772          6.939312805600
      0.8000000000D+00  0.1000000000D+01
 Atom C35      Shell    99 S   6     bf  264 -   264          0.766475035992         -0.748169523504          9.422865439134
      0.3047524880D+04  0.1834737132D-02
      0.4573695180D+03  0.1403732281D-01
      0.1039486850D+03  0.6884262226D-01
      0.2921015530D+02  0.2321844432D+00
      0.9286662960D+01  0.4679413484D+00
      0.3163926960D+01  0.3623119853D+00
 Atom C35      Shell   100 SP   3    bf  265 -   268          0.766475035992         -0.748169523504          9.422865439134
      0.7868272350D+01 -0.1193324198D+00  0.6899906659D-01
      0.1881288540D+01 -0.1608541517D+00  0.3164239610D+00
      0.5442492580D+00  0.1143456438D+01  0.7443082909D+00
 Atom C35      Shell   101 SP   1    bf  269 -   272          0.766475035992         -0.748169523504          9.422865439134
      0.1687144782D+00  0.1000000000D+01  0.1000000000D+01
 Atom C35      Shell   102 D   1     bf  273 -   278          0.766475035992         -0.748169523504          9.422865439134
      0.8000000000D+00  0.1000000000D+01
 Atom H36      Shell   103 S   3     bf  279 -   279         -1.186142240843         -0.858182235796          8.724337849510
      0.1873113696D+02  0.3349460434D-01
      0.2825394365D+01  0.2347269535D+00
      0.6401216923D+00  0.8137573261D+00
 Atom H36      Shell   104 S   1     bf  280 -   280         -1.186142240843         -0.858182235796          8.724337849510
      0.1612777588D+00  0.1000000000D+01
 Atom H37      Shell   105 S   3     bf  281 -   281          1.121338164924          1.243576044693          9.861362574372
      0.1873113696D+02  0.3349460434D-01
      0.2825394365D+01  0.2347269535D+00
      0.6401216923D+00  0.8137573261D+00
 Atom H37      Shell   106 S   1     bf  282 -   282          1.121338164924          1.243576044693          9.861362574372
      0.1612777588D+00  0.1000000000D+01
 Atom C38      Shell   107 S   6     bf  283 -   283          1.985149970459         -5.598347627052          4.684421002569
      0.3047524880D+04  0.1834737132D-02
      0.4573695180D+03  0.1403732281D-01
      0.1039486850D+03  0.6884262226D-01
      0.2921015530D+02  0.2321844432D+00
      0.9286662960D+01  0.4679413484D+00
      0.3163926960D+01  0.3623119853D+00
 Atom C38      Shell   108 SP   3    bf  284 -   287          1.985149970459         -5.598347627052          4.684421002569
      0.7868272350D+01 -0.1193324198D+00  0.6899906659D-01
      0.1881288540D+01 -0.1608541517D+00  0.3164239610D+00
      0.5442492580D+00  0.1143456438D+01  0.7443082909D+00
 Atom C38      Shell   109 SP   1    bf  288 -   291          1.985149970459         -5.598347627052          4.684421002569
      0.1687144782D+00  0.1000000000D+01  0.1000000000D+01
 Atom C38      Shell   110 D   1     bf  292 -   297          1.985149970459         -5.598347627052          4.684421002569
      0.8000000000D+00  0.1000000000D+01
 Atom H39      Shell   111 S   3     bf  298 -   298          1.752328359853         -7.645221268655          4.623056303801
      0.1873113696D+02  0.3349460434D-01
      0.2825394365D+01  0.2347269535D+00
      0.6401216923D+00  0.8137573261D+00
 Atom H39      Shell   112 S   1     bf  299 -   299          1.752328359853         -7.645221268655          4.623056303801
      0.1612777588D+00  0.1000000000D+01
 Atom C40      Shell   113 S   6     bf  300 -   300          5.343397947040         -1.007132282624          7.987074407951
      0.3047524880D+04  0.1834737132D-02
      0.4573695180D+03  0.1403732281D-01
      0.1039486850D+03  0.6884262226D-01
      0.2921015530D+02  0.2321844432D+00
      0.9286662960D+01  0.4679413484D+00
      0.3163926960D+01  0.3623119853D+00
 Atom C40      Shell   114 SP   3    bf  301 -   304          5.343397947040         -1.007132282624          7.987074407951
      0.7868272350D+01 -0.1193324198D+00  0.6899906659D-01
      0.1881288540D+01 -0.1608541517D+00  0.3164239610D+00
      0.5442492580D+00  0.1143456438D+01  0.7443082909D+00
[...]
 1494 Fit       0.003935
 1495 Fit       0.002926
 1496 Fit       0.001295
 1497 Fit       0.001013
 1498 Fit       0.000286
 1499 Fit       0.001938
 1500 Fit       0.001016
 1501 Fit       0.001119
 1502 Fit      -0.001240
 1503 Fit      -0.001501
 1504 Fit      -0.002125
 1505 Fit      -0.001373
 1506 Fit       0.001143
 1507 Fit       0.000391
 1508 Fit      -0.000900
 1509 Fit      -0.001500
 1510 Fit       0.002442
 1511 Fit       0.002488
 1512 Fit       0.001915
 1513 Fit       0.000536
 1514 Fit      -0.000427
 1515 Fit       0.003559
 1516 Fit       0.002987
 1517 Fit       0.001725
 1518 Fit      -0.000077
 1519 Fit       0.002084
 1520 Fit      -0.000450
 1521 Fit      -0.001394
 1522 Fit      -0.001184
 1523 Fit       0.000399
 1524 Fit       0.001377
 1525 Fit      -0.001925
 1526 Fit       0.000194
 1527 Fit       0.001804
 1528 Fit       0.002704
 1529 Fit      -0.001156
 1530 Fit       0.001061
 1531 Fit       0.001947
 1532 Fit      -0.000955
 1533 Fit       0.000967
 1534 Fit      -0.000595
 1535 Fit      -0.001996
 1536 Fit      -0.001768
 1537 Fit      -0.001934
 1538 Fit      -0.002628
 1539 Fit      -0.002519
 1540 Fit       0.003146
 1541 Fit       0.002442
 1542 Fit       0.000847
 1543 Fit      -0.000426
 1544 Fit       0.001326
 1545 Fit       0.001672
 1546 Fit       0.000610
 1547 Fit      -0.001046
 1548 Fit       0.000759
 1549 Fit       0.002127
 1550 Fit       0.000391
 1551 Fit       0.002155
 1552 Fit       0.003273
 1553 Fit       0.000551
 1554 Fit      -0.000516
 1555 Fit       0.001594
 1556 Fit       0.002824
 1557 Fit       0.002682
 1558 Fit       0.000058
 1559 Fit       0.000104
 1560 Fit       0.001494
 1561 Fit      -0.000938
 1562 Fit       0.003040
 1563 Fit       0.001675
 1564 Fit      -0.000007
 1565 Fit      -0.001943
 1566 Fit       0.001062
 1567 Fit       0.002448
 1568 Fit       0.002232
 1569 Fit       0.000798
 1570 Fit      -0.001155
 1571 Fit      -0.001199
 1572 Fit       0.000948
 1573 Fit       0.000635
 1574 Fit      -0.001579
 1575 Fit      -0.001112
 1576 Fit      -0.023824
 1577 Fit      -0.024267
 1578 Fit      -0.026596
 1579 Fit      -0.025797
 1580 Fit      -0.022101
 1581 Fit      -0.016329
 1582 Fit      -0.017934
 1583 Fit      -0.023129
 1584 Fit      -0.024764
 1585 Fit      -0.024436
 1586 Fit      -0.022164
 1587 Fit      -0.018797
 1588 Fit      -0.011810
 1589 Fit      -0.004619
 1590 Fit      -0.009301
 1591 Fit      -0.017582
 1592 Fit      -0.019481
 1593 Fit      -0.015563
 1594 Fit      -0.010154
 1595 Fit      -0.005359
 1596 Fit      -0.014863
 1597 Fit      -0.003226
 1598 Fit      -0.001811
 1599 Fit      -0.003727
 1600 Fit       0.005615
 1601 Fit       0.007984
 1602 Fit       0.004625
 1603 Fit       0.007259
 1604 Fit       0.012802
 1605 Fit       0.014675
 1606 Fit       0.012989
 1607 Fit       0.007484
 1608 Fit       0.012283
 1609 Fit       0.016719
 1610 Fit       0.018241
 1611 Fit       0.016605
 1612 Fit       0.011444
 1613 Fit       0.018111
 1614 Fit       0.003764
 1615 Fit       0.003806
 1616 Fit       0.003634
 1617 Fit       0.003702
 1618 Fit       0.003184
 1619 Fit      -0.003026
 1620 Fit       0.003055
 1621 Fit       0.000432
 1622 Fit       0.002151
 1623 Fit       0.002672
 1624 Fit       0.003030
 1625 Fit       0.001643
 1626 Fit       0.003228
 1627 Fit       0.003052
 1628 Fit       0.001986
 1629 Fit       0.003031
 1630 Fit       0.003377
 1631 Fit       0.003687
 1632 Fit       0.003067
 1633 Fit       0.002905
 1634 Fit       0.002917
 1635 Fit       0.002082
 1636 Fit       0.000017
 1637 Fit       0.000168
 1638 Fit      -0.000856
 1639 Fit       0.000299
 1640 Fit       0.001495
 1641 Fit       0.002292
 1642 Fit       0.000199
 1643 Fit       0.001660
 1644 Fit       0.002649
 1645 Fit       0.003265
 1646 Fit       0.002312
 1647 Fit       0.003216
 1648 Fit       0.003818
 1649 Fit       0.002362
 1650 Fit       0.002390
 1651 Fit       0.001505
 1652 Fit       0.000448
 1653 Fit       0.000689
 1654 Fit      -0.000369
 1655 Fit       0.001321
 1656 Fit       0.000437
 1657 Fit      -0.000231
 1658 Fit       0.000184
 1659 Fit       0.003077
 1660 Fit       0.003454
 1661 Fit       0.003475
 1662 Fit       0.003108
 1663 Fit       0.002397
 1664 Fit       0.002954
 1665 Fit       0.002978
 1666 Fit       0.002409
 1667 Fit       0.001102
 1668 Fit       0.001694
 1669 Fit       0.000360
 1670 Fit       0.003044
 1671 Fit       0.002426
 1672 Fit       0.002845
 1673 Fit       0.003585
 1674 Fit       0.001360
 1675 Fit       0.002020
 1676 Fit       0.002802
 1677 Fit       0.003051
 1678 Fit       0.000671
 1679 Fit       0.001903
 1680 Fit       0.001218
 1681 Fit       0.002087
 1682 Fit       0.002629
 1683 Fit       0.002241
 1684 Fit       0.001746
 1685 Fit       0.002174
 1686 Fit       0.002579
 1687 Fit       0.002756
 1688 Fit       0.002192
 1689 Fit       0.001434
 1690 Fit       0.001613
 1691 Fit       0.001736
 1692 Fit       0.001812
 1693 Fit       0.001589
 1694 Fit       0.000230
 1695 Fit      -0.000287
 1696 Fit       0.000247
 1697 Fit       0.003990
 1698 Fit       0.003312
 1699 Fit       0.000630
 1700 Fit       0.002427
 1701 Fit       0.001311
 1702 Fit       0.002647
 1703 Fit       0.002877
 1704 Fit       0.002623
 1705 Fit       0.002989
 1706 Fit       0.002847
 1707 Fit       0.001951
 1708 Fit       0.002835
 1709 Fit       0.002585
 1710 Fit       0.001467
 1711 Fit       0.002391
 1712 Fit       0.001957
 1713 Fit       0.000654
 1714 Fit       0.001860
 1715 Fit       0.003026
 1716 Fit       0.002665
 1717 Fit      -0.000439
 1718 Fit       0.000418
 1719 Fit      -0.000884
 1720 Fit       0.001935
 1721 Fit       0.003869
 1722 Fit       0.003460
 1723 Fit       0.002594
 1724 Fit       0.001942
 1725 Fit       0.002657
 1726 Fit       0.003270
 1727 Fit       0.003292
 1728 Fit       0.002833
 1729 Fit       0.002575
 1730 Fit       0.002856
 1731 Fit       0.001826
 1732 Fit       0.001215
 1733 Fit       0.003900
 1734 Fit       0.003325
 1735 Fit       0.002895
 1736 Fit       0.002642
 1737 Fit       0.003852
 1738 Fit       0.003530
 1739 Fit       0.002971
 1740 Fit       0.003124
 1741 Fit       0.001875
 1742 Fit       0.000077
 1743 Fit      -0.000332
 1744 Fit      -0.000370
 1745 Fit       0.000575
 1746 Fit      -0.000099
 1747 Fit      -0.000123
 1748 Fit       0.000998
 1749 Fit       0.002028
 1750 Fit       0.001315
 1751 Fit       0.002880
 1752 Fit       0.001036
 1753 Fit       0.002489
 1754 Fit       0.001219
 1755 Fit       0.002449
 1756 Fit       0.002215
 1757 Fit       0.002205
 1758 Fit       0.001559
 1759 Fit       0.001022
 1760 Fit       0.002360
 1761 Fit       0.002355
 1762 Fit       0.001489
 1763 Fit       0.000859
 1764 Fit       0.003573
 1765 Fit       0.002383
 1766 Fit       0.003031
 1767 Fit       0.002769
 1768 Fit       0.003873
 1769 Fit       0.004511
 1770 Fit      -0.007959
 1771 Fit      -0.000109
 1772 Fit       0.000470
 1773 Fit       0.000594
 1774 Fit       0.001286
 1775 Fit       0.001871
 1776 Fit       0.002516
 1777 Fit       0.001515
 1778 Fit       0.002224
 1779 Fit       0.002641
 1780 Fit       0.002498
 1781 Fit       0.002414
 1782 Fit      -0.001611
 1783 Fit      -0.000712
 1784 Fit      -0.000584
 1785 Fit       0.001103
 1786 Fit       0.001831
 1787 Fit       0.001708
 1788 Fit       0.000761
 1789 Fit       0.003453
 1790 Fit       0.003395
 1791 Fit       0.003129
 1792 Fit       0.001856
 1793 Fit      -0.003591
 1794 Fit      -0.002477
 1795 Fit       0.000969
 1796 Fit      -0.003298
 1797 Fit      -0.007086
 1798 Fit      -0.004758
 1799 Fit      -0.001040
 1800 Fit       0.001129
 1801 Fit      -0.001856
 1802 Fit      -0.004679
 1803 Fit       0.002498
 1804 Fit       0.001271
 1805 Fit       0.003735
 1806 Fit       0.007196
 1807 Fit       0.008260
 1808 Fit       0.006880
 1809 Fit       0.003221
 1810 Fit       0.003118
 1811 Fit       0.005662
 1812 Fit       0.006559
 1813 Fit       0.005659
 1814 Fit       0.003044
 1815 Fit       0.004718
 1816 Fit       0.005402
 1817 Fit       0.004406
 1818 Fit      -0.001545
 1819 Fit      -0.001692
 1820 Fit      -0.001527
 1821 Fit      -0.001624
 1822 Fit      -0.001206
 1823 Fit      -0.001666
 1824 Fit      -0.000078
 1825 Fit       0.000996
 1826 Fit      -0.005802
 1827 Fit      -0.000017
 1828 Fit       0.000701
 1829 Fit       0.000066
 1830 Fit       0.001573
 1831 Fit       0.002533
 1832 Fit       0.000183
 1833 Fit       0.001842
 1834 Fit       0.002769
 1835 Fit       0.002999
 1836 Fit       0.000775
 1837 Fit       0.002532
 1838 Fit      -0.001664
 1839 Fit      -0.001445
 1840 Fit      -0.003538
 1841 Fit      -0.001056
 1842 Fit      -0.001605
 1843 Fit      -0.000646
 1844 Fit      -0.001395
 1845 Fit      -0.000716
 1846 Fit      -0.001931
 1847 Fit      -0.000766
 1848 Fit      -0.001291
 1849 Fit       0.001239
 1850 Fit       0.001609
 1851 Fit       0.002429
 1852 Fit      -0.001776
 1853 Fit       0.000384
 1854 Fit       0.003163
 1855 Fit       0.001861
 1856 Fit      -0.000847
 1857 Fit      -0.001754
 1858 Fit      -0.006296
 1859 Fit       0.010650
 1860 Fit       0.016602
 1861 Fit       0.013929
 1862 Fit       0.009548
 1863 Fit       0.004589
 1864 Fit       0.008672
 1865 Fit       0.010651
 1866 Fit       0.010153
 1867 Fit       0.007669
 1868 Fit       0.003855
 1869 Fit      -0.013018
 1870 Fit      -0.003209
 1871 Fit      -0.004354
 1872 Fit      -0.004413
 1873 Fit      -0.000156
 1874 Fit      -0.000919
 1875 Fit      -0.001050
 1876 Fit      -0.001005
 1877 Fit      -0.000909
 1878 Fit      -0.001295
 1879 Fit      -0.020394
 1880 Fit      -0.011652
 1881 Fit      -0.006243
 1882 Fit      -0.002452
 1883 Fit      -0.017349
 1884 Fit      -0.011624
 1885 Fit      -0.008555
 1886 Fit      -0.006263
 1887 Fit      -0.004132
 1888 Fit      -0.004012
 1889 Fit      -0.013691
 1890 Fit      -0.001563
 1891 Fit      -0.001330
 1892 Fit      -0.001060
 1893 Fit      -0.004436
 1894 Fit      -0.013970
 1895 Fit      -0.008697
 1896 Fit      -0.006537
 1897 Fit      -0.009991
 1898 Fit      -0.004832
 1899 Fit      -0.003052
 1900 Fit      -0.002727
 1901 Fit      -0.004260
 1902 Fit      -0.009251
 1903 Fit      -0.000782
 1904 Fit      -0.000716
 1905 Fit      -0.001224
 1906 Fit      -0.002956
 1907 Fit      -0.007259
 1908 Fit       0.000086
 1909 Fit      -0.000304
 1910 Fit       0.000372
 1911 Fit       0.001167
 1912 Fit       0.001029
 1913 Fit       0.002028
 1914 Fit       0.001910
 1915 Fit       0.001397
 1916 Fit       0.002693
 1917 Fit       0.000593
 1918 Fit       0.001750
 1919 Fit       0.002326
 1920 Fit       0.002368
 1921 Fit      -0.000149
 1922 Fit       0.001119
 1923 Fit       0.001632
 1924 Fit       0.001505
 1925 Fit       0.001147
 1926 Fit       0.000702
 1927 Fit       0.000761
 1928 Fit       0.000287
 1929 Fit      -0.008729
 1930 Fit      -0.005238
 1931 Fit      -0.004416
 1932 Fit       0.000089
 1933 Fit       0.000485
 1934 Fit       0.002364
 1935 Fit       0.007538
 1936 Fit       0.002420
 1937 Fit       0.002589
 1938 Fit       0.003953
 1939 Fit       0.007110
 1940 Fit       0.013213
 1941 Fit       0.002082
 1942 Fit       0.002504
 1943 Fit       0.004039
 1944 Fit      -0.003067
 1945 Fit      -0.000777
 1946 Fit      -0.001041
 1947 Fit      -0.000709
 1948 Fit      -0.001303
 1949 Fit      -0.001422
 1950 Fit       0.001262
 1951 Fit       0.000226
 1952 Fit      -0.000926
 1953 Fit      -0.001077
 1954 Fit      -0.000499
 1955 Fit      -0.000782
 1956 Fit      -0.000862
 1957 Fit      -0.000073
 1958 Fit       0.000929
 1959 Fit       0.001089
 1960 Fit       0.000059
 1961 Fit       0.001331
 1962 Fit       0.002164
 1963 Fit       0.002635
 1964 Fit      -0.000043
 1965 Fit       0.001214
 1966 Fit       0.002288
 1967 Fit       0.003109
 1968 Fit      -0.000415
 1969 Fit       0.000667
 1970 Fit       0.000824
 1971 Fit       0.000905
 1972 Fit       0.000424
 1973 Fit      -0.000646
 1974 Fit       0.001432
 1975 Fit       0.001980
 1976 Fit       0.001963
 1977 Fit       0.001133
 1978 Fit       0.003229
 1979 Fit       0.003024
 1980 Fit       0.001455
 1981 Fit       0.000093
 1982 Fit       0.002342
 1983 Fit       0.000673
 1984 Fit      -0.001153
 1985 Fit      -0.000412
 1986 Fit      -0.000443
 1987 Fit      -0.001063
 1988 Fit      -0.000768
 1989 Fit       0.000019
 1990 Fit       0.000771
 1991 Fit       0.001131
 1992 Fit      -0.000110
 1993 Fit       0.000389
 1994 Fit       0.001187
 1995 Fit       0.001959
 1996 Fit       0.000497
 1997 Fit       0.001496
 1998 Fit       0.000637
 1999 Fit       0.000990
 2000 Fit       0.001656
 2001 Fit       0.001474
 2002 Fit       0.000848
 2003 Fit       0.000103
 2004 Fit       0.000610
 2005 Fit       0.000480
 2006 Fit      -0.000071
 2007 Fit      -0.000784
 2008 Fit      -0.000412
 2009 Fit       0.001025
 2010 Fit      -0.001655
 2011 Fit       0.002649
 2012 Fit       0.002892
 2013 Fit       0.001633
 2014 Fit       0.000943
 2015 Fit       0.000503
 2016 Fit      -0.000391
 2017 Fit      -0.000627
 2018 Fit      -0.000427
 2019 Fit       0.000260
 2020 Fit       0.000493
 2021 Fit       0.000978
 2022 Fit       0.001269
 2023 Fit       0.001108
 2024 Fit       0.000285
 2025 Fit       0.002100
 2026 Fit       0.001749
 2027 Fit       0.000882
 2028 Fit       0.003315
 2029 Fit       0.002593
 2030 Fit       0.001544
 2031 Fit       0.002095
 2032 Fit      -0.001488
 2033 Fit       0.000839
 2034 Fit      -0.000103
 2035 Fit      -0.001634
 2036 Fit      -0.001781
 2037 Fit      -0.001693
 2038 Fit      -0.001275
 2039 Fit      -0.001972
 2040 Fit      -0.002043
 2041 Fit      -0.001736
 2042 Fit      -0.001476
 2043 Fit      -0.001466
 2044 Fit       0.003337
 2045 Fit       0.002501
 2046 Fit       0.002518
 2047 Fit       0.002606
 2048 Fit       0.001443
 2049 Fit       0.001251
 2050 Fit       0.000857
 2051 Fit       0.002800
 2052 Fit       0.001636
 2053 Fit       0.001428
 2054 Fit      -0.000131
 2055 Fit      -0.000317
 2056 Fit      -0.000737
 2057 Fit      -0.000159
 2058 Fit      -0.000151
 2059 Fit       0.001907
 2060 Fit       0.001601
 2061 Fit       0.000926
 2062 Fit      -0.000188
 2063 Fit      -0.000849
 2064 Fit       0.002677
 2065 Fit       0.002424
 2066 Fit       0.001811
 2067 Fit       0.000687
 2068 Fit      -0.000272
 2069 Fit       0.003116
 2070 Fit       0.002366
 2071 Fit       0.001321
 2072 Fit      -0.000116
 2073 Fit       0.001474
 2074 Fit      -0.000394
 2075 Fit      -0.001592
 2076 Fit      -0.000526
 2077 Fit       0.000183
 2078 Fit      -0.000717
 2079 Fit       0.000518
 2080 Fit       0.001399
 2081 Fit       0.002150
 2082 Fit      -0.001351
 2083 Fit       0.000124
 2084 Fit       0.001343
 2085 Fit       0.002136
 2086 Fit      -0.000898
 2087 Fit       0.000621
 2088 Fit      -0.000824
 2089 Fit       0.000408
 2090 Fit       0.001063
 2091 Fit      -0.000100
 2092 Fit      -0.000692
 2093 Fit      -0.000735
 2094 Fit      -0.001453
 2095 Fit      -0.001421
 2096 Fit      -0.001318
 2097 Fit      -0.001461
 2098 Fit      -0.001850
 2099 Fit      -0.001480
 2100 Fit      -0.001733
 2101 Fit       0.002278
 2102 Fit       0.002121
 2103 Fit       0.001110
 2104 Fit       0.002034
 2105 Fit       0.002240
 2106 Fit       0.002008
 2107 Fit       0.001225
 2108 Fit      -0.000051
 2109 Fit       0.000487
 2110 Fit       0.000773
 2111 Fit       0.000078
 2112 Fit       0.000757
 2113 Fit       0.001908
 2114 Fit      -0.000321
 2115 Fit       0.001036
 2116 Fit       0.002151
 2117 Fit       0.002779
 2118 Fit       0.000297
 2119 Fit      -0.000281
 2120 Fit       0.001188
 2121 Fit       0.002030
 2122 Fit       0.001838
 2123 Fit      -0.000085
 2124 Fit      -0.000044
 2125 Fit       0.000887
 2126 Fit      -0.000790
 2127 Fit       0.002422
 2128 Fit       0.002416
 2129 Fit       0.001782
 2130 Fit       0.000659
 2131 Fit      -0.000337
 2132 Fit      -0.001326
 2133 Fit       0.000610
 2134 Fit       0.001656
 2135 Fit       0.001550
 2136 Fit       0.000565
 2137 Fit      -0.000805
 2138 Fit      -0.000924
 2139 Fit       0.000470
 2140 Fit       0.000266
 2141 Fit      -0.001215
 2142 Fit      -0.000930
 -----------------------------------------------------------------
 Leave Link  602 at Tue Mar 21 13:11:22 2017, MaxMem=    33554432 cpu:         3.2
 (Enter /home/michal/g09/l9999.exe)

 Test job not archived.
 1\1\GINC-LINUX\SP\RHF\6-31G(d)\C27H46O1\MICHAL\21-Mar-2017\0\\#P HF/6-
 31G* SCF(Conver=6) NoSymm Test Pop=mk IOp(6/33=2) GFInput GFPrint\\MEP
  - Input generated by R.E.D.-III.x MOLECULE\\0,1\O,0,0.4245092,-3.3959
 2195,7.24813061\H,0,0.26119305,-4.33690387,7.10039386\C,0,1.50718239,1
 .50168084,0.\C,0,1.10386932,0.,0.\H,0,0.,0.,0.\C,0,1.51711076,-0.79477
 648,1.24589883\H,0,2.61402285,-0.81248451,1.31619141\C,0,0.93678467,-0
 .12072019,2.5163686\H,0,-0.15630182,-0.24557386,2.44238898\C,0,0.95093
 432,1.93299167,-1.40239546\H,0,-0.14410852,1.98430901,-1.29179401\C,0,
 0.82942082,2.13182906,1.23489988\H,0,-0.26075463,2.08889026,1.0967619\
 H,0,1.08644525,3.19004087,1.34483731\C,0,1.35908049,-0.8528357,3.83847
 98\C,0,1.53546625,-0.51066788,-1.3822881\H,0,0.97374553,-1.39624142,-1
 .69584485\H,0,2.59517665,-0.79467611,-1.37693226\C,0,1.21175005,1.4005
 9273,2.53846847\H,0,2.27223869,1.5835641,2.74190697\H,0,0.66327707,1.8
 6270593,3.36709022\C,0,1.28588849,0.7046548,-2.31677598\H,0,2.17203177
 ,0.91467644,-2.92756142\H,0,0.46971743,0.50428086,-3.01726518\C,0,1.02
 81262,-2.24951384,1.15665264\H,0,1.63451869,-2.80754826,0.4308297\H,0,
 0.0018876,-2.26795408,0.75329776\C,0,1.39802374,3.27983722,-2.02976878
 \H,0,2.48237276,3.2203328,-2.20147556\C,0,3.03902652,1.70348937,0.0535
 6148\H,0,3.28665635,2.76897078,0.10442086\H,0,3.4910953,1.22567828,0.9
 2620461\H,0,3.53741061,1.29621595,-0.83144468\C,0,1.21231133,-2.371920
 52,3.67212618\C,0,0.40560112,-0.39591426,4.98636563\H,0,-0.62767944,-0
 .45413048,4.61672075\H,0,0.5933866,0.6580721,5.21840832\C,0,1.05049612
 ,-2.96251797,2.47888883\H,0,0.92729223,-4.04567685,2.44641603\C,0,2.82
 760441,-0.53295145,4.22657774\H,0,2.94238189,0.51178665,4.53221805\H,0
 ,3.16535015,-1.15057618,5.06247746\H,0,3.50749859,-0.72268956,3.390246
 22\C,0,1.25704235,-3.20187478,4.94171395\H,0,1.04995327,-4.25226839,4.
 69952435\H,0,2.25952322,-3.17296969,5.3917028\C,0,0.50842062,-1.217918
 5,6.27938711\H,0,1.49566447,-1.10434333,6.74435595\H,0,-0.22545634,-0.
 85962603,7.01022496\C,0,0.70973235,3.46943733,-3.40610748\H,0,0.883346
 19,2.57919827,-4.01978524\H,0,-0.37747768,3.51072556,-3.24168763\C,0,0
 .27193858,-2.69751783,6.00619899\H,0,-0.75709015,-2.83229395,5.6337718
 2\C,0,1.12851199,4.49241294,-1.12245897\H,0,0.0651121,4.5583849,-0.859
 45483\H,0,1.40470116,5.42822994,-1.61742922\H,0,1.69918677,4.44534711,
 -0.19265895\C,0,1.11709676,4.71133003,-4.22439123\H,0,0.52520667,4.712
 09053,-5.14863271\H,0,0.81846317,5.62287966,-3.69250756\C,0,2.61231976
 ,4.82954234,-4.57609179\H,0,3.19491042,4.9318891,-3.65044348\H,0,2.763
 02174,5.76954511,-5.12748173\C,0,3.22031146,3.68093196,-5.40879655\H,0
 ,3.08093311,2.741762,-4.85412777\C,0,4.73305965,3.89312631,-5.5809057\
 H,0,5.23919339,3.96840407,-4.61152281\H,0,5.19114093,3.06598848,-6.135
 22793\H,0,4.93736928,4.81811533,-6.13537354\C,0,2.53950962,3.52313949,
 -6.77780321\H,0,1.47413783,3.28875323,-6.6853453\H,0,3.00500323,2.7164
 9611,-7.35552847\H,0,2.62848444,4.44638223,-7.36515658\\Version=EM64L-
 G09RevD.01\HF=-1124.0775214\RMSD=4.543e-07\Dipole=-0.1414839,-0.175796
 8,-0.6303868\Quadrupole=3.2765548,9.1755945,-12.4521493,1.11354,-1.746
 6598,1.3143009\PG=C01 [X(C27H46O1)]\\@


 THERE IS MUCH PLEASURE TO BE GAINED FROM USELESS KNOWLEDGE

                                       -- BERTRAND RUSSELL
 Job cpu time:       0 days  0 hours 10 minutes 30.1 seconds.
 File lengths (MBytes):  RWF=    142 Int=      0 D2E=      0 Chk=     10 Scr=      1
 Normal termination of Gaussian 09 at Tue Mar 21 13:11:23 2017.
