 Entering Gaussian System, Link 0=/home/michal/g09/g09
 Input=JOB2-gau_m1-11-4.com
 Output=JOB2-gau_m1-11-4.log
 Initial command:
 /home/michal/g09/l1.exe "/home/michal/gauss_scratch/Gau-17313.inp" -scrdir="/home/michal/gauss_scratch/"
 Entering Link 1 = /home/michal/g09/l1.exe PID=     17314.
  
 Copyright (c) 1988,1990,1992,1993,1995,1998,2003,2009,2013,
            Gaussian, Inc.  All Rights Reserved.
  
 This is part of the Gaussian(R) 09 program.  It is based on
 the Gaussian(R) 03 system (copyright 2003, Gaussian, Inc.),
 the Gaussian(R) 98 system (copyright 1998, Gaussian, Inc.),
 the Gaussian(R) 94 system (copyright 1995, Gaussian, Inc.),
 the Gaussian 92(TM) system (copyright 1992, Gaussian, Inc.),
 the Gaussian 90(TM) system (copyright 1990, Gaussian, Inc.),
 the Gaussian 88(TM) system (copyright 1988, Gaussian, Inc.),
 the Gaussian 86(TM) system (copyright 1986, Carnegie Mellon
 University), and the Gaussian 82(TM) system (copyright 1983,
 Carnegie Mellon University). Gaussian is a federally registered
 trademark of Gaussian, Inc.
  
 This software contains proprietary and confidential information,
 including trade secrets, belonging to Gaussian, Inc.
  
 This software is provided under written license and may be
 used, copied, transmitted, or stored only in accord with that
 written license.
  
 The following legend is applicable only to US Government
 contracts under FAR:
  
                    RESTRICTED RIGHTS LEGEND
  
 Use, reproduction and disclosure by the US Government is
 subject to restrictions as set forth in subparagraphs (a)
 and (c) of the Commercial Computer Software - Restricted
 Rights clause in FAR 52.227-19.
  
 Gaussian, Inc.
 340 Quinnipiac St., Bldg. 40, Wallingford CT 06492
  
  
 ---------------------------------------------------------------
 Warning -- This program may not be used in any manner that
 competes with the business of Gaussian, Inc. or will provide
 assistance to any competitor of Gaussian, Inc.  The licensee
 of this program is prohibited from giving any competitor of
 Gaussian, Inc. access to this program.  By using this program,
 the user acknowledges that Gaussian, Inc. is engaged in the
 business of creating and licensing software in the field of
 computational chemistry and represents and warrants to the
 licensee that it is not a competitor of Gaussian, Inc. and that
 it will not use this program in any manner prohibited above.
 ---------------------------------------------------------------
  

 Cite this work as:
 Gaussian 09, Revision D.01,
 M. J. Frisch, G. W. Trucks, H. B. Schlegel, G. E. Scuseria, 
 M. A. Robb, J. R. Cheeseman, G. Scalmani, V. Barone, B. Mennucci, 
 G. A. Petersson, H. Nakatsuji, M. Caricato, X. Li, H. P. Hratchian, 
 A. F. Izmaylov, J. Bloino, G. Zheng, J. L. Sonnenberg, M. Hada, 
 M. Ehara, K. Toyota, R. Fukuda, J. Hasegawa, M. Ishida, T. Nakajima, 
 Y. Honda, O. Kitao, H. Nakai, T. Vreven, J. A. Montgomery, Jr., 
 J. E. Peralta, F. Ogliaro, M. Bearpark, J. J. Heyd, E. Brothers, 
 K. N. Kudin, V. N. Staroverov, T. Keith, R. Kobayashi, J. Normand, 
 K. Raghavachari, A. Rendell, J. C. Burant, S. S. Iyengar, J. Tomasi, 
 M. Cossi, N. Rega, J. M. Millam, M. Klene, J. E. Knox, J. B. Cross, 
 V. Bakken, C. Adamo, J. Jaramillo, R. Gomperts, R. E. Stratmann, 
 O. Yazyev, A. J. Austin, R. Cammi, C. Pomelli, J. W. Ochterski, 
 R. L. Martin, K. Morokuma, V. G. Zakrzewski, G. A. Voth, 
 P. Salvador, J. J. Dannenberg, S. Dapprich, A. D. Daniels, 
 O. Farkas, J. B. Foresman, J. V. Ortiz, J. Cioslowski, 
 and D. J. Fox, Gaussian, Inc., Wallingford CT, 2013.
 
 ******************************************
 Gaussian 09:  EM64L-G09RevD.01 24-Apr-2013
                21-Mar-2017 
 ******************************************
 %Mem=256MB
 %NProc=12
 Will use up to   12 processors via shared memory.
 ----------------------------------------------------------------------
 #P HF/6-31G* SCF(Conver=6) NoSymm Test Pop=mk IOp(6/33=2) GFInput GFPr
 int
 ----------------------------------------------------------------------
 1/38=1/1;
 2/12=2,15=1,17=6,18=5,40=1/2;
 3/5=1,6=6,7=1,11=9,16=1,24=110,25=1,30=1/1,2,3;
 4//1;
 5/5=2,6=6,38=5/2;
 6/7=2,8=2,9=2,10=2,15=8,20=1,28=1,33=2/1,2;
 99/5=1,9=1/99;
 Leave Link    1 at Tue Mar 21 12:25:46 2017, MaxMem=    33554432 cpu:         0.6
 (Enter /home/michal/g09/l101.exe)
 ----------------------------------------------
 MEP - Input generated by R.E.D.-III.x MOLECULE
 ----------------------------------------------
 Symbolic Z-matrix:
 Charge =  0 Multiplicity = 1
 O                     4.15427   6.54768   4.14719 
 H                     4.93022   6.9073    3.69717 
 C                     0.        0.        0. 
 C                     1.34136   0.61306  -0.47693 
 H                     2.1251    0.        0. 
 C                     1.59906   2.0475    0. 
 H                     0.83242   2.71405  -0.41955 
 C                     1.5305    2.10059   1.55156 
 H                     2.40194   1.52229   1.9009 
 C                     0.09979  -1.40195  -0.67851 
 H                     0.91349  -1.90244  -0.13362 
 C                     0.02894  -0.01689   1.53849 
 H                     0.83159  -0.69215   1.86899 
 H                    -0.90704  -0.41738   1.95081 
 C                     1.73256   3.55231   2.11393 
 C                     1.39377   0.2858   -1.98195 
 H                     2.42012   0.23729  -2.35927 
 H                     0.87998   1.05901  -2.56656 
 C                     0.27316   1.39276   2.11738 
 H                    -0.61467   2.00556   1.93146 
 H                     0.35865   1.31206   3.2068 
 C                     0.65489  -1.08411  -2.10273 
 H                    -0.14989  -1.01727  -2.83988 
 H                     1.32598  -1.87688  -2.44939 
 C                     2.97098   2.54986  -0.47689 
 H                     2.93959   2.7646   -1.55345 
 H                     3.71671   1.74551  -0.36241 
 C                    -1.11331  -2.37465  -0.58008 
 H                    -1.60936  -2.1545    0.37572 
 C                    -1.22703   0.7941   -0.50021 
 H                    -2.15277   0.33383  -0.13979 
 H                    -1.2217    1.82721  -0.1443 
 H                    -1.2789    0.83203  -1.59205 
 C                     2.90259   4.24067   1.39635 
 C                     2.08449   3.45448   3.63132 
 H                     2.86511   2.69061   3.75313 
 H                     1.2103    3.09642   4.18581 
 C                     3.44297   3.76906   0.26305 
 H                     4.28987   4.30172  -0.17109 
 C                     0.45756   4.41916   1.93297 
 H                    -0.35841   4.06959   2.57327 
 H                     0.64315   5.46441   2.19222 
 H                     0.11149   4.40087   0.89491 
 C                     3.44032   5.50745   2.03564 
 H                     4.32455   5.84932   1.48237 
 H                     2.69969   6.31774   1.97983 
 C                     2.5775    4.76212   4.26813 
 H                     1.7896    5.52566   4.26711 
 H                     2.84571   4.58985   5.31668 
 C                    -2.16644  -2.23988  -1.70746 
 H                    -2.3424   -1.18413  -1.93932 
 H                    -1.75121  -2.68417  -2.62217 
 C                     3.78377   5.31387   3.51957 
 H                     4.61597   4.59542   3.60345 
 C                    -0.60493  -3.82892  -0.49866 
 H                    -0.03654  -4.09402  -1.39911 
 H                    -1.42553  -4.54711  -0.40389 
 H                     0.05492  -3.96875   0.36476 
 C                    -3.53427  -2.89893  -1.42943 
 H                    -4.09506  -2.90808  -2.37246 
 H                    -3.39284  -3.9512   -1.15519 
 C                    -4.37106  -2.18435  -0.3546 
 H                    -4.47866  -1.1281   -0.64165 
 H                    -3.82367  -2.18581   0.5974 
 C                    -5.78326  -2.75912  -0.09037 
 H                    -6.22238  -2.12708   0.69577 
 C                    -5.74588  -4.19622   0.45593 
 H                    -5.09608  -4.27205   1.33577 
 H                    -6.7481   -4.52657   0.75193 
 H                    -5.37723  -4.90495  -0.29455 
 C                    -6.70662  -2.65817  -1.31599 
 H                    -6.74104  -1.63424  -1.70652 
 H                    -7.73046  -2.95082  -1.05649 
 H                    -6.37605  -3.31536  -2.12846 
 
 NAtoms=     74 NQM=       74 NQMF=       0 NMMI=      0 NMMIF=      0
                NMic=       0 NMicF=      0.
                    Isotopes and Nuclear Properties:
 (Nuclear quadrupole moments (NQMom) in fm**2, nuclear magnetic moments (NMagM)
  in nuclear magnetons)

  Atom         1           2           3           4           5           6           7           8           9          10
 IAtWgt=          16           1          12          12           1          12           1          12           1          12
 AtmWgt=  15.9949146   1.0078250  12.0000000  12.0000000   1.0078250  12.0000000   1.0078250  12.0000000   1.0078250  12.0000000
 NucSpn=           0           1           0           0           1           0           1           0           1           0
 AtZEff=   0.0000000   0.0000000   0.0000000   0.0000000   0.0000000   0.0000000   0.0000000   0.0000000   0.0000000   0.0000000
 NQMom=    0.0000000   0.0000000   0.0000000   0.0000000   0.0000000   0.0000000   0.0000000   0.0000000   0.0000000   0.0000000
 NMagM=    0.0000000   2.7928460   0.0000000   0.0000000   2.7928460   0.0000000   2.7928460   0.0000000   2.7928460   0.0000000
 AtZNuc=   8.0000000   1.0000000   6.0000000   6.0000000   1.0000000   6.0000000   1.0000000   6.0000000   1.0000000   6.0000000

  Atom        11          12          13          14          15          16          17          18          19          20
 IAtWgt=           1          12           1           1          12          12           1           1          12           1
 AtmWgt=   1.0078250  12.0000000   1.0078250   1.0078250  12.0000000  12.0000000   1.0078250   1.0078250  12.0000000   1.0078250
 NucSpn=           1           0           1           1           0           0           1           1           0           1
 AtZEff=   0.0000000   0.0000000   0.0000000   0.0000000   0.0000000   0.0000000   0.0000000   0.0000000   0.0000000   0.0000000
 NQMom=    0.0000000   0.0000000   0.0000000   0.0000000   0.0000000   0.0000000   0.0000000   0.0000000   0.0000000   0.0000000
 NMagM=    2.7928460   0.0000000   2.7928460   2.7928460   0.0000000   0.0000000   2.7928460   2.7928460   0.0000000   2.7928460
 AtZNuc=   1.0000000   6.0000000   1.0000000   1.0000000   6.0000000   6.0000000   1.0000000   1.0000000   6.0000000   1.0000000

  Atom        21          22          23          24          25          26          27          28          29          30
 IAtWgt=           1          12           1           1          12           1           1          12           1          12
 AtmWgt=   1.0078250  12.0000000   1.0078250   1.0078250  12.0000000   1.0078250   1.0078250  12.0000000   1.0078250  12.0000000
 NucSpn=           1           0           1           1           0           1           1           0           1           0
 AtZEff=   0.0000000   0.0000000   0.0000000   0.0000000   0.0000000   0.0000000   0.0000000   0.0000000   0.0000000   0.0000000
 NQMom=    0.0000000   0.0000000   0.0000000   0.0000000   0.0000000   0.0000000   0.0000000   0.0000000   0.0000000   0.0000000
 NMagM=    2.7928460   0.0000000   2.7928460   2.7928460   0.0000000   2.7928460   2.7928460   0.0000000   2.7928460   0.0000000
 AtZNuc=   1.0000000   6.0000000   1.0000000   1.0000000   6.0000000   1.0000000   1.0000000   6.0000000   1.0000000   6.0000000

  Atom        31          32          33          34          35          36          37          38          39          40
 IAtWgt=           1           1           1          12          12           1           1          12           1          12
 AtmWgt=   1.0078250   1.0078250   1.0078250  12.0000000  12.0000000   1.0078250   1.0078250  12.0000000   1.0078250  12.0000000
 NucSpn=           1           1           1           0           0           1           1           0           1           0
 AtZEff=   0.0000000   0.0000000   0.0000000   0.0000000   0.0000000   0.0000000   0.0000000   0.0000000   0.0000000   0.0000000
 NQMom=    0.0000000   0.0000000   0.0000000   0.0000000   0.0000000   0.0000000   0.0000000   0.0000000   0.0000000   0.0000000
 NMagM=    2.7928460   2.7928460   2.7928460   0.0000000   0.0000000   2.7928460   2.7928460   0.0000000   2.7928460   0.0000000
 AtZNuc=   1.0000000   1.0000000   1.0000000   6.0000000   6.0000000   1.0000000   1.0000000   6.0000000   1.0000000   6.0000000

  Atom        41          42          43          44          45          46          47          48          49          50
 IAtWgt=           1           1           1          12           1           1          12           1           1          12
 AtmWgt=   1.0078250   1.0078250   1.0078250  12.0000000   1.0078250   1.0078250  12.0000000   1.0078250   1.0078250  12.0000000
 NucSpn=           1           1           1           0           1           1           0           1           1           0
 AtZEff=   0.0000000   0.0000000   0.0000000   0.0000000   0.0000000   0.0000000   0.0000000   0.0000000   0.0000000   0.0000000
 NQMom=    0.0000000   0.0000000   0.0000000   0.0000000   0.0000000   0.0000000   0.0000000   0.0000000   0.0000000   0.0000000
 NMagM=    2.7928460   2.7928460   2.7928460   0.0000000   2.7928460   2.7928460   0.0000000   2.7928460   2.7928460   0.0000000
 AtZNuc=   1.0000000   1.0000000   1.0000000   6.0000000   1.0000000   1.0000000   6.0000000   1.0000000   1.0000000   6.0000000

  Atom        51          52          53          54          55          56          57          58          59          60
 IAtWgt=           1           1          12           1          12           1           1           1          12           1
 AtmWgt=   1.0078250   1.0078250  12.0000000   1.0078250  12.0000000   1.0078250   1.0078250   1.0078250  12.0000000   1.0078250
 NucSpn=           1           1           0           1           0           1           1           1           0           1
 AtZEff=   0.0000000   0.0000000   0.0000000   0.0000000   0.0000000   0.0000000   0.0000000   0.0000000   0.0000000   0.0000000
 NQMom=    0.0000000   0.0000000   0.0000000   0.0000000   0.0000000   0.0000000   0.0000000   0.0000000   0.0000000   0.0000000
 NMagM=    2.7928460   2.7928460   0.0000000   2.7928460   0.0000000   2.7928460   2.7928460   2.7928460   0.0000000   2.7928460
 AtZNuc=   1.0000000   1.0000000   6.0000000   1.0000000   6.0000000   1.0000000   1.0000000   1.0000000   6.0000000   1.0000000

  Atom        61          62          63          64          65          66          67          68          69          70
 IAtWgt=           1          12           1           1          12           1          12           1           1           1
 AtmWgt=   1.0078250  12.0000000   1.0078250   1.0078250  12.0000000   1.0078250  12.0000000   1.0078250   1.0078250   1.0078250
 NucSpn=           1           0           1           1           0           1           0           1           1           1
 AtZEff=   0.0000000   0.0000000   0.0000000   0.0000000   0.0000000   0.0000000   0.0000000   0.0000000   0.0000000   0.0000000
 NQMom=    0.0000000   0.0000000   0.0000000   0.0000000   0.0000000   0.0000000   0.0000000   0.0000000   0.0000000   0.0000000
 NMagM=    2.7928460   0.0000000   2.7928460   2.7928460   0.0000000   2.7928460   0.0000000   2.7928460   2.7928460   2.7928460
 AtZNuc=   1.0000000   6.0000000   1.0000000   1.0000000   6.0000000   1.0000000   6.0000000   1.0000000   1.0000000   1.0000000

  Atom        71          72          73          74
 IAtWgt=          12           1           1           1
 AtmWgt=  12.0000000   1.0078250   1.0078250   1.0078250
 NucSpn=           0           1           1           1
 AtZEff=   0.0000000   0.0000000   0.0000000   0.0000000
 NQMom=    0.0000000   0.0000000   0.0000000   0.0000000
 NMagM=    0.0000000   2.7928460   2.7928460   2.7928460
 AtZNuc=   6.0000000   1.0000000   1.0000000   1.0000000
 Leave Link  101 at Tue Mar 21 12:25:46 2017, MaxMem=    33554432 cpu:         1.0
 (Enter /home/michal/g09/l202.exe)
 Symmetry turned off by external request.
 Stoichiometry    C27H46O
 Framework group  C1[X(C27H46O)]
 Deg. of freedom   216
 Full point group                 C1      NOp   1
                          Input orientation:                          
 ---------------------------------------------------------------------
 Center     Atomic      Atomic             Coordinates (Angstroms)
 Number     Number       Type             X           Y           Z
 ---------------------------------------------------------------------
      1          8           0        4.154270    6.547680    4.147189
      2          1           0        4.930217    6.907302    3.697168
      3          6           0        0.000000    0.000000    0.000000
      4          6           0        1.341360    0.613059   -0.476930
      5          1           0        2.125100    0.000000    0.000000
      6          6           0        1.599062    2.047500    0.000000
      7          1           0        0.832419    2.714049   -0.419550
      8          6           0        1.530497    2.100592    1.551561
      9          1           0        2.401937    1.522293    1.900898
     10          6           0        0.099787   -1.401952   -0.678512
     11          1           0        0.913485   -1.902440   -0.133618
     12          6           0        0.028938   -0.016894    1.538488
     13          1           0        0.831588   -0.692153    1.868988
     14          1           0       -0.907045   -0.417382    1.950807
     15          6           0        1.732558    3.552311    2.113930
     16          6           0        1.393774    0.285797   -1.981945
     17          1           0        2.420118    0.237291   -2.359267
     18          1           0        0.879978    1.059014   -2.566559
     19          6           0        0.273155    1.392759    2.117382
     20          1           0       -0.614666    2.005564    1.931457
     21          1           0        0.358649    1.312059    3.206800
     22          6           0        0.654886   -1.084109   -2.102727
     23          1           0       -0.149893   -1.017269   -2.839876
     24          1           0        1.325982   -1.876877   -2.449390
     25          6           0        2.970983    2.549863   -0.476885
     26          1           0        2.939589    2.764599   -1.553453
     27          1           0        3.716709    1.745505   -0.362412
     28          6           0       -1.113315   -2.374648   -0.580076
     29          1           0       -1.609358   -2.154501    0.375715
     30          6           0       -1.227027    0.794103   -0.500206
     31          1           0       -2.152770    0.333826   -0.139792
     32          1           0       -1.221697    1.827211   -0.144304
     33          1           0       -1.278905    0.832028   -1.592047
     34          6           0        2.902595    4.240673    1.396345
     35          6           0        2.084495    3.454485    3.631317
     36          1           0        2.865112    2.690607    3.753132
     37          1           0        1.210304    3.096420    4.185809
     38          6           0        3.442971    3.769061    0.263045
     39          1           0        4.289865    4.301717   -0.171093
     40          6           0        0.457557    4.419160    1.932967
     41          1           0       -0.358409    4.069587    2.573269
     42          1           0        0.643149    5.464412    2.192221
     43          1           0        0.111488    4.400868    0.894907
     44          6           0        3.440318    5.507450    2.035644
     45          1           0        4.324545    5.849318    1.482371
     46          1           0        2.699693    6.317737    1.979829
     47          6           0        2.577502    4.762115    4.268128
     48          1           0        1.789599    5.525663    4.267107
     49          1           0        2.845712    4.589848    5.316681
     50          6           0       -2.166439   -2.239879   -1.707463
     51          1           0       -2.342403   -1.184134   -1.939323
     52          1           0       -1.751207   -2.684168   -2.622173
     53          6           0        3.783766    5.313866    3.519572
     54          1           0        4.615967    4.595422    3.603449
     55          6           0       -0.604926   -3.828917   -0.498655
     56          1           0       -0.036539   -4.094018   -1.399114
     57          1           0       -1.425526   -4.547107   -0.403886
     58          1           0        0.054919   -3.968752    0.364758
     59          6           0       -3.534273   -2.898934   -1.429431
     60          1           0       -4.095057   -2.908081   -2.372458
     61          1           0       -3.392838   -3.951201   -1.155191
     62          6           0       -4.371057   -2.184348   -0.354603
     63          1           0       -4.478656   -1.128102   -0.641652
     64          1           0       -3.823669   -2.185806    0.597403
     65          6           0       -5.783261   -2.759122   -0.090365
     66          1           0       -6.222384   -2.127076    0.695767
     67          6           0       -5.745878   -4.196216    0.455929
     68          1           0       -5.096079   -4.272053    1.335770
     69          1           0       -6.748099   -4.526572    0.751935
     70          1           0       -5.377234   -4.904947   -0.294547
     71          6           0       -6.706624   -2.658168   -1.315989
     72          1           0       -6.741043   -1.634235   -1.706519
     73          1           0       -7.730458   -2.950823   -1.056486
     74          1           0       -6.376050   -3.315360   -2.128461
 ---------------------------------------------------------------------
 Rotational constants (GHZ):      0.3846952      0.0646068      0.0596581
 Leave Link  202 at Tue Mar 21 12:25:46 2017, MaxMem=    33554432 cpu:         0.0
 (Enter /home/michal/g09/l301.exe)
 Standard basis: 6-31G(d) (6D, 7F)
 Ernie: Thresh=  0.10000D-02 Tol=  0.10000D-05 Strict=F.
 AO basis set in the form of general basis input (Overlap normalization):
      1 0
 S   6 1.00       0.000000000000
      0.5484671660D+04  0.1831074430D-02
      0.8252349460D+03  0.1395017220D-01
      0.1880469580D+03  0.6844507810D-01
      0.5296450000D+02  0.2327143360D+00
      0.1689757040D+02  0.4701928980D+00
      0.5799635340D+01  0.3585208530D+00
 SP   3 1.00       0.000000000000
      0.1553961625D+02 -0.1107775495D+00  0.7087426823D-01
      0.3599933586D+01 -0.1480262627D+00  0.3397528391D+00
      0.1013761750D+01  0.1130767015D+01  0.7271585773D+00
 SP   1 1.00       0.000000000000
      0.2700058226D+00  0.1000000000D+01  0.1000000000D+01
 D   1 1.00       0.000000000000
      0.8000000000D+00  0.1000000000D+01
 ****
      2 0
 S   3 1.00       0.000000000000
      0.1873113696D+02  0.3349460434D-01
      0.2825394365D+01  0.2347269535D+00
      0.6401216923D+00  0.8137573261D+00
 S   1 1.00       0.000000000000
      0.1612777588D+00  0.1000000000D+01
 ****
      3 0
 S   6 1.00       0.000000000000
      0.3047524880D+04  0.1834737132D-02
      0.4573695180D+03  0.1403732281D-01
      0.1039486850D+03  0.6884262226D-01
      0.2921015530D+02  0.2321844432D+00
      0.9286662960D+01  0.4679413484D+00
      0.3163926960D+01  0.3623119853D+00
 SP   3 1.00       0.000000000000
      0.7868272350D+01 -0.1193324198D+00  0.6899906659D-01
      0.1881288540D+01 -0.1608541517D+00  0.3164239610D+00
      0.5442492580D+00  0.1143456438D+01  0.7443082909D+00
 SP   1 1.00       0.000000000000
      0.1687144782D+00  0.1000000000D+01  0.1000000000D+01
 D   1 1.00       0.000000000000
      0.8000000000D+00  0.1000000000D+01
 ****
      4 0
 S   6 1.00       0.000000000000
      0.3047524880D+04  0.1834737132D-02
      0.4573695180D+03  0.1403732281D-01
      0.1039486850D+03  0.6884262226D-01
      0.2921015530D+02  0.2321844432D+00
      0.9286662960D+01  0.4679413484D+00
      0.3163926960D+01  0.3623119853D+00
 SP   3 1.00       0.000000000000
      0.7868272350D+01 -0.1193324198D+00  0.6899906659D-01
      0.1881288540D+01 -0.1608541517D+00  0.3164239610D+00
      0.5442492580D+00  0.1143456438D+01  0.7443082909D+00
 SP   1 1.00       0.000000000000
      0.1687144782D+00  0.1000000000D+01  0.1000000000D+01
 D   1 1.00       0.000000000000
      0.8000000000D+00  0.1000000000D+01
 ****
      5 0
 S   3 1.00       0.000000000000
      0.1873113696D+02  0.3349460434D-01
      0.2825394365D+01  0.2347269535D+00
      0.6401216923D+00  0.8137573261D+00
 S   1 1.00       0.000000000000
      0.1612777588D+00  0.1000000000D+01
 ****
      6 0
 S   6 1.00       0.000000000000
      0.3047524880D+04  0.1834737132D-02
      0.4573695180D+03  0.1403732281D-01
      0.1039486850D+03  0.6884262226D-01
      0.2921015530D+02  0.2321844432D+00
      0.9286662960D+01  0.4679413484D+00
      0.3163926960D+01  0.3623119853D+00
 SP   3 1.00       0.000000000000
      0.7868272350D+01 -0.1193324198D+00  0.6899906659D-01
      0.1881288540D+01 -0.1608541517D+00  0.3164239610D+00
      0.5442492580D+00  0.1143456438D+01  0.7443082909D+00
 SP   1 1.00       0.000000000000
      0.1687144782D+00  0.1000000000D+01  0.1000000000D+01
 D   1 1.00       0.000000000000
      0.8000000000D+00  0.1000000000D+01
 ****
      7 0
 S   3 1.00       0.000000000000
      0.1873113696D+02  0.3349460434D-01
      0.2825394365D+01  0.2347269535D+00
      0.6401216923D+00  0.8137573261D+00
 S   1 1.00       0.000000000000
      0.1612777588D+00  0.1000000000D+01
 ****
      8 0
 S   6 1.00       0.000000000000
      0.3047524880D+04  0.1834737132D-02
      0.4573695180D+03  0.1403732281D-01
      0.1039486850D+03  0.6884262226D-01
      0.2921015530D+02  0.2321844432D+00
      0.9286662960D+01  0.4679413484D+00
      0.3163926960D+01  0.3623119853D+00
 SP   3 1.00       0.000000000000
      0.7868272350D+01 -0.1193324198D+00  0.6899906659D-01
      0.1881288540D+01 -0.1608541517D+00  0.3164239610D+00
      0.5442492580D+00  0.1143456438D+01  0.7443082909D+00
 SP   1 1.00       0.000000000000
      0.1687144782D+00  0.1000000000D+01  0.1000000000D+01
 D   1 1.00       0.000000000000
      0.8000000000D+00  0.1000000000D+01
 ****
      9 0
 S   3 1.00       0.000000000000
      0.1873113696D+02  0.3349460434D-01
      0.2825394365D+01  0.2347269535D+00
      0.6401216923D+00  0.8137573261D+00
 S   1 1.00       0.000000000000
      0.1612777588D+00  0.1000000000D+01
 ****
     10 0
 S   6 1.00       0.000000000000
      0.3047524880D+04  0.1834737132D-02
      0.4573695180D+03  0.1403732281D-01
      0.1039486850D+03  0.6884262226D-01
      0.2921015530D+02  0.2321844432D+00
      0.9286662960D+01  0.4679413484D+00
      0.3163926960D+01  0.3623119853D+00
 SP   3 1.00       0.000000000000
      0.7868272350D+01 -0.1193324198D+00  0.6899906659D-01
      0.1881288540D+01 -0.1608541517D+00  0.3164239610D+00
      0.5442492580D+00  0.1143456438D+01  0.7443082909D+00
 SP   1 1.00       0.000000000000
      0.1687144782D+00  0.1000000000D+01  0.1000000000D+01
 D   1 1.00       0.000000000000
      0.8000000000D+00  0.1000000000D+01
 ****
     11 0
 S   3 1.00       0.000000000000
      0.1873113696D+02  0.3349460434D-01
      0.2825394365D+01  0.2347269535D+00
      0.6401216923D+00  0.8137573261D+00
 S   1 1.00       0.000000000000
      0.1612777588D+00  0.1000000000D+01
 ****
     12 0
 S   6 1.00       0.000000000000
      0.3047524880D+04  0.1834737132D-02
      0.4573695180D+03  0.1403732281D-01
      0.1039486850D+03  0.6884262226D-01
      0.2921015530D+02  0.2321844432D+00
      0.9286662960D+01  0.4679413484D+00
      0.3163926960D+01  0.3623119853D+00
 SP   3 1.00       0.000000000000
      0.7868272350D+01 -0.1193324198D+00  0.6899906659D-01
      0.1881288540D+01 -0.1608541517D+00  0.3164239610D+00
      0.5442492580D+00  0.1143456438D+01  0.7443082909D+00
 SP   1 1.00       0.000000000000
      0.1687144782D+00  0.1000000000D+01  0.1000000000D+01
 D   1 1.00       0.000000000000
      0.8000000000D+00  0.1000000000D+01
 ****
     13 0
 S   3 1.00       0.000000000000
      0.1873113696D+02  0.3349460434D-01
      0.2825394365D+01  0.2347269535D+00
      0.6401216923D+00  0.8137573261D+00
 S   1 1.00       0.000000000000
      0.1612777588D+00  0.1000000000D+01
 ****
     14 0
 S   3 1.00       0.000000000000
      0.1873113696D+02  0.3349460434D-01
      0.2825394365D+01  0.2347269535D+00
      0.6401216923D+00  0.8137573261D+00
 S   1 1.00       0.000000000000
      0.1612777588D+00  0.1000000000D+01
 ****
     15 0
 S   6 1.00       0.000000000000
      0.3047524880D+04  0.1834737132D-02
      0.4573695180D+03  0.1403732281D-01
      0.1039486850D+03  0.6884262226D-01
      0.2921015530D+02  0.2321844432D+00
      0.9286662960D+01  0.4679413484D+00
      0.3163926960D+01  0.3623119853D+00
 SP   3 1.00       0.000000000000
      0.7868272350D+01 -0.1193324198D+00  0.6899906659D-01
      0.1881288540D+01 -0.1608541517D+00  0.3164239610D+00
      0.5442492580D+00  0.1143456438D+01  0.7443082909D+00
 SP   1 1.00       0.000000000000
      0.1687144782D+00  0.1000000000D+01  0.1000000000D+01
 D   1 1.00       0.000000000000
      0.8000000000D+00  0.1000000000D+01
 ****
     16 0
 S   6 1.00       0.000000000000
      0.3047524880D+04  0.1834737132D-02
      0.4573695180D+03  0.1403732281D-01
      0.1039486850D+03  0.6884262226D-01
      0.2921015530D+02  0.2321844432D+00
      0.9286662960D+01  0.4679413484D+00
      0.3163926960D+01  0.3623119853D+00
 SP   3 1.00       0.000000000000
      0.7868272350D+01 -0.1193324198D+00  0.6899906659D-01
      0.1881288540D+01 -0.1608541517D+00  0.3164239610D+00
      0.5442492580D+00  0.1143456438D+01  0.7443082909D+00
 SP   1 1.00       0.000000000000
      0.1687144782D+00  0.1000000000D+01  0.1000000000D+01
 D   1 1.00       0.000000000000
      0.8000000000D+00  0.1000000000D+01
 ****
     17 0
 S   3 1.00       0.000000000000
      0.1873113696D+02  0.3349460434D-01
      0.2825394365D+01  0.2347269535D+00
      0.6401216923D+00  0.8137573261D+00
 S   1 1.00       0.000000000000
      0.1612777588D+00  0.1000000000D+01
 ****
     18 0
 S   3 1.00       0.000000000000
      0.1873113696D+02  0.3349460434D-01
      0.2825394365D+01  0.2347269535D+00
      0.6401216923D+00  0.8137573261D+00
 S   1 1.00       0.000000000000
      0.1612777588D+00  0.1000000000D+01
 ****
     19 0
 S   6 1.00       0.000000000000
      0.3047524880D+04  0.1834737132D-02
      0.4573695180D+03  0.1403732281D-01
      0.1039486850D+03  0.6884262226D-01
      0.2921015530D+02  0.2321844432D+00
      0.9286662960D+01  0.4679413484D+00
      0.3163926960D+01  0.3623119853D+00
 SP   3 1.00       0.000000000000
      0.7868272350D+01 -0.1193324198D+00  0.6899906659D-01
      0.1881288540D+01 -0.1608541517D+00  0.3164239610D+00
      0.5442492580D+00  0.1143456438D+01  0.7443082909D+00
 SP   1 1.00       0.000000000000
      0.1687144782D+00  0.1000000000D+01  0.1000000000D+01
 D   1 1.00       0.000000000000
      0.8000000000D+00  0.1000000000D+01
 ****
     20 0
 S   3 1.00       0.000000000000
      0.1873113696D+02  0.3349460434D-01
      0.2825394365D+01  0.2347269535D+00
      0.6401216923D+00  0.8137573261D+00
 S   1 1.00       0.000000000000
      0.1612777588D+00  0.1000000000D+01
 ****
     21 0
 S   3 1.00       0.000000000000
      0.1873113696D+02  0.3349460434D-01
      0.2825394365D+01  0.2347269535D+00
      0.6401216923D+00  0.8137573261D+00
 S   1 1.00       0.000000000000
      0.1612777588D+00  0.1000000000D+01
 ****
     22 0
 S   6 1.00       0.000000000000
      0.3047524880D+04  0.1834737132D-02
      0.4573695180D+03  0.1403732281D-01
      0.1039486850D+03  0.6884262226D-01
      0.2921015530D+02  0.2321844432D+00
      0.9286662960D+01  0.4679413484D+00
      0.3163926960D+01  0.3623119853D+00
 SP   3 1.00       0.000000000000
      0.7868272350D+01 -0.1193324198D+00  0.6899906659D-01
      0.1881288540D+01 -0.1608541517D+00  0.3164239610D+00
      0.5442492580D+00  0.1143456438D+01  0.7443082909D+00
 SP   1 1.00       0.000000000000
      0.1687144782D+00  0.1000000000D+01  0.1000000000D+01
 D   1 1.00       0.000000000000
      0.8000000000D+00  0.1000000000D+01
 ****
     23 0
 S   3 1.00       0.000000000000
      0.1873113696D+02  0.3349460434D-01
      0.2825394365D+01  0.2347269535D+00
      0.6401216923D+00  0.8137573261D+00
 S   1 1.00       0.000000000000
      0.1612777588D+00  0.1000000000D+01
 ****
     24 0
 S   3 1.00       0.000000000000
      0.1873113696D+02  0.3349460434D-01
      0.2825394365D+01  0.2347269535D+00
      0.6401216923D+00  0.8137573261D+00
 S   1 1.00       0.000000000000
      0.1612777588D+00  0.1000000000D+01
 ****
     25 0
 S   6 1.00       0.000000000000
      0.3047524880D+04  0.1834737132D-02
      0.4573695180D+03  0.1403732281D-01
      0.1039486850D+03  0.6884262226D-01
      0.2921015530D+02  0.2321844432D+00
      0.9286662960D+01  0.4679413484D+00
      0.3163926960D+01  0.3623119853D+00
 SP   3 1.00       0.000000000000
      0.7868272350D+01 -0.1193324198D+00  0.6899906659D-01
      0.1881288540D+01 -0.1608541517D+00  0.3164239610D+00
      0.5442492580D+00  0.1143456438D+01  0.7443082909D+00
 SP   1 1.00       0.000000000000
      0.1687144782D+00  0.1000000000D+01  0.1000000000D+01
 D   1 1.00       0.000000000000
      0.8000000000D+00  0.1000000000D+01
 ****
     26 0
 S   3 1.00       0.000000000000
      0.1873113696D+02  0.3349460434D-01
      0.2825394365D+01  0.2347269535D+00
      0.6401216923D+00  0.8137573261D+00
 S   1 1.00       0.000000000000
      0.1612777588D+00  0.1000000000D+01
 ****
     27 0
 S   3 1.00       0.000000000000
      0.1873113696D+02  0.3349460434D-01
      0.2825394365D+01  0.2347269535D+00
      0.6401216923D+00  0.8137573261D+00
 S   1 1.00       0.000000000000
      0.1612777588D+00  0.1000000000D+01
 ****
     28 0
 S   6 1.00       0.000000000000
      0.3047524880D+04  0.1834737132D-02
      0.4573695180D+03  0.1403732281D-01
      0.1039486850D+03  0.6884262226D-01
      0.2921015530D+02  0.2321844432D+00
      0.9286662960D+01  0.4679413484D+00
      0.3163926960D+01  0.3623119853D+00
 SP   3 1.00       0.000000000000
      0.7868272350D+01 -0.1193324198D+00  0.6899906659D-01
      0.1881288540D+01 -0.1608541517D+00  0.3164239610D+00
      0.5442492580D+00  0.1143456438D+01  0.7443082909D+00
 SP   1 1.00       0.000000000000
      0.1687144782D+00  0.1000000000D+01  0.1000000000D+01
 D   1 1.00       0.000000000000
      0.8000000000D+00  0.1000000000D+01
 ****
     29 0
 S   3 1.00       0.000000000000
      0.1873113696D+02  0.3349460434D-01
      0.2825394365D+01  0.2347269535D+00
      0.6401216923D+00  0.8137573261D+00
 S   1 1.00       0.000000000000
      0.1612777588D+00  0.1000000000D+01
 ****
     30 0
 S   6 1.00       0.000000000000
      0.3047524880D+04  0.1834737132D-02
      0.4573695180D+03  0.1403732281D-01
      0.1039486850D+03  0.6884262226D-01
      0.2921015530D+02  0.2321844432D+00
      0.9286662960D+01  0.4679413484D+00
      0.3163926960D+01  0.3623119853D+00
 SP   3 1.00       0.000000000000
      0.7868272350D+01 -0.1193324198D+00  0.6899906659D-01
      0.1881288540D+01 -0.1608541517D+00  0.3164239610D+00
      0.5442492580D+00  0.1143456438D+01  0.7443082909D+00
 SP   1 1.00       0.000000000000
      0.1687144782D+00  0.1000000000D+01  0.1000000000D+01
 D   1 1.00       0.000000000000
      0.8000000000D+00  0.1000000000D+01
 ****
     31 0
 S   3 1.00       0.000000000000
      0.1873113696D+02  0.3349460434D-01
      0.2825394365D+01  0.2347269535D+00
      0.6401216923D+00  0.8137573261D+00
 S   1 1.00       0.000000000000
      0.1612777588D+00  0.1000000000D+01
 ****
     32 0
 S   3 1.00       0.000000000000
      0.1873113696D+02  0.3349460434D-01
      0.2825394365D+01  0.2347269535D+00
      0.6401216923D+00  0.8137573261D+00
 S   1 1.00       0.000000000000
      0.1612777588D+00  0.1000000000D+01
 ****
     33 0
 S   3 1.00       0.000000000000
      0.1873113696D+02  0.3349460434D-01
      0.2825394365D+01  0.2347269535D+00
      0.6401216923D+00  0.8137573261D+00
 S   1 1.00       0.000000000000
      0.1612777588D+00  0.1000000000D+01
 ****
     34 0
 S   6 1.00       0.000000000000
      0.3047524880D+04  0.1834737132D-02
      0.4573695180D+03  0.1403732281D-01
      0.1039486850D+03  0.6884262226D-01
      0.2921015530D+02  0.2321844432D+00
      0.9286662960D+01  0.4679413484D+00
      0.3163926960D+01  0.3623119853D+00
 SP   3 1.00       0.000000000000
      0.7868272350D+01 -0.1193324198D+00  0.6899906659D-01
      0.1881288540D+01 -0.1608541517D+00  0.3164239610D+00
      0.5442492580D+00  0.1143456438D+01  0.7443082909D+00
 SP   1 1.00       0.000000000000
      0.1687144782D+00  0.1000000000D+01  0.1000000000D+01
 D   1 1.00       0.000000000000
      0.8000000000D+00  0.1000000000D+01
 ****
     35 0
 S   6 1.00       0.000000000000
      0.3047524880D+04  0.1834737132D-02
      0.4573695180D+03  0.1403732281D-01
      0.1039486850D+03  0.6884262226D-01
      0.2921015530D+02  0.2321844432D+00
      0.9286662960D+01  0.4679413484D+00
      0.3163926960D+01  0.3623119853D+00
 SP   3 1.00       0.000000000000
      0.7868272350D+01 -0.1193324198D+00  0.6899906659D-01
      0.1881288540D+01 -0.1608541517D+00  0.3164239610D+00
      0.5442492580D+00  0.1143456438D+01  0.7443082909D+00
 SP   1 1.00       0.000000000000
      0.1687144782D+00  0.1000000000D+01  0.1000000000D+01
 D   1 1.00       0.000000000000
      0.8000000000D+00  0.1000000000D+01
 ****
     36 0
 S   3 1.00       0.000000000000
      0.1873113696D+02  0.3349460434D-01
      0.2825394365D+01  0.2347269535D+00
      0.6401216923D+00  0.8137573261D+00
 S   1 1.00       0.000000000000
      0.1612777588D+00  0.1000000000D+01
 ****
     37 0
 S   3 1.00       0.000000000000
      0.1873113696D+02  0.3349460434D-01
      0.2825394365D+01  0.2347269535D+00
      0.6401216923D+00  0.8137573261D+00
 S   1 1.00       0.000000000000
      0.1612777588D+00  0.1000000000D+01
 ****
     38 0
 S   6 1.00       0.000000000000
      0.3047524880D+04  0.1834737132D-02
      0.4573695180D+03  0.1403732281D-01
      0.1039486850D+03  0.6884262226D-01
      0.2921015530D+02  0.2321844432D+00
      0.9286662960D+01  0.4679413484D+00
      0.3163926960D+01  0.3623119853D+00
 SP   3 1.00       0.000000000000
      0.7868272350D+01 -0.1193324198D+00  0.6899906659D-01
      0.1881288540D+01 -0.1608541517D+00  0.3164239610D+00
      0.5442492580D+00  0.1143456438D+01  0.7443082909D+00
 SP   1 1.00       0.000000000000
      0.1687144782D+00  0.1000000000D+01  0.1000000000D+01
 D   1 1.00       0.000000000000
      0.8000000000D+00  0.1000000000D+01
 ****
     39 0
 S   3 1.00       0.000000000000
      0.1873113696D+02  0.3349460434D-01
      0.2825394365D+01  0.2347269535D+00
      0.6401216923D+00  0.8137573261D+00
 S   1 1.00       0.000000000000
      0.1612777588D+00  0.1000000000D+01
 ****
     40 0
 S   6 1.00       0.000000000000
      0.3047524880D+04  0.1834737132D-02
      0.4573695180D+03  0.1403732281D-01
      0.1039486850D+03  0.6884262226D-01
      0.2921015530D+02  0.2321844432D+00
      0.9286662960D+01  0.4679413484D+00
      0.3163926960D+01  0.3623119853D+00
 SP   3 1.00       0.000000000000
      0.7868272350D+01 -0.1193324198D+00  0.6899906659D-01
      0.1881288540D+01 -0.1608541517D+00  0.3164239610D+00
      0.5442492580D+00  0.1143456438D+01  0.7443082909D+00
 SP   1 1.00       0.000000000000
      0.1687144782D+00  0.1000000000D+01  0.1000000000D+01
 D   1 1.00       0.000000000000
      0.8000000000D+00  0.1000000000D+01
 ****
     41 0
 S   3 1.00       0.000000000000
      0.1873113696D+02  0.3349460434D-01
      0.2825394365D+01  0.2347269535D+00
      0.6401216923D+00  0.8137573261D+00
 S   1 1.00       0.000000000000
      0.1612777588D+00  0.1000000000D+01
 ****
     42 0
 S   3 1.00       0.000000000000
      0.1873113696D+02  0.3349460434D-01
      0.2825394365D+01  0.2347269535D+00
      0.6401216923D+00  0.8137573261D+00
 S   1 1.00       0.000000000000
      0.1612777588D+00  0.1000000000D+01
 ****
     43 0
 S   3 1.00       0.000000000000
      0.1873113696D+02  0.3349460434D-01
      0.2825394365D+01  0.2347269535D+00
      0.6401216923D+00  0.8137573261D+00
 S   1 1.00       0.000000000000
      0.1612777588D+00  0.1000000000D+01
 ****
     44 0
 S   6 1.00       0.000000000000
      0.3047524880D+04  0.1834737132D-02
      0.4573695180D+03  0.1403732281D-01
      0.1039486850D+03  0.6884262226D-01
      0.2921015530D+02  0.2321844432D+00
      0.9286662960D+01  0.4679413484D+00
      0.3163926960D+01  0.3623119853D+00
 SP   3 1.00       0.000000000000
      0.7868272350D+01 -0.1193324198D+00  0.6899906659D-01
      0.1881288540D+01 -0.1608541517D+00  0.3164239610D+00
      0.5442492580D+00  0.1143456438D+01  0.7443082909D+00
 SP   1 1.00       0.000000000000
      0.1687144782D+00  0.1000000000D+01  0.1000000000D+01
 D   1 1.00       0.000000000000
      0.8000000000D+00  0.1000000000D+01
 ****
     45 0
 S   3 1.00       0.000000000000
      0.1873113696D+02  0.3349460434D-01
      0.2825394365D+01  0.2347269535D+00
      0.6401216923D+00  0.8137573261D+00
 S   1 1.00       0.000000000000
      0.1612777588D+00  0.1000000000D+01
 ****
     46 0
 S   3 1.00       0.000000000000
      0.1873113696D+02  0.3349460434D-01
      0.2825394365D+01  0.2347269535D+00
      0.6401216923D+00  0.8137573261D+00
 S   1 1.00       0.000000000000
      0.1612777588D+00  0.1000000000D+01
 ****
     47 0
 S   6 1.00       0.000000000000
      0.3047524880D+04  0.1834737132D-02
      0.4573695180D+03  0.1403732281D-01
      0.1039486850D+03  0.6884262226D-01
      0.2921015530D+02  0.2321844432D+00
      0.9286662960D+01  0.4679413484D+00
      0.3163926960D+01  0.3623119853D+00
 SP   3 1.00       0.000000000000
      0.7868272350D+01 -0.1193324198D+00  0.6899906659D-01
      0.1881288540D+01 -0.1608541517D+00  0.3164239610D+00
      0.5442492580D+00  0.1143456438D+01  0.7443082909D+00
 SP   1 1.00       0.000000000000
      0.1687144782D+00  0.1000000000D+01  0.1000000000D+01
 D   1 1.00       0.000000000000
      0.8000000000D+00  0.1000000000D+01
 ****
     48 0
 S   3 1.00       0.000000000000
      0.1873113696D+02  0.3349460434D-01
      0.2825394365D+01  0.2347269535D+00
      0.6401216923D+00  0.8137573261D+00
 S   1 1.00       0.000000000000
      0.1612777588D+00  0.1000000000D+01
 ****
     49 0
 S   3 1.00       0.000000000000
      0.1873113696D+02  0.3349460434D-01
      0.2825394365D+01  0.2347269535D+00
      0.6401216923D+00  0.8137573261D+00
 S   1 1.00       0.000000000000
      0.1612777588D+00  0.1000000000D+01
 ****
     50 0
 S   6 1.00       0.000000000000
      0.3047524880D+04  0.1834737132D-02
      0.4573695180D+03  0.1403732281D-01
      0.1039486850D+03  0.6884262226D-01
      0.2921015530D+02  0.2321844432D+00
      0.9286662960D+01  0.4679413484D+00
      0.3163926960D+01  0.3623119853D+00
 SP   3 1.00       0.000000000000
      0.7868272350D+01 -0.1193324198D+00  0.6899906659D-01
      0.1881288540D+01 -0.1608541517D+00  0.3164239610D+00
      0.5442492580D+00  0.1143456438D+01  0.7443082909D+00
 SP   1 1.00       0.000000000000
      0.1687144782D+00  0.1000000000D+01  0.1000000000D+01
 D   1 1.00       0.000000000000
      0.8000000000D+00  0.1000000000D+01
 ****
     51 0
 S   3 1.00       0.000000000000
      0.1873113696D+02  0.3349460434D-01
      0.2825394365D+01  0.2347269535D+00
      0.6401216923D+00  0.8137573261D+00
 S   1 1.00       0.000000000000
      0.1612777588D+00  0.1000000000D+01
 ****
     52 0
 S   3 1.00       0.000000000000
      0.1873113696D+02  0.3349460434D-01
      0.2825394365D+01  0.2347269535D+00
      0.6401216923D+00  0.8137573261D+00
 S   1 1.00       0.000000000000
      0.1612777588D+00  0.1000000000D+01
 ****
     53 0
 S   6 1.00       0.000000000000
      0.3047524880D+04  0.1834737132D-02
      0.4573695180D+03  0.1403732281D-01
      0.1039486850D+03  0.6884262226D-01
      0.2921015530D+02  0.2321844432D+00
      0.9286662960D+01  0.4679413484D+00
      0.3163926960D+01  0.3623119853D+00
 SP   3 1.00       0.000000000000
      0.7868272350D+01 -0.1193324198D+00  0.6899906659D-01
      0.1881288540D+01 -0.1608541517D+00  0.3164239610D+00
      0.5442492580D+00  0.1143456438D+01  0.7443082909D+00
 SP   1 1.00       0.000000000000
      0.1687144782D+00  0.1000000000D+01  0.1000000000D+01
 D   1 1.00       0.000000000000
      0.8000000000D+00  0.1000000000D+01
 ****
     54 0
 S   3 1.00       0.000000000000
      0.1873113696D+02  0.3349460434D-01
      0.2825394365D+01  0.2347269535D+00
      0.6401216923D+00  0.8137573261D+00
 S   1 1.00       0.000000000000
      0.1612777588D+00  0.1000000000D+01
 ****
     55 0
 S   6 1.00       0.000000000000
      0.3047524880D+04  0.1834737132D-02
      0.4573695180D+03  0.1403732281D-01
      0.1039486850D+03  0.6884262226D-01
      0.2921015530D+02  0.2321844432D+00
      0.9286662960D+01  0.4679413484D+00
      0.3163926960D+01  0.3623119853D+00
 SP   3 1.00       0.000000000000
      0.7868272350D+01 -0.1193324198D+00  0.6899906659D-01
      0.1881288540D+01 -0.1608541517D+00  0.3164239610D+00
      0.5442492580D+00  0.1143456438D+01  0.7443082909D+00
 SP   1 1.00       0.000000000000
      0.1687144782D+00  0.1000000000D+01  0.1000000000D+01
 D   1 1.00       0.000000000000
      0.8000000000D+00  0.1000000000D+01
 ****
     56 0
 S   3 1.00       0.000000000000
      0.1873113696D+02  0.3349460434D-01
      0.2825394365D+01  0.2347269535D+00
      0.6401216923D+00  0.8137573261D+00
 S   1 1.00       0.000000000000
      0.1612777588D+00  0.1000000000D+01
 ****
     57 0
 S   3 1.00       0.000000000000
      0.1873113696D+02  0.3349460434D-01
      0.2825394365D+01  0.2347269535D+00
      0.6401216923D+00  0.8137573261D+00
 S   1 1.00       0.000000000000
      0.1612777588D+00  0.1000000000D+01
 ****
     58 0
 S   3 1.00       0.000000000000
      0.1873113696D+02  0.3349460434D-01
      0.2825394365D+01  0.2347269535D+00
      0.6401216923D+00  0.8137573261D+00
 S   1 1.00       0.000000000000
      0.1612777588D+00  0.1000000000D+01
 ****
     59 0
 S   6 1.00       0.000000000000
      0.3047524880D+04  0.1834737132D-02
      0.4573695180D+03  0.1403732281D-01
      0.1039486850D+03  0.6884262226D-01
      0.2921015530D+02  0.2321844432D+00
      0.9286662960D+01  0.4679413484D+00
      0.3163926960D+01  0.3623119853D+00
 SP   3 1.00       0.000000000000
      0.7868272350D+01 -0.1193324198D+00  0.6899906659D-01
      0.1881288540D+01 -0.1608541517D+00  0.3164239610D+00
      0.5442492580D+00  0.1143456438D+01  0.7443082909D+00
 SP   1 1.00       0.000000000000
      0.1687144782D+00  0.1000000000D+01  0.1000000000D+01
 D   1 1.00       0.000000000000
      0.8000000000D+00  0.1000000000D+01
 ****
     60 0
 S   3 1.00       0.000000000000
      0.1873113696D+02  0.3349460434D-01
      0.2825394365D+01  0.2347269535D+00
      0.6401216923D+00  0.8137573261D+00
 S   1 1.00       0.000000000000
      0.1612777588D+00  0.1000000000D+01
 ****
     61 0
 S   3 1.00       0.000000000000
      0.1873113696D+02  0.3349460434D-01
      0.2825394365D+01  0.2347269535D+00
      0.6401216923D+00  0.8137573261D+00
 S   1 1.00       0.000000000000
      0.1612777588D+00  0.1000000000D+01
 ****
     62 0
 S   6 1.00       0.000000000000
      0.3047524880D+04  0.1834737132D-02
      0.4573695180D+03  0.1403732281D-01
      0.1039486850D+03  0.6884262226D-01
      0.2921015530D+02  0.2321844432D+00
      0.9286662960D+01  0.4679413484D+00
      0.3163926960D+01  0.3623119853D+00
 SP   3 1.00       0.000000000000
      0.7868272350D+01 -0.1193324198D+00  0.6899906659D-01
      0.1881288540D+01 -0.1608541517D+00  0.3164239610D+00
      0.5442492580D+00  0.1143456438D+01  0.7443082909D+00
 SP   1 1.00       0.000000000000
      0.1687144782D+00  0.1000000000D+01  0.1000000000D+01
 D   1 1.00       0.000000000000
      0.8000000000D+00  0.1000000000D+01
 ****
     63 0
 S   3 1.00       0.000000000000
      0.1873113696D+02  0.3349460434D-01
      0.2825394365D+01  0.2347269535D+00
      0.6401216923D+00  0.8137573261D+00
 S   1 1.00       0.000000000000
      0.1612777588D+00  0.1000000000D+01
 ****
     64 0
 S   3 1.00       0.000000000000
      0.1873113696D+02  0.3349460434D-01
      0.2825394365D+01  0.2347269535D+00
      0.6401216923D+00  0.8137573261D+00
 S   1 1.00       0.000000000000
      0.1612777588D+00  0.1000000000D+01
 ****
     65 0
 S   6 1.00       0.000000000000
      0.3047524880D+04  0.1834737132D-02
      0.4573695180D+03  0.1403732281D-01
      0.1039486850D+03  0.6884262226D-01
      0.2921015530D+02  0.2321844432D+00
      0.9286662960D+01  0.4679413484D+00
      0.3163926960D+01  0.3623119853D+00
 SP   3 1.00       0.000000000000
      0.7868272350D+01 -0.1193324198D+00  0.6899906659D-01
      0.1881288540D+01 -0.1608541517D+00  0.3164239610D+00
      0.5442492580D+00  0.1143456438D+01  0.7443082909D+00
 SP   1 1.00       0.000000000000
      0.1687144782D+00  0.1000000000D+01  0.1000000000D+01
 D   1 1.00       0.000000000000
      0.8000000000D+00  0.1000000000D+01
 ****
     66 0
 S   3 1.00       0.000000000000
      0.1873113696D+02  0.3349460434D-01
      0.2825394365D+01  0.2347269535D+00
      0.6401216923D+00  0.8137573261D+00
 S   1 1.00       0.000000000000
      0.1612777588D+00  0.1000000000D+01
 ****
     67 0
 S   6 1.00       0.000000000000
      0.3047524880D+04  0.1834737132D-02
      0.4573695180D+03  0.1403732281D-01
      0.1039486850D+03  0.6884262226D-01
      0.2921015530D+02  0.2321844432D+00
      0.9286662960D+01  0.4679413484D+00
      0.3163926960D+01  0.3623119853D+00
 SP   3 1.00       0.000000000000
      0.7868272350D+01 -0.1193324198D+00  0.6899906659D-01
      0.1881288540D+01 -0.1608541517D+00  0.3164239610D+00
      0.5442492580D+00  0.1143456438D+01  0.7443082909D+00
 SP   1 1.00       0.000000000000
      0.1687144782D+00  0.1000000000D+01  0.1000000000D+01
 D   1 1.00       0.000000000000
      0.8000000000D+00  0.1000000000D+01
 ****
     68 0
 S   3 1.00       0.000000000000
      0.1873113696D+02  0.3349460434D-01
      0.2825394365D+01  0.2347269535D+00
      0.6401216923D+00  0.8137573261D+00
 S   1 1.00       0.000000000000
      0.1612777588D+00  0.1000000000D+01
 ****
     69 0
 S   3 1.00       0.000000000000
      0.1873113696D+02  0.3349460434D-01
      0.2825394365D+01  0.2347269535D+00
      0.6401216923D+00  0.8137573261D+00
 S   1 1.00       0.000000000000
      0.1612777588D+00  0.1000000000D+01
 ****
     70 0
 S   3 1.00       0.000000000000
      0.1873113696D+02  0.3349460434D-01
      0.2825394365D+01  0.2347269535D+00
      0.6401216923D+00  0.8137573261D+00
 S   1 1.00       0.000000000000
      0.1612777588D+00  0.1000000000D+01
 ****
     71 0
 S   6 1.00       0.000000000000
      0.3047524880D+04  0.1834737132D-02
      0.4573695180D+03  0.1403732281D-01
      0.1039486850D+03  0.6884262226D-01
      0.2921015530D+02  0.2321844432D+00
      0.9286662960D+01  0.4679413484D+00
      0.3163926960D+01  0.3623119853D+00
 SP   3 1.00       0.000000000000
      0.7868272350D+01 -0.1193324198D+00  0.6899906659D-01
      0.1881288540D+01 -0.1608541517D+00  0.3164239610D+00
      0.5442492580D+00  0.1143456438D+01  0.7443082909D+00
 SP   1 1.00       0.000000000000
      0.1687144782D+00  0.1000000000D+01  0.1000000000D+01
 D   1 1.00       0.000000000000
      0.8000000000D+00  0.1000000000D+01
 ****
     72 0
 S   3 1.00       0.000000000000
      0.1873113696D+02  0.3349460434D-01
      0.2825394365D+01  0.2347269535D+00
      0.6401216923D+00  0.8137573261D+00
 S   1 1.00       0.000000000000
      0.1612777588D+00  0.1000000000D+01
 ****
     73 0
 S   3 1.00       0.000000000000
      0.1873113696D+02  0.3349460434D-01
      0.2825394365D+01  0.2347269535D+00
      0.6401216923D+00  0.8137573261D+00
 S   1 1.00       0.000000000000
      0.1612777588D+00  0.1000000000D+01
 ****
     74 0
 S   3 1.00       0.000000000000
      0.1873113696D+02  0.3349460434D-01
      0.2825394365D+01  0.2347269535D+00
      0.6401216923D+00  0.8137573261D+00
 S   1 1.00       0.000000000000
      0.1612777588D+00  0.1000000000D+01
 ****

 AO basis set (Overlap normalization):
 Atom O1       Shell     1 S   6     bf    1 -     1          7.850432336398         12.373321495547          7.837051771467
      0.5484671660D+04  0.1831074430D-02
      0.8252349460D+03  0.1395017220D-01
      0.1880469580D+03  0.6844507810D-01
      0.5296450000D+02  0.2327143360D+00
      0.1689757040D+02  0.4701928980D+00
      0.5799635340D+01  0.3585208530D+00
 Atom O1       Shell     2 SP   3    bf    2 -     5          7.850432336398         12.373321495547          7.837051771467
      0.1553961625D+02 -0.1107775495D+00  0.7087426823D-01
      0.3599933586D+01 -0.1480262627D+00  0.3397528391D+00
      0.1013761750D+01  0.1130767015D+01  0.7271585773D+00
 Atom O1       Shell     3 SP   1    bf    6 -     9          7.850432336398         12.373321495547          7.837051771467
      0.2700058226D+00  0.1000000000D+01  0.1000000000D+01
 Atom O1       Shell     4 D   1     bf   10 -    15          7.850432336398         12.373321495547          7.837051771467
      0.8000000000D+00  0.1000000000D+01
 Atom H2       Shell     5 S   3     bf   16 -    16          9.316760132464         13.052908171167          6.986634817193
      0.1873113696D+02  0.3349460434D-01
      0.2825394365D+01  0.2347269535D+00
      0.6401216923D+00  0.8137573261D+00
 Atom H2       Shell     6 S   1     bf   17 -    17          9.316760132464         13.052908171167          6.986634817193
      0.1612777588D+00  0.1000000000D+01
 Atom C3       Shell     7 S   6     bf   18 -    18          0.000000000000          0.000000000000          0.000000000000
      0.3047524880D+04  0.1834737132D-02
      0.4573695180D+03  0.1403732281D-01
      0.1039486850D+03  0.6884262226D-01
      0.2921015530D+02  0.2321844432D+00
      0.9286662960D+01  0.4679413484D+00
      0.3163926960D+01  0.3623119853D+00
 Atom C3       Shell     8 SP   3    bf   19 -    22          0.000000000000          0.000000000000          0.000000000000
      0.7868272350D+01 -0.1193324198D+00  0.6899906659D-01
      0.1881288540D+01 -0.1608541517D+00  0.3164239610D+00
      0.5442492580D+00  0.1143456438D+01  0.7443082909D+00
 Atom C3       Shell     9 SP   1    bf   23 -    26          0.000000000000          0.000000000000          0.000000000000
      0.1687144782D+00  0.1000000000D+01  0.1000000000D+01
 Atom C3       Shell    10 D   1     bf   27 -    32          0.000000000000          0.000000000000          0.000000000000
      0.8000000000D+00  0.1000000000D+01
 Atom C4       Shell    11 S   6     bf   33 -    33          2.534803158991          1.158513159766         -0.901267349119
      0.3047524880D+04  0.1834737132D-02
      0.4573695180D+03  0.1403732281D-01
      0.1039486850D+03  0.6884262226D-01
      0.2921015530D+02  0.2321844432D+00
      0.9286662960D+01  0.4679413484D+00
      0.3163926960D+01  0.3623119853D+00
 Atom C4       Shell    12 SP   3    bf   34 -    37          2.534803158991          1.158513159766         -0.901267349119
      0.7868272350D+01 -0.1193324198D+00  0.6899906659D-01
      0.1881288540D+01 -0.1608541517D+00  0.3164239610D+00
      0.5442492580D+00  0.1143456438D+01  0.7443082909D+00
 Atom C4       Shell    13 SP   1    bf   38 -    41          2.534803158991          1.158513159766         -0.901267349119
      0.1687144782D+00  0.1000000000D+01  0.1000000000D+01
 Atom C4       Shell    14 D   1     bf   42 -    47          2.534803158991          1.158513159766         -0.901267349119
      0.8000000000D+00  0.1000000000D+01
 Atom H5       Shell    15 S   3     bf   48 -    48          4.015856948303          0.000000000000          0.000000000000
      0.1873113696D+02  0.3349460434D-01
      0.2825394365D+01  0.2347269535D+00
      0.6401216923D+00  0.8137573261D+00
 Atom H5       Shell    16 S   1     bf   49 -    49          4.015856948303          0.000000000000          0.000000000000
      0.1612777588D+00  0.1000000000D+01
 Atom C6       Shell    17 S   6     bf   50 -    50          3.021789778628          3.869213822446          0.000000000000
      0.3047524880D+04  0.1834737132D-02
      0.4573695180D+03  0.1403732281D-01
      0.1039486850D+03  0.6884262226D-01
      0.2921015530D+02  0.2321844432D+00
      0.9286662960D+01  0.4679413484D+00
      0.3163926960D+01  0.3623119853D+00
 Atom C6       Shell    18 SP   3    bf   51 -    54          3.021789778628          3.869213822446          0.000000000000
      0.7868272350D+01 -0.1193324198D+00  0.6899906659D-01
      0.1881288540D+01 -0.1608541517D+00  0.3164239610D+00
      0.5442492580D+00  0.1143456438D+01  0.7443082909D+00
 Atom C6       Shell    19 SP   1    bf   55 -    58          3.021789778628          3.869213822446          0.000000000000
      0.1687144782D+00  0.1000000000D+01  0.1000000000D+01
 Atom C6       Shell    20 D   1     bf   59 -    64          3.021789778628          3.869213822446          0.000000000000
      0.8000000000D+00  0.1000000000D+01
 Atom H7       Shell    21 S   3     bf   65 -    65          1.573043729941          5.128809944842         -0.792835336045
      0.1873113696D+02  0.3349460434D-01
      0.2825394365D+01  0.2347269535D+00
      0.6401216923D+00  0.8137573261D+00
 Atom H7       Shell    22 S   1     bf   66 -    66          1.573043729941          5.128809944842         -0.792835336045
      0.1612777588D+00  0.1000000000D+01
 Atom C8       Shell    23 S   6     bf   67 -    67          2.892219232340          3.969543313472          2.932025500747
      0.3047524880D+04  0.1834737132D-02
      0.4573695180D+03  0.1403732281D-01
      0.1039486850D+03  0.6884262226D-01
      0.2921015530D+02  0.2321844432D+00
      0.9286662960D+01  0.4679413484D+00
      0.3163926960D+01  0.3623119853D+00
 Atom C8       Shell    24 SP   3    bf   68 -    71          2.892219232340          3.969543313472          2.932025500747
      0.7868272350D+01 -0.1193324198D+00  0.6899906659D-01
      0.1881288540D+01 -0.1608541517D+00  0.3164239610D+00
      0.5442492580D+00  0.1143456438D+01  0.7443082909D+00
 Atom C8       Shell    25 SP   1    bf   72 -    75          2.892219232340          3.969543313472          2.932025500747
      0.1687144782D+00  0.1000000000D+01  0.1000000000D+01
 Atom C8       Shell    26 D   1     bf   76 -    81          2.892219232340          3.969543313472          2.932025500747
      0.8000000000D+00  0.1000000000D+01
 Atom H9       Shell    27 S   3     bf   82 -    82          4.539003836541          2.876716089221          3.592176985598
      0.1873113696D+02  0.3349460434D-01
      0.2825394365D+01  0.2347269535D+00
      0.6401216923D+00  0.8137573261D+00
 Atom H9       Shell    28 S   1     bf   83 -    83          4.539003836541          2.876716089221          3.592176985598
      0.1612777588D+00  0.1000000000D+01
 Atom C10      Shell    29 S   6     bf   84 -    84          0.188569837061         -2.649305104684         -1.282201706698
      0.3047524880D+04  0.1834737132D-02
      0.4573695180D+03  0.1403732281D-01
      0.1039486850D+03  0.6884262226D-01
      0.2921015530D+02  0.2321844432D+00
      0.9286662960D+01  0.4679413484D+00
      0.3163926960D+01  0.3623119853D+00
 Atom C10      Shell    30 SP   3    bf   85 -    88          0.188569837061         -2.649305104684         -1.282201706698
      0.7868272350D+01 -0.1193324198D+00  0.6899906659D-01
      0.1881288540D+01 -0.1608541517D+00  0.3164239610D+00
      0.5442492580D+00  0.1143456438D+01  0.7443082909D+00
 Atom C10      Shell    31 SP   1    bf   89 -    92          0.188569837061         -2.649305104684         -1.282201706698
      0.1687144782D+00  0.1000000000D+01  0.1000000000D+01
 Atom C10      Shell    32 D   1     bf   93 -    98          0.188569837061         -2.649305104684         -1.282201706698
      0.8000000000D+00  0.1000000000D+01
 Atom H11      Shell    33 S   3     bf   99 -    99          1.726236514294         -3.595090678733         -0.252500576047
      0.1873113696D+02  0.3349460434D-01
      0.2825394365D+01  0.2347269535D+00
      0.6401216923D+00  0.8137573261D+00
 Atom H11      Shell    34 S   1     bf  100 -   100          1.726236514294         -3.595090678733         -0.252500576047
      0.1612777588D+00  0.1000000000D+01
 Atom C12      Shell    35 S   6     bf  101 -   101          0.054684479094         -0.031924919905          2.907321394471
      0.3047524880D+04  0.1834737132D-02
      0.4573695180D+03  0.1403732281D-01
      0.1039486850D+03  0.6884262226D-01
      0.2921015530D+02  0.2321844432D+00
      0.9286662960D+01  0.4679413484D+00
      0.3163926960D+01  0.3623119853D+00
 Atom C12      Shell    36 SP   3    bf  102 -   105          0.054684479094         -0.031924919905          2.907321394471
      0.7868272350D+01 -0.1193324198D+00  0.6899906659D-01
      0.1881288540D+01 -0.1608541517D+00  0.3164239610D+00
      0.5442492580D+00  0.1143456438D+01  0.7443082909D+00
 Atom C12      Shell    37 SP   1    bf  106 -   109          0.054684479094         -0.031924919905          2.907321394471
      0.1687144782D+00  0.1000000000D+01  0.1000000000D+01
 Atom C12      Shell    38 D   1     bf  110 -   115          0.054684479094         -0.031924919905          2.907321394471
      0.8000000000D+00  0.1000000000D+01
 Atom H13      Shell    39 S   3     bf  116 -   116          1.571474350182         -1.307979838822          3.531875068807
      0.1873113696D+02  0.3349460434D-01
      0.2825394365D+01  0.2347269535D+00
      0.6401216923D+00  0.8137573261D+00
 Atom H13      Shell    40 S   1     bf  117 -   117          1.571474350182         -1.307979838822          3.531875068807
      0.1612777588D+00  0.1000000000D+01
 Atom H14      Shell    41 S   3     bf  118 -   118         -1.714066318950         -0.788737219262          3.686491043705
      0.1873113696D+02  0.3349460434D-01
      0.2825394365D+01  0.2347269535D+00
      0.6401216923D+00  0.8137573261D+00
 Atom H14      Shell    42 S   1     bf  119 -   119         -1.714066318950         -0.788737219262          3.686491043705
      0.1612777588D+00  0.1000000000D+01
 Atom C15      Shell    43 S   6     bf  120 -   120          3.274060507285          6.712895155604          3.994748745194
      0.3047524880D+04  0.1834737132D-02
      0.4573695180D+03  0.1403732281D-01
      0.1039486850D+03  0.6884262226D-01
      0.2921015530D+02  0.2321844432D+00
      0.9286662960D+01  0.4679413484D+00
      0.3163926960D+01  0.3623119853D+00
 Atom C15      Shell    44 SP   3    bf  121 -   124          3.274060507285          6.712895155604          3.994748745194
      0.7868272350D+01 -0.1193324198D+00  0.6899906659D-01
      0.1881288540D+01 -0.1608541517D+00  0.3164239610D+00
      0.5442492580D+00  0.1143456438D+01  0.7443082909D+00
 Atom C15      Shell    45 SP   1    bf  125 -   128          3.274060507285          6.712895155604          3.994748745194
      0.1687144782D+00  0.1000000000D+01  0.1000000000D+01
 Atom C15      Shell    46 D   1     bf  129 -   134          3.274060507285          6.712895155604          3.994748745194
      0.8000000000D+00  0.1000000000D+01
 Atom C16      Shell    47 S   6     bf  135 -   135          2.633850659808          0.540078872183         -3.745333846257
      0.3047524880D+04  0.1834737132D-02
      0.4573695180D+03  0.1403732281D-01
      0.1039486850D+03  0.6884262226D-01
      0.2921015530D+02  0.2321844432D+00
      0.9286662960D+01  0.4679413484D+00
      0.3163926960D+01  0.3623119853D+00
 Atom C16      Shell    48 SP   3    bf  136 -   139          2.633850659808          0.540078872183         -3.745333846257
      0.7868272350D+01 -0.1193324198D+00  0.6899906659D-01
      0.1881288540D+01 -0.1608541517D+00  0.3164239610D+00
      0.5442492580D+00  0.1143456438D+01  0.7443082909D+00
 Atom C16      Shell    49 SP   1    bf  140 -   143          2.633850659808          0.540078872183         -3.745333846257
      0.1687144782D+00  0.1000000000D+01  0.1000000000D+01
 Atom C16      Shell    50 D   1     bf  144 -   149          2.633850659808          0.540078872183         -3.745333846257
      0.8000000000D+00  0.1000000000D+01
 Atom H17      Shell    51 S   3     bf  150 -   150          4.573360418240          0.448414096730         -4.458369260245
      0.1873113696D+02  0.3349460434D-01
      0.2825394365D+01  0.2347269535D+00
      0.6401216923D+00  0.8137573261D+00
 Atom H17      Shell    52 S   1     bf  151 -   151          4.573360418240          0.448414096730         -4.458369260245
      0.1612777588D+00  0.1000000000D+01
 Atom H18      Shell    53 S   3     bf  152 -   152          1.662917933190          2.001246638762         -4.850092895797
      0.1873113696D+02  0.3349460434D-01
      0.2825394365D+01  0.2347269535D+00
      0.6401216923D+00  0.8137573261D+00
 Atom H18      Shell    54 S   1     bf  153 -   153          1.662917933190          2.001246638762         -4.850092895797
      0.1612777588D+00  0.1000000000D+01
 Atom C19      Shell    55 S   6     bf  154 -   154          0.516188236315          2.631932417708          4.001272344366
      0.3047524880D+04  0.1834737132D-02
      0.4573695180D+03  0.1403732281D-01
      0.1039486850D+03  0.6884262226D-01
      0.2921015530D+02  0.2321844432D+00
      0.9286662960D+01  0.4679413484D+00
      0.3163926960D+01  0.3623119853D+00
 Atom C19      Shell    56 SP   3    bf  155 -   158          0.516188236315          2.631932417708          4.001272344366
      0.7868272350D+01 -0.1193324198D+00  0.6899906659D-01
      0.1881288540D+01 -0.1608541517D+00  0.3164239610D+00
      0.5442492580D+00  0.1143456438D+01  0.7443082909D+00
 Atom C19      Shell    57 SP   1    bf  159 -   162          0.516188236315          2.631932417708          4.001272344366
      0.1687144782D+00  0.1000000000D+01  0.1000000000D+01
 Atom C19      Shell    58 D   1     bf  163 -   168          0.516188236315          2.631932417708          4.001272344366
      0.8000000000D+00  0.1000000000D+01
 Atom H20      Shell    59 S   3     bf  169 -   169         -1.161550025251          3.789965964981          3.649925050904
      0.1873113696D+02  0.3349460434D-01
      0.2825394365D+01  0.2347269535D+00
      0.6401216923D+00  0.8137573261D+00
 Atom H20      Shell    60 S   1     bf  170 -   170         -1.161550025251          3.789965964981          3.649925050904
      0.1612777588D+00  0.1000000000D+01
 Atom H21      Shell    61 S   3     bf  171 -   171          0.677748746881          2.479432539236          6.059974367650
      0.1873113696D+02  0.3349460434D-01
      0.2825394365D+01  0.2347269535D+00
      0.6401216923D+00  0.8137573261D+00
 Atom H21      Shell    62 S   1     bf  172 -   172          0.677748746881          2.479432539236          6.059974367650
      0.1612777588D+00  0.1000000000D+01
 Atom C22      Shell    63 S   6     bf  173 -   173          1.237555093775         -2.048668786943         -3.973577349642
      0.3047524880D+04  0.1834737132D-02
      0.4573695180D+03  0.1403732281D-01
      0.1039486850D+03  0.6884262226D-01
      0.2921015530D+02  0.2321844432D+00
      0.9286662960D+01  0.4679413484D+00
      0.3163926960D+01  0.3623119853D+00
 Atom C22      Shell    64 SP   3    bf  174 -   177          1.237555093775         -2.048668786943         -3.973577349642
      0.7868272350D+01 -0.1193324198D+00  0.6899906659D-01
      0.1881288540D+01 -0.1608541517D+00  0.3164239610D+00
      0.5442492580D+00  0.1143456438D+01  0.7443082909D+00
 Atom C22      Shell    65 SP   1    bf  178 -   181          1.237555093775         -2.048668786943         -3.973577349642
      0.1687144782D+00  0.1000000000D+01  0.1000000000D+01
 Atom C22      Shell    66 D   1     bf  182 -   187          1.237555093775         -2.048668786943         -3.973577349642
      0.8000000000D+00  0.1000000000D+01
 Atom H23      Shell    67 S   3     bf  188 -   188         -0.283257399538         -1.922359756783         -5.366588760629
      0.1873113696D+02  0.3349460434D-01
      0.2825394365D+01  0.2347269535D+00
      0.6401216923D+00  0.8137573261D+00
 Atom H23      Shell    68 S   1     bf  189 -   189         -0.283257399538         -1.922359756783         -5.366588760629
      0.1612777588D+00  0.1000000000D+01
 Atom H24      Shell    69 S   3     bf  190 -   190          2.505742100143         -3.546784422181         -4.628675725711
      0.1873113696D+02  0.3349460434D-01
      0.2825394365D+01  0.2347269535D+00
      0.6401216923D+00  0.8137573261D+00
 Atom H24      Shell    70 S   1     bf  191 -   191          2.505742100143         -3.546784422181         -4.628675725711
      0.1612777588D+00  0.1000000000D+01
 Atom C25      Shell    71 S   6     bf  192 -   192          5.614344347740          4.818542557406         -0.901182594902
      0.3047524880D+04  0.1834737132D-02
      0.4573695180D+03  0.1403732281D-01
      0.1039486850D+03  0.6884262226D-01
      0.2921015530D+02  0.2321844432D+00
      0.9286662960D+01  0.4679413484D+00
      0.3163926960D+01  0.3623119853D+00
 Atom C25      Shell    72 SP   3    bf  193 -   196          5.614344347740          4.818542557406         -0.901182594902
      0.7868272350D+01 -0.1193324198D+00  0.6899906659D-01
      0.1881288540D+01 -0.1608541517D+00  0.3164239610D+00
      0.5442492580D+00  0.1143456438D+01  0.7443082909D+00
 Atom C25      Shell    73 SP   1    bf  197 -   200          5.614344347740          4.818542557406         -0.901182594902
      0.1687144782D+00  0.1000000000D+01  0.1000000000D+01
 Atom C25      Shell    74 D   1     bf  201 -   206          5.614344347740          4.818542557406         -0.901182594902
      0.8000000000D+00  0.1000000000D+01
 Atom H26      Shell    75 S   3     bf  207 -   207          5.555018625675          5.224334221359         -2.935601561789
      0.1873113696D+02  0.3349460434D-01
      0.2825394365D+01  0.2347269535D+00
      0.6401216923D+00  0.8137573261D+00
 Atom H26      Shell    76 S   1     bf  208 -   208          5.555018625675          5.224334221359         -2.935601561789
      0.1612777588D+00  0.1000000000D+01
 Atom H27      Shell    77 S   3     bf  209 -   209          7.023562163426          3.298526867117         -0.684859257196
      0.1873113696D+02  0.3349460434D-01
      0.2825394365D+01  0.2347269535D+00
      0.6401216923D+00  0.8137573261D+00
 Atom H27      Shell    78 S   1     bf  210 -   210          7.023562163426          3.298526867117         -0.684859257196
      0.1612777588D+00  0.1000000000D+01
 Atom C28      Shell    79 S   6     bf  211 -   211         -2.103860071688         -4.487434363107         -1.096185059719
      0.3047524880D+04  0.1834737132D-02
      0.4573695180D+03  0.1403732281D-01
      0.1039486850D+03  0.6884262226D-01
      0.2921015530D+02  0.2321844432D+00
      0.9286662960D+01  0.4679413484D+00
      0.3163926960D+01  0.3623119853D+00
 Atom C28      Shell    80 SP   3    bf  212 -   215         -2.103860071688         -4.487434363107         -1.096185059719
      0.7868272350D+01 -0.1193324198D+00  0.6899906659D-01
      0.1881288540D+01 -0.1608541517D+00  0.3164239610D+00
      0.5442492580D+00  0.1143456438D+01  0.7443082909D+00
 Atom C28      Shell    81 SP   1    bf  216 -   219         -2.103860071688         -4.487434363107         -1.096185059719
      0.1687144782D+00  0.1000000000D+01  0.1000000000D+01
 Atom C28      Shell    82 D   1     bf  220 -   225         -2.103860071688         -4.487434363107         -1.096185059719
      0.8000000000D+00  0.1000000000D+01
 Atom H29      Shell    83 S   3     bf  226 -   226         -3.041245397337         -4.071417561124          0.709998624092
      0.1873113696D+02  0.3349460434D-01
      0.2825394365D+01  0.2347269535D+00
      0.6401216923D+00  0.8137573261D+00
 Atom H29      Shell    84 S   1     bf  227 -   227         -3.041245397337         -4.071417561124          0.709998624092
      0.1612777588D+00  0.1000000000D+01
 Atom C30      Shell    85 S   6     bf  228 -   228         -2.318744345149          1.500636340926         -0.945252614588
      0.3047524880D+04  0.1834737132D-02
      0.4573695180D+03  0.1403732281D-01
      0.1039486850D+03  0.6884262226D-01
      0.2921015530D+02  0.2321844432D+00
      0.9286662960D+01  0.4679413484D+00
      0.3163926960D+01  0.3623119853D+00
 Atom C30      Shell    86 SP   3    bf  229 -   232         -2.318744345149          1.500636340926         -0.945252614588
      0.7868272350D+01 -0.1193324198D+00  0.6899906659D-01
      0.1881288540D+01 -0.1608541517D+00  0.3164239610D+00
      0.5442492580D+00  0.1143456438D+01  0.7443082909D+00
 Atom C30      Shell    87 SP   1    bf  233 -   236         -2.318744345149          1.500636340926         -0.945252614588
      0.1687144782D+00  0.1000000000D+01  0.1000000000D+01
 Atom C30      Shell    88 D   1     bf  237 -   242         -2.318744345149          1.500636340926         -0.945252614588
      0.8000000000D+00  0.1000000000D+01
 Atom H31      Shell    89 S   3     bf  243 -   243         -4.068145254661          0.630840264057         -0.264167934164
      0.1873113696D+02  0.3349460434D-01
      0.2825394365D+01  0.2347269535D+00
      0.6401216923D+00  0.8137573261D+00
 Atom H31      Shell    90 S   1     bf  244 -   244         -4.068145254661          0.630840264057         -0.264167934164
      0.1612777588D+00  0.1000000000D+01
 Atom H32      Shell    91 S   3     bf  245 -   245         -2.308671934786          3.452928830530         -0.272695228853
      0.1873113696D+02  0.3349460434D-01
      0.2825394365D+01  0.2347269535D+00
      0.6401216923D+00  0.8137573261D+00
 Atom H32      Shell    92 S   1     bf  246 -   246         -2.308671934786          3.452928830530         -0.272695228853
      0.1612777588D+00  0.1000000000D+01
 Atom H33      Shell    93 S   3     bf  247 -   247         -2.416779633060          1.572304979304         -3.008532253764
      0.1873113696D+02  0.3349460434D-01
      0.2825394365D+01  0.2347269535D+00
      0.6401216923D+00  0.8137573261D+00
 Atom H33      Shell    94 S   1     bf  248 -   248         -2.416779633060          1.572304979304         -3.008532253764
      0.1612777588D+00  0.1000000000D+01
 Atom C34      Shell    95 S   6     bf  249 -   249          5.485108849895          8.013710570225          2.638709825997
      0.3047524880D+04  0.1834737132D-02
      0.4573695180D+03  0.1403732281D-01
      0.1039486850D+03  0.6884262226D-01
      0.2921015530D+02  0.2321844432D+00
      0.9286662960D+01  0.4679413484D+00
      0.3163926960D+01  0.3623119853D+00
 Atom C34      Shell    96 SP   3    bf  250 -   253          5.485108849895          8.013710570225          2.638709825997
      0.7868272350D+01 -0.1193324198D+00  0.6899906659D-01
      0.1881288540D+01 -0.1608541517D+00  0.3164239610D+00
      0.5442492580D+00  0.1143456438D+01  0.7443082909D+00
 Atom C34      Shell    97 SP   1    bf  254 -   257          5.485108849895          8.013710570225          2.638709825997
      0.1687144782D+00  0.1000000000D+01  0.1000000000D+01
 Atom C34      Shell    98 D   1     bf  258 -   263          5.485108849895          8.013710570225          2.638709825997
      0.8000000000D+00  0.1000000000D+01
 Atom C35      Shell    99 S   6     bf  264 -   264          3.939124165143          6.528029710887          6.862194064774
      0.3047524880D+04  0.1834737132D-02
      0.4573695180D+03  0.1403732281D-01
      0.1039486850D+03  0.6884262226D-01
      0.2921015530D+02  0.2321844432D+00
      0.9286662960D+01  0.4679413484D+00
      0.3163926960D+01  0.3623119853D+00
 Atom C35      Shell   100 SP   3    bf  265 -   268          3.939124165143          6.528029710887          6.862194064774
      0.7868272350D+01 -0.1193324198D+00  0.6899906659D-01
      0.1881288540D+01 -0.1608541517D+00  0.3164239610D+00
      0.5442492580D+00  0.1143456438D+01  0.7443082909D+00
 Atom C35      Shell   101 SP   1    bf  269 -   272          3.939124165143          6.528029710887          6.862194064774
      0.1687144782D+00  0.1000000000D+01  0.1000000000D+01
 Atom C35      Shell   102 D   1     bf  273 -   278          3.939124165143          6.528029710887          6.862194064774
      0.8000000000D+00  0.1000000000D+01
 Atom H36      Shell   103 S   3     bf  279 -   279          5.414277719243          5.084510625787          7.092391167035
      0.1873113696D+02  0.3349460434D-01
      0.2825394365D+01  0.2347269535D+00
      0.6401216923D+00  0.8137573261D+00
 Atom H36      Shell   104 S   1     bf  280 -   280          5.414277719243          5.084510625787          7.092391167035
      0.1612777588D+00  0.1000000000D+01
 Atom H37      Shell   105 S   3     bf  281 -   281          2.287143796735          5.851385301061          7.910032295520
      0.1873113696D+02  0.3349460434D-01
      0.2825394365D+01  0.2347269535D+00
      0.6401216923D+00  0.8137573261D+00
 Atom H37      Shell   106 S   1     bf  282 -   282          2.287143796735          5.851385301061          7.910032295520
      0.1612777588D+00  0.1000000000D+01
 Atom C38      Shell   107 S   6     bf  283 -   283          6.506272594721          7.122493276010          0.497083067317
      0.3047524880D+04  0.1834737132D-02
      0.4573695180D+03  0.1403732281D-01
      0.1039486850D+03  0.6884262226D-01
      0.2921015530D+02  0.2321844432D+00
      0.9286662960D+01  0.4679413484D+00
      0.3163926960D+01  0.3623119853D+00
 Atom C38      Shell   108 SP   3    bf  284 -   287          6.506272594721          7.122493276010          0.497083067317
      0.7868272350D+01 -0.1193324198D+00  0.6899906659D-01
      0.1881288540D+01 -0.1608541517D+00  0.3164239610D+00
      0.5442492580D+00  0.1143456438D+01  0.7443082909D+00
 Atom C38      Shell   109 SP   1    bf  288 -   291          6.506272594721          7.122493276010          0.497083067317
      0.1687144782D+00  0.1000000000D+01  0.1000000000D+01
 Atom C38      Shell   110 D   1     bf  292 -   297          6.506272594721          7.122493276010          0.497083067317
      0.8000000000D+00  0.1000000000D+01
 Atom H39      Shell   111 S   3     bf  298 -   298          8.106670148230          8.129067938247         -0.323318913254
      0.1873113696D+02  0.3349460434D-01
      0.2825394365D+01  0.2347269535D+00
      0.6401216923D+00  0.8137573261D+00
 Atom H39      Shell   112 S   1     bf  299 -   299          8.106670148230          8.129067938247         -0.323318913254
      0.1612777588D+00  0.1000000000D+01
 Atom C40      Shell   113 S   6     bf  300 -   300          0.864657684746          8.351002099608          3.652777686988
      0.3047524880D+04  0.1834737132D-02
      0.4573695180D+03  0.1403732281D-01
      0.1039486850D+03  0.6884262226D-01
      0.2921015530D+02  0.2321844432D+00
      0.9286662960D+01  0.4679413484D+00
      0.3163926960D+01  0.3623119853D+00
 Atom C40      Shell   114 SP   3    bf  301 -   304          0.864657684746          8.351002099608          3.652777686988
      0.7868272350D+01 -0.1193324198D+00  0.6899906659D-01
      0.1881288540D+01 -0.1608541517D+00  0.3164239610D+00
      0.5442492580D+00  0.1143456438D+01  0.7443082909D+00
[...]
 1546 Fit       0.000242
 1547 Fit       0.001850
 1548 Fit       0.001801
 1549 Fit      -0.000656
 1550 Fit       0.001038
 1551 Fit      -0.000481
 1552 Fit       0.000648
 1553 Fit      -0.000419
 1554 Fit       0.001192
 1555 Fit       0.002187
 1556 Fit       0.002258
 1557 Fit       0.001068
 1558 Fit      -0.001116
 1559 Fit       0.003186
 1560 Fit       0.002629
 1561 Fit       0.001420
 1562 Fit      -0.000524
 1563 Fit       0.001300
 1564 Fit      -0.000415
 1565 Fit      -0.001170
 1566 Fit       0.000244
 1567 Fit       0.001364
 1568 Fit      -0.000510
 1569 Fit       0.001267
 1570 Fit       0.002532
 1571 Fit       0.001564
 1572 Fit       0.002513
 1573 Fit      -0.001133
 1574 Fit      -0.002240
 1575 Fit      -0.002319
 1576 Fit      -0.002087
 1577 Fit      -0.002718
 1578 Fit      -0.002653
 1579 Fit      -0.000912
 1580 Fit      -0.001796
 1581 Fit      -0.002395
 1582 Fit       0.001535
 1583 Fit      -0.000189
 1584 Fit       0.003027
 1585 Fit       0.001977
 1586 Fit       0.000083
 1587 Fit       0.001707
 1588 Fit       0.002729
 1589 Fit       0.002464
 1590 Fit       0.000935
 1591 Fit      -0.001464
 1592 Fit       0.001071
 1593 Fit       0.000545
 1594 Fit      -0.001944
 1595 Fit      -0.001186
 1596 Fit       0.002256
 1597 Fit      -0.000089
 1598 Fit       0.001750
 1599 Fit       0.002791
 1600 Fit       0.002894
 1601 Fit      -0.000706
 1602 Fit       0.001120
 1603 Fit       0.001991
 1604 Fit       0.001604
 1605 Fit      -0.000049
 1606 Fit      -0.000656
 1607 Fit       0.000131
 1608 Fit      -0.000609
 1609 Fit      -0.001115
 1610 Fit      -0.000583
 1611 Fit       0.001313
 1612 Fit       0.002443
 1613 Fit       0.000439
 1614 Fit      -0.001592
 1615 Fit      -0.001044
 1616 Fit       0.001026
 1617 Fit       0.002582
 1618 Fit       0.001035
 1619 Fit      -0.024044
 1620 Fit      -0.020827
 1621 Fit      -0.023249
 1622 Fit      -0.026228
 1623 Fit      -0.023792
 1624 Fit      -0.019258
 1625 Fit      -0.013096
 1626 Fit      -0.013493
 1627 Fit      -0.017130
 1628 Fit      -0.022461
 1629 Fit      -0.026071
 1630 Fit      -0.025558
 1631 Fit      -0.013807
 1632 Fit      -0.011290
 1633 Fit      -0.019153
 1634 Fit      -0.023981
 1635 Fit      -0.023819
 1636 Fit      -0.004076
 1637 Fit      -0.008440
 1638 Fit      -0.016817
 1639 Fit      -0.020600
 1640 Fit      -0.018526
 1641 Fit      -0.006786
 1642 Fit      -0.013692
 1643 Fit       0.000643
 1644 Fit       0.000684
 1645 Fit       0.010701
 1646 Fit       0.010695
 1647 Fit       0.007745
 1648 Fit       0.001226
 1649 Fit       0.008298
 1650 Fit       0.016556
 1651 Fit       0.016118
 1652 Fit       0.013234
 1653 Fit       0.007444
 1654 Fit      -0.001767
 1655 Fit       0.015025
 1656 Fit       0.019213
 1657 Fit       0.017830
 1658 Fit       0.013493
 1659 Fit       0.005994
 1660 Fit       0.003777
 1661 Fit       0.003518
 1662 Fit       0.003566
 1663 Fit       0.002851
 1664 Fit       0.003235
 1665 Fit       0.000480
 1666 Fit       0.002592
 1667 Fit       0.002254
 1668 Fit       0.002885
 1669 Fit       0.003113
 1670 Fit      -0.000144
 1671 Fit       0.003251
 1672 Fit       0.002349
 1673 Fit       0.003415
 1674 Fit       0.002773
 1675 Fit       0.002028
 1676 Fit       0.000704
 1677 Fit       0.000873
 1678 Fit       0.000035
 1679 Fit       0.000133
 1680 Fit       0.001866
 1681 Fit       0.001398
 1682 Fit       0.002806
 1683 Fit       0.000810
 1684 Fit       0.002093
 1685 Fit       0.002723
 1686 Fit       0.002735
 1687 Fit       0.003297
 1688 Fit       0.003577
 1689 Fit       0.001876
 1690 Fit       0.001455
 1691 Fit       0.002271
 1692 Fit       0.003057
 1693 Fit       0.002800
 1694 Fit       0.001182
 1695 Fit       0.002074
 1696 Fit       0.003169
 1697 Fit       0.002319
 1698 Fit      -0.000558
 1699 Fit      -0.000359
 1700 Fit       0.000317
 1701 Fit      -0.001262
 1702 Fit      -0.000826
 1703 Fit       0.002454
 1704 Fit       0.003071
 1705 Fit       0.003090
 1706 Fit       0.002549
 1707 Fit       0.002372
 1708 Fit       0.002914
 1709 Fit       0.002509
 1710 Fit       0.002214
 1711 Fit       0.001717
 1712 Fit       0.002142
 1713 Fit       0.001169
 1714 Fit       0.000447
 1715 Fit       0.000270
 1716 Fit       0.002564
 1717 Fit       0.003033
 1718 Fit       0.001843
 1719 Fit       0.002460
 1720 Fit       0.003107
 1721 Fit       0.003833
 1722 Fit       0.000973
 1723 Fit       0.002046
 1724 Fit       0.002049
 1725 Fit       0.000467
 1726 Fit       0.001332
 1727 Fit       0.002408
 1728 Fit       0.002885
 1729 Fit       0.002003
 1730 Fit       0.002631
 1731 Fit       0.003432
 1732 Fit       0.003000
 1733 Fit       0.002588
 1734 Fit       0.002513
 1735 Fit       0.002224
 1736 Fit       0.001774
 1737 Fit       0.001653
 1738 Fit       0.001450
 1739 Fit       0.001803
 1740 Fit       0.001858
 1741 Fit      -0.000336
 1742 Fit       0.000055
 1743 Fit      -0.001135
 1744 Fit      -0.000851
 1745 Fit      -0.000713
 1746 Fit       0.003452
 1747 Fit       0.002261
 1748 Fit       0.000099
 1749 Fit       0.001806
 1750 Fit       0.001668
 1751 Fit       0.000923
 1752 Fit      -0.000488
 1753 Fit       0.000585
 1754 Fit       0.002318
 1755 Fit       0.002013
 1756 Fit       0.002303
 1757 Fit       0.002249
 1758 Fit       0.002578
 1759 Fit       0.002485
 1760 Fit       0.002425
 1761 Fit       0.001408
 1762 Fit       0.001490
 1763 Fit       0.001937
 1764 Fit       0.001929
 1765 Fit       0.000168
 1766 Fit      -0.000198
 1767 Fit       0.000672
 1768 Fit       0.002691
 1769 Fit       0.002809
 1770 Fit      -0.002755
 1771 Fit       0.002260
 1772 Fit       0.002947
 1773 Fit       0.003535
 1774 Fit       0.002606
 1775 Fit       0.001268
 1776 Fit       0.001358
 1777 Fit       0.002390
 1778 Fit       0.002955
 1779 Fit       0.003029
 1780 Fit       0.002552
 1781 Fit       0.002511
 1782 Fit      -0.001109
 1783 Fit       0.003285
 1784 Fit       0.001755
 1785 Fit       0.001288
 1786 Fit       0.003377
 1787 Fit       0.002547
 1788 Fit       0.002402
 1789 Fit       0.003411
 1790 Fit       0.002923
 1791 Fit       0.002338
 1792 Fit       0.002782
 1793 Fit       0.002751
 1794 Fit       0.001024
 1795 Fit       0.000714
 1796 Fit      -0.000064
 1797 Fit      -0.000243
 1798 Fit       0.001493
 1799 Fit       0.000393
 1800 Fit       0.000120
 1801 Fit       0.000938
 1802 Fit       0.002300
 1803 Fit       0.000810
 1804 Fit       0.001288
 1805 Fit       0.000998
 1806 Fit       0.001131
 1807 Fit       0.001502
 1808 Fit       0.001965
 1809 Fit       0.000664
 1810 Fit       0.003204
 1811 Fit       0.001381
 1812 Fit       0.002123
 1813 Fit       0.002405
 1814 Fit       0.001997
 1815 Fit       0.002351
 1816 Fit       0.003578
 1817 Fit       0.003733
 1818 Fit       0.004394
 1819 Fit       0.000738
 1820 Fit       0.001535
 1821 Fit       0.000588
 1822 Fit       0.001369
 1823 Fit       0.001144
 1824 Fit       0.001702
 1825 Fit       0.001819
 1826 Fit       0.001879
 1827 Fit       0.002494
 1828 Fit       0.002712
 1829 Fit       0.002608
 1830 Fit       0.002879
 1831 Fit       0.001731
 1832 Fit       0.000077
 1833 Fit       0.001265
 1834 Fit       0.001687
 1835 Fit       0.000420
 1836 Fit       0.001763
 1837 Fit       0.003041
 1838 Fit       0.003496
 1839 Fit       0.002554
 1840 Fit       0.003597
 1841 Fit       0.000806
 1842 Fit      -0.002885
 1843 Fit      -0.002786
 1844 Fit      -0.000620
 1845 Fit       0.001765
 1846 Fit      -0.003658
 1847 Fit      -0.006693
 1848 Fit      -0.005814
 1849 Fit      -0.001999
 1850 Fit      -0.003465
 1851 Fit       0.005208
 1852 Fit       0.009082
 1853 Fit       0.005730
 1854 Fit       0.007469
 1855 Fit       0.007793
 1856 Fit       0.003642
 1857 Fit       0.005593
 1858 Fit       0.006121
 1859 Fit       0.004689
 1860 Fit       0.000826
 1861 Fit       0.004239
 1862 Fit       0.004812
 1863 Fit       0.003926
 1864 Fit      -0.001304
 1865 Fit      -0.001294
 1866 Fit      -0.001423
 1867 Fit      -0.001678
 1868 Fit      -0.001422
 1869 Fit      -0.000286
 1870 Fit      -0.001600
 1871 Fit      -0.006085
 1872 Fit       0.000057
 1873 Fit       0.002107
 1874 Fit      -0.000451
 1875 Fit       0.001395
 1876 Fit       0.002775
 1877 Fit       0.000384
 1878 Fit       0.002038
 1879 Fit       0.003150
 1880 Fit      -0.000321
 1881 Fit       0.001544
 1882 Fit      -0.001478
 1883 Fit      -0.001089
 1884 Fit      -0.001129
 1885 Fit      -0.000344
 1886 Fit      -0.001100
 1887 Fit      -0.001011
 1888 Fit      -0.001101
 1889 Fit       0.000008
 1890 Fit       0.001500
 1891 Fit      -0.004259
 1892 Fit      -0.001183
 1893 Fit       0.000482
 1894 Fit       0.001947
 1895 Fit      -0.001746
 1896 Fit       0.001196
 1897 Fit       0.003329
 1898 Fit       0.000083
 1899 Fit      -0.001403
 1900 Fit       0.015488
 1901 Fit       0.009118
 1902 Fit       0.010946
 1903 Fit       0.012626
 1904 Fit       0.011483
 1905 Fit       0.006861
 1906 Fit       0.007483
 1907 Fit       0.009536
 1908 Fit       0.008823
 1909 Fit       0.006180
 1910 Fit       0.001991
 1911 Fit       0.005011
 1912 Fit      -0.000296
 1913 Fit      -0.007049
 1914 Fit      -0.003181
 1915 Fit      -0.001459
 1916 Fit      -0.001945
 1917 Fit      -0.000637
 1918 Fit      -0.000878
 1919 Fit      -0.000890
 1920 Fit      -0.002940
 1921 Fit      -0.019379
 1922 Fit      -0.010407
 1923 Fit      -0.005293
 1924 Fit      -0.002040
 1925 Fit      -0.010971
 1926 Fit      -0.016354
 1927 Fit      -0.007766
 1928 Fit      -0.004007
 1929 Fit      -0.013709
 1930 Fit      -0.005809
 1931 Fit      -0.002557
 1932 Fit      -0.001107
 1933 Fit      -0.009515
 1934 Fit      -0.002662
 1935 Fit      -0.004676
 1936 Fit      -0.006214
 1937 Fit      -0.010683
 1938 Fit      -0.008307
 1939 Fit      -0.003955
 1940 Fit      -0.001751
 1941 Fit      -0.002270
 1942 Fit      -0.008474
 1943 Fit      -0.018696
 1944 Fit      -0.018391
 1945 Fit      -0.002006
 1946 Fit      -0.000425
 1947 Fit      -0.000217
 1948 Fit      -0.000612
 1949 Fit      -0.002739
 1950 Fit       0.000229
 1951 Fit      -0.002223
 1952 Fit       0.000459
 1953 Fit       0.000587
 1954 Fit       0.002272
 1955 Fit       0.002258
 1956 Fit       0.001284
 1957 Fit       0.001778
 1958 Fit       0.000686
 1959 Fit       0.001263
 1960 Fit       0.001377
 1961 Fit       0.001106
 1962 Fit       0.000700
 1963 Fit       0.000792
 1964 Fit       0.001094
 1965 Fit       0.001434
 1966 Fit       0.001193
 1967 Fit      -0.007841
 1968 Fit      -0.002628
 1969 Fit      -0.001445
 1970 Fit       0.001161
 1971 Fit       0.000255
 1972 Fit       0.004230
 1973 Fit       0.002538
 1974 Fit       0.002971
 1975 Fit       0.007371
 1976 Fit       0.000917
 1977 Fit       0.002092
 1978 Fit       0.004061
 1979 Fit       0.007617
 1980 Fit       0.001775
 1981 Fit       0.000691
 1982 Fit      -0.000268
 1983 Fit       0.001068
 1984 Fit      -0.000987
 1985 Fit      -0.001398
 1986 Fit      -0.001681
 1987 Fit      -0.001888
 1988 Fit      -0.001293
 1989 Fit       0.000445
 1990 Fit      -0.001709
 1991 Fit      -0.001826
 1992 Fit      -0.001257
 1993 Fit      -0.000767
 1994 Fit       0.001659
 1995 Fit      -0.000917
 1996 Fit      -0.000069
 1997 Fit       0.000723
 1998 Fit      -0.000736
 1999 Fit      -0.000139
 2000 Fit       0.000772
 2001 Fit       0.001658
 2002 Fit       0.002140
 2003 Fit       0.000822
 2004 Fit       0.001572
 2005 Fit       0.001663
 2006 Fit       0.000943
 2007 Fit      -0.000056
 2008 Fit       0.001065
 2009 Fit       0.000036
 2010 Fit       0.002035
 2011 Fit       0.000812
 2012 Fit      -0.000914
 2013 Fit       0.002733
 2014 Fit       0.000850
 2015 Fit      -0.001031
 2016 Fit      -0.000134
 2017 Fit       0.001383
 2018 Fit       0.002380
 2019 Fit       0.001735
 2020 Fit       0.000649
 2021 Fit       0.000452
 2022 Fit       0.000365
 2023 Fit       0.001434
 2024 Fit       0.002741
 2025 Fit      -0.000546
 2026 Fit       0.000578
 2027 Fit       0.001745
 2028 Fit       0.002099
 2029 Fit      -0.001214
 2030 Fit      -0.000104
 2031 Fit       0.000979
 2032 Fit       0.000580
 2033 Fit      -0.000559
 2034 Fit       0.001247
 2035 Fit      -0.000150
 2036 Fit       0.001069
 2037 Fit       0.000702
 2038 Fit       0.000880
 2039 Fit       0.000848
 2040 Fit       0.001405
 2041 Fit       0.001820
 2042 Fit       0.001726
 2043 Fit       0.000953
 2044 Fit       0.001469
 2045 Fit       0.002596
 2046 Fit       0.002024
 2047 Fit       0.000820
 2048 Fit       0.000204
 2049 Fit       0.000923
 2050 Fit       0.001064
 2051 Fit       0.001020
 2052 Fit       0.001662
 2053 Fit       0.001702
 2054 Fit       0.002173
 2055 Fit       0.002609
 2056 Fit       0.002419
 2057 Fit       0.002019
 2058 Fit       0.003214
 2059 Fit       0.004219
 2060 Fit       0.003727
 2061 Fit       0.002259
 2062 Fit       0.002076
 2063 Fit       0.003660
 2064 Fit       0.001568
 2065 Fit       0.001100
 2066 Fit       0.001669
 2067 Fit       0.001567
 2068 Fit       0.001574
 2069 Fit       0.001089
 2070 Fit       0.001302
 2071 Fit       0.001582
 2072 Fit       0.001570
 2073 Fit       0.001333
 2074 Fit       0.001017
 2075 Fit       0.000994
 2076 Fit       0.001271
 2077 Fit       0.001102
 2078 Fit       0.000873
 2079 Fit       0.001124
 2080 Fit       0.001092
 2081 Fit      -0.000056
 2082 Fit      -0.000795
 2083 Fit      -0.000991
 2084 Fit      -0.001481
 2085 Fit      -0.001861
 2086 Fit      -0.001445
 2087 Fit      -0.001738
 2088 Fit      -0.001708
 2089 Fit      -0.001074
 2090 Fit      -0.000001
 2091 Fit      -0.001459
 2092 Fit      -0.001280
 2093 Fit       0.001231
 2094 Fit       0.002341
 2095 Fit       0.002225
 2096 Fit       0.000793
 2097 Fit      -0.000340
 2098 Fit      -0.000061
 2099 Fit       0.001252
 2100 Fit       0.002618
 2101 Fit       0.003571
 2102 Fit      -0.000855
 2103 Fit       0.000462
 2104 Fit       0.001656
 2105 Fit       0.001862
 2106 Fit       0.000183
 2107 Fit       0.001165
 2108 Fit       0.000277
 2109 Fit      -0.000476
 2110 Fit       0.000858
 2111 Fit       0.001457
 2112 Fit       0.001460
 2113 Fit       0.000587
 2114 Fit      -0.000939
 2115 Fit       0.002195
 2116 Fit       0.002284
 2117 Fit       0.001773
 2118 Fit       0.000701
 2119 Fit      -0.000807
 2120 Fit       0.002494
 2121 Fit       0.001395
 2122 Fit       0.000203
 2123 Fit      -0.001218
 2124 Fit      -0.000808
 2125 Fit      -0.001363
 2126 Fit      -0.000450
 2127 Fit       0.000433
 2128 Fit      -0.001077
 2129 Fit       0.000027
 2130 Fit       0.001024
 2131 Fit       0.001990
 2132 Fit      -0.000045
 2133 Fit       0.001200
 2134 Fit       0.002080
 2135 Fit       0.001460
 2136 Fit       0.001871
 2137 Fit      -0.000058
 2138 Fit      -0.000267
 2139 Fit      -0.001323
 2140 Fit      -0.001511
 2141 Fit      -0.001671
 2142 Fit      -0.001423
 2143 Fit      -0.001934
 2144 Fit      -0.001899
 2145 Fit      -0.000336
 2146 Fit      -0.001151
 2147 Fit      -0.001556
 2148 Fit       0.001088
 2149 Fit       0.002526
 2150 Fit       0.001647
 2151 Fit       0.000420
 2152 Fit       0.002604
 2153 Fit       0.001979
 2154 Fit       0.000802
 2155 Fit      -0.000774
 2156 Fit       0.001363
 2157 Fit       0.001984
 2158 Fit       0.001722
 2159 Fit       0.000588
 2160 Fit      -0.001118
 2161 Fit       0.000723
 2162 Fit       0.000237
 2163 Fit       0.001892
 2164 Fit       0.000322
 2165 Fit       0.001475
 2166 Fit       0.002303
 2167 Fit      -0.000633
 2168 Fit       0.000657
 2169 Fit       0.001632
 2170 Fit       0.001934
 2171 Fit       0.001515
 2172 Fit      -0.000188
 2173 Fit       0.000736
 2174 Fit       0.000915
 2175 Fit       0.000251
 2176 Fit      -0.001135
 2177 Fit      -0.001065
 2178 Fit      -0.000548
 2179 Fit      -0.000991
 2180 Fit      -0.001089
 2181 Fit       0.000194
 2182 Fit       0.001648
 2183 Fit      -0.000191
 2184 Fit       0.001160
 2185 Fit       0.001980
 2186 Fit       0.000603
 2187 Fit      -0.000621
 2188 Fit       0.000791
 2189 Fit       0.001931
 2190 Fit       0.000828
 -----------------------------------------------------------------
 Leave Link  602 at Tue Mar 21 12:26:40 2017, MaxMem=    33554432 cpu:         3.3
 (Enter /home/michal/g09/l9999.exe)

 Test job not archived.
 1\1\GINC-LINUX\SP\RHF\6-31G(d)\C27H46O1\MICHAL\21-Mar-2017\0\\#P HF/6-
 31G* SCF(Conver=6) NoSymm Test Pop=mk IOp(6/33=2) GFInput GFPrint\\MEP
  - Input generated by R.E.D.-III.x MOLECULE\\0,1\O,0,4.15426987,6.5476
 7973,4.14718918\H,0,4.93021712,6.90730151,3.69716791\C,0,0.,0.,0.\C,0,
 1.34136006,0.61305876,-0.47693014\H,0,2.12509997,0.,0.\C,0,1.59906228,
 2.04749977,0.\H,0,0.83241889,2.71404933,-0.41955039\C,0,1.5304965,2.10
 059185,1.55156107\H,0,2.40193738,1.52229259,1.90089819\C,0,0.09978686,
 -1.40195188,-0.67851192\H,0,0.91348502,-1.90244005,-0.13361755\C,0,0.0
 2893778,-0.01689394,1.53848822\H,0,0.83158841,-0.69215312,1.86898779\H
 ,0,-0.90704483,-0.41738176,1.95080704\C,0,1.7325582,3.55231112,2.11392
 999\C,0,1.39377374,0.28579743,-1.98194531\H,0,2.4201181,0.23729052,-2.
 3592674\H,0,0.87997827,1.05901411,-2.56655862\C,0,0.27315505,1.3927586
 5,2.11738213\H,0,-0.6146658,2.00556361,1.93145715\H,0,0.35864919,1.312
 05919,3.20680032\C,0,0.65488595,-1.08410883,-2.10272657\H,0,-0.1498933
 6,-1.01726897,-2.83987646\H,0,1.32598161,-1.87687748,-2.4493897\C,0,2.
 97098307,2.5498629,-0.47688529\H,0,2.93958925,2.7645986,-1.55345344\H,
 0,3.71670902,1.74550524,-0.36241191\C,0,-1.1133148,-2.37464799,-0.5800
 7615\H,0,-1.60935775,-2.15450138,0.37571509\C,0,-1.22702666,0.79410255
 ,-0.50020614\H,0,-2.15276975,0.33382629,-0.13979165\H,0,-1.22169657,1.
 82721124,-0.1443041\H,0,-1.2789047,0.83202796,-1.5920467\C,0,2.9025945
 9,4.24067299,1.3963451\C,0,2.08449473,3.45448454,3.6313167\H,0,2.86511
 237,2.69060714,3.75313176\H,0,1.21030437,3.09641974,4.18580881\C,0,3.4
 4297117,3.76906111,0.26304503\H,0,4.28986508,4.30171748,-0.171093\C,0,
 0.45755714,4.41915998,1.9329667\H,0,-0.35840898,4.06958667,2.57326903\
 H,0,0.6431485,5.46441207,2.19222069\H,0,0.11148772,4.40086754,0.894907
 34\C,0,3.44031803,5.50744984,2.03564435\H,0,4.32454541,5.84931764,1.48
 237065\H,0,2.69969296,6.31773749,1.97982879\C,0,2.57750204,4.76211512,
 4.26812761\H,0,1.78959919,5.5256633,4.26710653\H,0,2.84571223,4.589847
 56,5.31668074\C,0,-2.16643891,-2.23987855,-1.70746335\H,0,-2.34240313,
 -1.18413373,-1.93932318\H,0,-1.75120714,-2.68416839,-2.62217314\C,0,3.
 78376598,5.31386602,3.51957214\H,0,4.61596728,4.59542248,3.60344917\C,
 0,-0.60492604,-3.82891707,-0.49865549\H,0,-0.03653866,-4.09401828,-1.3
 9911391\H,0,-1.42552646,-4.54710708,-0.40388608\H,0,0.05491861,-3.9687
 5209,0.36475797\C,0,-3.53427349,-2.89893358,-1.42943055\H,0,-4.0950570
 4,-2.908081,-2.37245775\H,0,-3.39283823,-3.95120055,-1.15519068\C,0,-4
 .37105651,-2.18434753,-0.35460291\H,0,-4.47865575,-1.12810204,-0.64165
 19\H,0,-3.82366934,-2.18580559,0.59740253\C,0,-5.78326145,-2.75912248,
 -0.09036514\H,0,-6.22238406,-2.12707577,0.69576696\C,0,-5.74587822,-4.
 19621571,0.4559293\H,0,-5.09607891,-4.27205325,1.33576958\H,0,-6.74809
 93,-4.52657165,0.75193461\H,0,-5.37723353,-4.90494707,-0.29454674\C,0,
 -6.70662353,-2.65816776,-1.31598911\H,0,-6.74104342,-1.63423513,-1.706
 51944\H,0,-7.73045831,-2.95082293,-1.05648636\H,0,-6.37605044,-3.31536
 047,-2.12846061\\Version=EM64L-G09RevD.01\HF=-1124.074162\RMSD=4.719e-
 07\Dipole=0.1765435,-0.3333784,-0.4995212\Quadrupole=8.6718571,-4.4804
 412,-4.1914159,1.2014382,-3.4040674,-8.8824926\PG=C01 [X(C27H46O1)]\\@


 I WANT TO KNOW HOW GOD CREATED THE WORLD.  I AM NOT INTERESTED IN
 THIS OR THAT PHENOMENON, IN THE SPECTRUM OF THIS OR THAT ELEMENT.
 I WANT TO KNOW HIS THOUGHTS, THE REST ARE DETAILS.
     -- ALBERT EINSTEIN
 Job cpu time:       0 days  0 hours 10 minutes 34.5 seconds.
 File lengths (MBytes):  RWF=    142 Int=      0 D2E=      0 Chk=     10 Scr=      1
 Normal termination of Gaussian 09 at Tue Mar 21 12:26:40 2017.
