 Entering Gaussian System, Link 0=/home/michal/g09/g09
 Input=JOB2-gau_m1-20-3.com
 Output=JOB2-gau_m1-20-3.log
 Initial command:
 /home/michal/g09/l1.exe "/home/michal/gauss_scratch/Gau-21849.inp" -scrdir="/home/michal/gauss_scratch/"
 Entering Link 1 = /home/michal/g09/l1.exe PID=     21850.
  
 Copyright (c) 1988,1990,1992,1993,1995,1998,2003,2009,2013,
            Gaussian, Inc.  All Rights Reserved.
  
 This is part of the Gaussian(R) 09 program.  It is based on
 the Gaussian(R) 03 system (copyright 2003, Gaussian, Inc.),
 the Gaussian(R) 98 system (copyright 1998, Gaussian, Inc.),
 the Gaussian(R) 94 system (copyright 1995, Gaussian, Inc.),
 the Gaussian 92(TM) system (copyright 1992, Gaussian, Inc.),
 the Gaussian 90(TM) system (copyright 1990, Gaussian, Inc.),
 the Gaussian 88(TM) system (copyright 1988, Gaussian, Inc.),
 the Gaussian 86(TM) system (copyright 1986, Carnegie Mellon
 University), and the Gaussian 82(TM) system (copyright 1983,
 Carnegie Mellon University). Gaussian is a federally registered
 trademark of Gaussian, Inc.
  
 This software contains proprietary and confidential information,
 including trade secrets, belonging to Gaussian, Inc.
  
 This software is provided under written license and may be
 used, copied, transmitted, or stored only in accord with that
 written license.
  
 The following legend is applicable only to US Government
 contracts under FAR:
  
                    RESTRICTED RIGHTS LEGEND
  
 Use, reproduction and disclosure by the US Government is
 subject to restrictions as set forth in subparagraphs (a)
 and (c) of the Commercial Computer Software - Restricted
 Rights clause in FAR 52.227-19.
  
 Gaussian, Inc.
 340 Quinnipiac St., Bldg. 40, Wallingford CT 06492
  
  
 ---------------------------------------------------------------
 Warning -- This program may not be used in any manner that
 competes with the business of Gaussian, Inc. or will provide
 assistance to any competitor of Gaussian, Inc.  The licensee
 of this program is prohibited from giving any competitor of
 Gaussian, Inc. access to this program.  By using this program,
 the user acknowledges that Gaussian, Inc. is engaged in the
 business of creating and licensing software in the field of
 computational chemistry and represents and warrants to the
 licensee that it is not a competitor of Gaussian, Inc. and that
 it will not use this program in any manner prohibited above.
 ---------------------------------------------------------------
  

 Cite this work as:
 Gaussian 09, Revision D.01,
 M. J. Frisch, G. W. Trucks, H. B. Schlegel, G. E. Scuseria, 
 M. A. Robb, J. R. Cheeseman, G. Scalmani, V. Barone, B. Mennucci, 
 G. A. Petersson, H. Nakatsuji, M. Caricato, X. Li, H. P. Hratchian, 
 A. F. Izmaylov, J. Bloino, G. Zheng, J. L. Sonnenberg, M. Hada, 
 M. Ehara, K. Toyota, R. Fukuda, J. Hasegawa, M. Ishida, T. Nakajima, 
 Y. Honda, O. Kitao, H. Nakai, T. Vreven, J. A. Montgomery, Jr., 
 J. E. Peralta, F. Ogliaro, M. Bearpark, J. J. Heyd, E. Brothers, 
 K. N. Kudin, V. N. Staroverov, T. Keith, R. Kobayashi, J. Normand, 
 K. Raghavachari, A. Rendell, J. C. Burant, S. S. Iyengar, J. Tomasi, 
 M. Cossi, N. Rega, J. M. Millam, M. Klene, J. E. Knox, J. B. Cross, 
 V. Bakken, C. Adamo, J. Jaramillo, R. Gomperts, R. E. Stratmann, 
 O. Yazyev, A. J. Austin, R. Cammi, C. Pomelli, J. W. Ochterski, 
 R. L. Martin, K. Morokuma, V. G. Zakrzewski, G. A. Voth, 
 P. Salvador, J. J. Dannenberg, S. Dapprich, A. D. Daniels, 
 O. Farkas, J. B. Foresman, J. V. Ortiz, J. Cioslowski, 
 and D. J. Fox, Gaussian, Inc., Wallingford CT, 2013.
 
 ******************************************
 Gaussian 09:  EM64L-G09RevD.01 24-Apr-2013
                21-Mar-2017 
 ******************************************
 %Mem=256MB
 %NProc=12
 Will use up to   12 processors via shared memory.
 ----------------------------------------------------------------------
 #P HF/6-31G* SCF(Conver=6) NoSymm Test Pop=mk IOp(6/33=2) GFInput GFPr
 int
 ----------------------------------------------------------------------
 1/38=1/1;
 2/12=2,15=1,17=6,18=5,40=1/2;
 3/5=1,6=6,7=1,11=9,16=1,24=110,25=1,30=1/1,2,3;
 4//1;
 5/5=2,6=6,38=5/2;
 6/7=2,8=2,9=2,10=2,15=8,20=1,28=1,33=2/1,2;
 99/5=1,9=1/99;
 Leave Link    1 at Tue Mar 21 12:57:13 2017, MaxMem=    33554432 cpu:         0.6
 (Enter /home/michal/g09/l101.exe)
 ----------------------------------------------
 MEP - Input generated by R.E.D.-III.x MOLECULE
 ----------------------------------------------
 Symbolic Z-matrix:
 Charge =  0 Multiplicity = 1
 O                    -3.72885  -3.61357  -4.12562 
 H                    -3.87924  -4.45478  -3.67427 
 C                     1.60042   2.06309   0. 
 C                     1.32679   0.60788   0.47332 
 H                     2.11724   0.        0. 
 C                     0.        0.        0. 
 H                    -0.83395   0.57885   0.42178 
 C                    -0.07811   0.04886  -1.54856 
 H                     0.70075  -0.64606  -1.90406 
 C                     2.98429   2.31495   0.69333 
 H                     3.7146    1.72239   0.12259 
 C                     1.5995    2.02733  -1.54202 
 H                     2.44555   1.4113   -1.8798 
 H                     1.74952   3.0235   -1.97068 
 C                    -1.43369  -0.51278  -2.10487 
 C                     1.64066   0.62884   1.97748 
 H                     1.90984  -0.36017   2.36156 
 H                     0.76746   0.96309   2.5515 
 C                     0.28473   1.44641  -2.10268 
 H                    -0.52573   2.15202  -1.89127 
 H                     0.36501   1.40032  -3.19465 
 C                     2.80996   1.64577   2.09711 
 H                     2.58664   2.40522   2.85571 
 H                     3.73591   1.15716   2.4162 
 C                    -0.14324  -1.4519    0.48431 
 H                    -0.35868  -1.47089   1.56096 
 H                     0.82183  -1.97357   0.37162 
 C                     3.53786   3.75827   0.79109 
 H                     2.81498   4.34633   1.37536 
 C                     0.54631   3.06573   0.52255 
 H                     0.73942   4.06903   0.12805 
 H                    -0.46937   2.79332   0.22556 
 H                     0.55443   3.13841   1.61438 
 C                    -1.80237  -1.81711  -1.38372 
 C                    -1.25495  -0.83119  -3.62218 
 H                    -0.32026  -1.39579  -3.74585 
 H                    -1.12879   0.10399  -4.17851 
 C                    -1.20606  -2.21785  -0.25121 
 H                    -1.50617  -3.17068   0.1864 
 C                    -2.5929    0.50321  -1.922 
 H                    -2.46234   1.37922  -2.56509 
 H                    -3.55886   0.05987  -2.17618 
 H                    -2.65833   0.84553  -0.88458 
 C                    -2.8941   -2.65871  -2.01811 
 H                    -2.99879  -3.60028  -1.46371 
 H                    -3.86532  -2.14737  -1.95878 
 C                    -2.3991   -1.63749  -4.25375 
 H                    -3.33632  -1.0671   -4.24902 
 H                    -2.16942  -1.85469  -5.3031 
 C                     4.86709   3.82472   1.59219 
 H                     5.14062   4.88558   1.68939 
 H                     4.68697   3.46987   2.6132 
 C                    -2.62595  -2.94319  -3.50304 
 H                    -1.72113  -3.5673   -3.58989 
 C                     3.69543   4.45702  -0.57261 
 H                     4.26281   3.84708  -1.28422 
 H                     4.22545   5.40974  -0.45548 
 H                     2.72849   4.6788   -1.031 
 C                     6.06538   3.06965   0.99185 
 H                     5.8632    1.99146   0.97749 
 H                     6.19263   3.36342  -0.05756 
 C                     7.39987   3.33815   1.71372 
 H                     7.60646   4.41735   1.6694 
 H                     8.20919   2.85201   1.14875 
 C                     7.5033    2.88319   3.1852 
 H                     6.6955    3.36537   3.75401 
 C                     8.83569   3.35158   3.79214 
 H                     8.94352   4.4404    3.72713 
 H                     8.91364   3.06915   4.84828 
 H                     9.68591   2.90083   3.26404 
 C                     7.3475    1.36204   3.34053 
 H                     6.37542   1.0074    2.98305 
 H                     7.44029   1.06398   4.3911 
 H                     8.12472   0.83174   2.7748 
 
 NAtoms=     74 NQM=       74 NQMF=       0 NMMI=      0 NMMIF=      0
                NMic=       0 NMicF=      0.
                    Isotopes and Nuclear Properties:
 (Nuclear quadrupole moments (NQMom) in fm**2, nuclear magnetic moments (NMagM)
  in nuclear magnetons)

  Atom         1           2           3           4           5           6           7           8           9          10
 IAtWgt=          16           1          12          12           1          12           1          12           1          12
 AtmWgt=  15.9949146   1.0078250  12.0000000  12.0000000   1.0078250  12.0000000   1.0078250  12.0000000   1.0078250  12.0000000
 NucSpn=           0           1           0           0           1           0           1           0           1           0
 AtZEff=   0.0000000   0.0000000   0.0000000   0.0000000   0.0000000   0.0000000   0.0000000   0.0000000   0.0000000   0.0000000
 NQMom=    0.0000000   0.0000000   0.0000000   0.0000000   0.0000000   0.0000000   0.0000000   0.0000000   0.0000000   0.0000000
 NMagM=    0.0000000   2.7928460   0.0000000   0.0000000   2.7928460   0.0000000   2.7928460   0.0000000   2.7928460   0.0000000
 AtZNuc=   8.0000000   1.0000000   6.0000000   6.0000000   1.0000000   6.0000000   1.0000000   6.0000000   1.0000000   6.0000000

  Atom        11          12          13          14          15          16          17          18          19          20
 IAtWgt=           1          12           1           1          12          12           1           1          12           1
 AtmWgt=   1.0078250  12.0000000   1.0078250   1.0078250  12.0000000  12.0000000   1.0078250   1.0078250  12.0000000   1.0078250
 NucSpn=           1           0           1           1           0           0           1           1           0           1
 AtZEff=   0.0000000   0.0000000   0.0000000   0.0000000   0.0000000   0.0000000   0.0000000   0.0000000   0.0000000   0.0000000
 NQMom=    0.0000000   0.0000000   0.0000000   0.0000000   0.0000000   0.0000000   0.0000000   0.0000000   0.0000000   0.0000000
 NMagM=    2.7928460   0.0000000   2.7928460   2.7928460   0.0000000   0.0000000   2.7928460   2.7928460   0.0000000   2.7928460
 AtZNuc=   1.0000000   6.0000000   1.0000000   1.0000000   6.0000000   6.0000000   1.0000000   1.0000000   6.0000000   1.0000000

  Atom        21          22          23          24          25          26          27          28          29          30
 IAtWgt=           1          12           1           1          12           1           1          12           1          12
 AtmWgt=   1.0078250  12.0000000   1.0078250   1.0078250  12.0000000   1.0078250   1.0078250  12.0000000   1.0078250  12.0000000
 NucSpn=           1           0           1           1           0           1           1           0           1           0
 AtZEff=   0.0000000   0.0000000   0.0000000   0.0000000   0.0000000   0.0000000   0.0000000   0.0000000   0.0000000   0.0000000
 NQMom=    0.0000000   0.0000000   0.0000000   0.0000000   0.0000000   0.0000000   0.0000000   0.0000000   0.0000000   0.0000000
 NMagM=    2.7928460   0.0000000   2.7928460   2.7928460   0.0000000   2.7928460   2.7928460   0.0000000   2.7928460   0.0000000
 AtZNuc=   1.0000000   6.0000000   1.0000000   1.0000000   6.0000000   1.0000000   1.0000000   6.0000000   1.0000000   6.0000000

  Atom        31          32          33          34          35          36          37          38          39          40
 IAtWgt=           1           1           1          12          12           1           1          12           1          12
 AtmWgt=   1.0078250   1.0078250   1.0078250  12.0000000  12.0000000   1.0078250   1.0078250  12.0000000   1.0078250  12.0000000
 NucSpn=           1           1           1           0           0           1           1           0           1           0
 AtZEff=   0.0000000   0.0000000   0.0000000   0.0000000   0.0000000   0.0000000   0.0000000   0.0000000   0.0000000   0.0000000
 NQMom=    0.0000000   0.0000000   0.0000000   0.0000000   0.0000000   0.0000000   0.0000000   0.0000000   0.0000000   0.0000000
 NMagM=    2.7928460   2.7928460   2.7928460   0.0000000   0.0000000   2.7928460   2.7928460   0.0000000   2.7928460   0.0000000
 AtZNuc=   1.0000000   1.0000000   1.0000000   6.0000000   6.0000000   1.0000000   1.0000000   6.0000000   1.0000000   6.0000000

  Atom        41          42          43          44          45          46          47          48          49          50
 IAtWgt=           1           1           1          12           1           1          12           1           1          12
 AtmWgt=   1.0078250   1.0078250   1.0078250  12.0000000   1.0078250   1.0078250  12.0000000   1.0078250   1.0078250  12.0000000
 NucSpn=           1           1           1           0           1           1           0           1           1           0
 AtZEff=   0.0000000   0.0000000   0.0000000   0.0000000   0.0000000   0.0000000   0.0000000   0.0000000   0.0000000   0.0000000
 NQMom=    0.0000000   0.0000000   0.0000000   0.0000000   0.0000000   0.0000000   0.0000000   0.0000000   0.0000000   0.0000000
 NMagM=    2.7928460   2.7928460   2.7928460   0.0000000   2.7928460   2.7928460   0.0000000   2.7928460   2.7928460   0.0000000
 AtZNuc=   1.0000000   1.0000000   1.0000000   6.0000000   1.0000000   1.0000000   6.0000000   1.0000000   1.0000000   6.0000000

  Atom        51          52          53          54          55          56          57          58          59          60
 IAtWgt=           1           1          12           1          12           1           1           1          12           1
 AtmWgt=   1.0078250   1.0078250  12.0000000   1.0078250  12.0000000   1.0078250   1.0078250   1.0078250  12.0000000   1.0078250
 NucSpn=           1           1           0           1           0           1           1           1           0           1
 AtZEff=   0.0000000   0.0000000   0.0000000   0.0000000   0.0000000   0.0000000   0.0000000   0.0000000   0.0000000   0.0000000
 NQMom=    0.0000000   0.0000000   0.0000000   0.0000000   0.0000000   0.0000000   0.0000000   0.0000000   0.0000000   0.0000000
 NMagM=    2.7928460   2.7928460   0.0000000   2.7928460   0.0000000   2.7928460   2.7928460   2.7928460   0.0000000   2.7928460
 AtZNuc=   1.0000000   1.0000000   6.0000000   1.0000000   6.0000000   1.0000000   1.0000000   1.0000000   6.0000000   1.0000000

  Atom        61          62          63          64          65          66          67          68          69          70
 IAtWgt=           1          12           1           1          12           1          12           1           1           1
 AtmWgt=   1.0078250  12.0000000   1.0078250   1.0078250  12.0000000   1.0078250  12.0000000   1.0078250   1.0078250   1.0078250
 NucSpn=           1           0           1           1           0           1           0           1           1           1
 AtZEff=   0.0000000   0.0000000   0.0000000   0.0000000   0.0000000   0.0000000   0.0000000   0.0000000   0.0000000   0.0000000
 NQMom=    0.0000000   0.0000000   0.0000000   0.0000000   0.0000000   0.0000000   0.0000000   0.0000000   0.0000000   0.0000000
 NMagM=    2.7928460   0.0000000   2.7928460   2.7928460   0.0000000   2.7928460   0.0000000   2.7928460   2.7928460   2.7928460
 AtZNuc=   1.0000000   6.0000000   1.0000000   1.0000000   6.0000000   1.0000000   6.0000000   1.0000000   1.0000000   1.0000000

  Atom        71          72          73          74
 IAtWgt=          12           1           1           1
 AtmWgt=  12.0000000   1.0078250   1.0078250   1.0078250
 NucSpn=           0           1           1           1
 AtZEff=   0.0000000   0.0000000   0.0000000   0.0000000
 NQMom=    0.0000000   0.0000000   0.0000000   0.0000000
 NMagM=    0.0000000   2.7928460   2.7928460   2.7928460
 AtZNuc=   6.0000000   1.0000000   1.0000000   1.0000000
 Leave Link  101 at Tue Mar 21 12:57:14 2017, MaxMem=    33554432 cpu:         1.0
 (Enter /home/michal/g09/l202.exe)
 Symmetry turned off by external request.
 Stoichiometry    C27H46O
 Framework group  C1[X(C27H46O)]
 Deg. of freedom   216
 Full point group                 C1      NOp   1
                          Input orientation:                          
 ---------------------------------------------------------------------
 Center     Atomic      Atomic             Coordinates (Angstroms)
 Number     Number       Type             X           Y           Z
 ---------------------------------------------------------------------
      1          8           0       -3.728855   -3.613574   -4.125617
      2          1           0       -3.879243   -4.454777   -3.674268
      3          6           0        1.600423    2.063095    0.000000
      4          6           0        1.326790    0.607882    0.473320
      5          1           0        2.117240    0.000000    0.000000
      6          6           0        0.000000    0.000000    0.000000
      7          1           0       -0.833953    0.578855    0.421782
      8          6           0       -0.078110    0.048863   -1.548558
      9          1           0        0.700754   -0.646056   -1.904058
     10          6           0        2.984289    2.314951    0.693328
     11          1           0        3.714599    1.722391    0.122588
     12          6           0        1.599499    2.027330   -1.542021
     13          1           0        2.445550    1.411305   -1.879802
     14          1           0        1.749516    3.023497   -1.970681
     15          6           0       -1.433692   -0.512780   -2.104871
     16          6           0        1.640665    0.628841    1.977481
     17          1           0        1.909838   -0.360170    2.361557
     18          1           0        0.767464    0.963085    2.551504
     19          6           0        0.284728    1.446409   -2.102678
     20          1           0       -0.525733    2.152021   -1.891274
     21          1           0        0.365014    1.400324   -3.194649
     22          6           0        2.809957    1.645766    2.097113
     23          1           0        2.586645    2.405215    2.855713
     24          1           0        3.735911    1.157163    2.416195
     25          6           0       -0.143244   -1.451898    0.484310
     26          1           0       -0.358681   -1.470895    1.560956
     27          1           0        0.821826   -1.973575    0.371623
     28          6           0        3.537860    3.758274    0.791094
     29          1           0        2.814981    4.346334    1.375358
     30          6           0        0.546309    3.065726    0.522548
     31          1           0        0.739423    4.069035    0.128050
     32          1           0       -0.469372    2.793321    0.225560
     33          1           0        0.554429    3.138411    1.614383
     34          6           0       -1.802366   -1.817108   -1.383723
     35          6           0       -1.254954   -0.831192   -3.622177
     36          1           0       -0.320256   -1.395789   -3.745848
     37          1           0       -1.128793    0.103989   -4.178514
     38          6           0       -1.206063   -2.217847   -0.251211
     39          1           0       -1.506174   -3.170680    0.186401
     40          6           0       -2.592903    0.503210   -1.921997
     41          1           0       -2.462343    1.379223   -2.565090
     42          1           0       -3.558861    0.059871   -2.176182
     43          1           0       -2.658330    0.845529   -0.884580
     44          6           0       -2.894096   -2.658709   -2.018107
     45          1           0       -2.998790   -3.600283   -1.463709
     46          1           0       -3.865323   -2.147367   -1.958783
     47          6           0       -2.399104   -1.637486   -4.253751
     48          1           0       -3.336321   -1.067101   -4.249017
     49          1           0       -2.169424   -1.854690   -5.303101
     50          6           0        4.867093    3.824724    1.592194
     51          1           0        5.140624    4.885582    1.689394
     52          1           0        4.686974    3.469866    2.613204
     53          6           0       -2.625955   -2.943189   -3.503041
     54          1           0       -1.721130   -3.567299   -3.589893
     55          6           0        3.695434    4.457023   -0.572614
     56          1           0        4.262811    3.847078   -1.284219
     57          1           0        4.225446    5.409745   -0.455476
     58          1           0        2.728491    4.678799   -1.031001
     59          6           0        6.065384    3.069650    0.991846
     60          1           0        5.863202    1.991455    0.977489
     61          1           0        6.192629    3.363424   -0.057558
     62          6           0        7.399874    3.338151    1.713721
     63          1           0        7.606458    4.417351    1.669403
     64          1           0        8.209187    2.852010    1.148751
     65          6           0        7.503302    2.883194    3.185200
     66          1           0        6.695499    3.365371    3.754010
     67          6           0        8.835693    3.351583    3.792142
     68          1           0        8.943524    4.440400    3.727131
     69          1           0        8.913635    3.069151    4.848281
     70          1           0        9.685913    2.900826    3.264038
     71          6           0        7.347497    1.362044    3.340528
     72          1           0        6.375419    1.007403    2.983050
     73          1           0        7.440291    1.063977    4.391103
     74          1           0        8.124720    0.831743    2.774802
 ---------------------------------------------------------------------
 Rotational constants (GHZ):      0.4590464      0.0609665      0.0583381
 Leave Link  202 at Tue Mar 21 12:57:14 2017, MaxMem=    33554432 cpu:         0.0
 (Enter /home/michal/g09/l301.exe)
 Standard basis: 6-31G(d) (6D, 7F)
 Ernie: Thresh=  0.10000D-02 Tol=  0.10000D-05 Strict=F.
 AO basis set in the form of general basis input (Overlap normalization):
      1 0
 S   6 1.00       0.000000000000
      0.5484671660D+04  0.1831074430D-02
      0.8252349460D+03  0.1395017220D-01
      0.1880469580D+03  0.6844507810D-01
      0.5296450000D+02  0.2327143360D+00
      0.1689757040D+02  0.4701928980D+00
      0.5799635340D+01  0.3585208530D+00
 SP   3 1.00       0.000000000000
      0.1553961625D+02 -0.1107775495D+00  0.7087426823D-01
      0.3599933586D+01 -0.1480262627D+00  0.3397528391D+00
      0.1013761750D+01  0.1130767015D+01  0.7271585773D+00
 SP   1 1.00       0.000000000000
      0.2700058226D+00  0.1000000000D+01  0.1000000000D+01
 D   1 1.00       0.000000000000
      0.8000000000D+00  0.1000000000D+01
 ****
      2 0
 S   3 1.00       0.000000000000
      0.1873113696D+02  0.3349460434D-01
      0.2825394365D+01  0.2347269535D+00
      0.6401216923D+00  0.8137573261D+00
 S   1 1.00       0.000000000000
      0.1612777588D+00  0.1000000000D+01
 ****
      3 0
 S   6 1.00       0.000000000000
      0.3047524880D+04  0.1834737132D-02
      0.4573695180D+03  0.1403732281D-01
      0.1039486850D+03  0.6884262226D-01
      0.2921015530D+02  0.2321844432D+00
      0.9286662960D+01  0.4679413484D+00
      0.3163926960D+01  0.3623119853D+00
 SP   3 1.00       0.000000000000
      0.7868272350D+01 -0.1193324198D+00  0.6899906659D-01
      0.1881288540D+01 -0.1608541517D+00  0.3164239610D+00
      0.5442492580D+00  0.1143456438D+01  0.7443082909D+00
 SP   1 1.00       0.000000000000
      0.1687144782D+00  0.1000000000D+01  0.1000000000D+01
 D   1 1.00       0.000000000000
      0.8000000000D+00  0.1000000000D+01
 ****
      4 0
 S   6 1.00       0.000000000000
      0.3047524880D+04  0.1834737132D-02
      0.4573695180D+03  0.1403732281D-01
      0.1039486850D+03  0.6884262226D-01
      0.2921015530D+02  0.2321844432D+00
      0.9286662960D+01  0.4679413484D+00
      0.3163926960D+01  0.3623119853D+00
 SP   3 1.00       0.000000000000
      0.7868272350D+01 -0.1193324198D+00  0.6899906659D-01
      0.1881288540D+01 -0.1608541517D+00  0.3164239610D+00
      0.5442492580D+00  0.1143456438D+01  0.7443082909D+00
 SP   1 1.00       0.000000000000
      0.1687144782D+00  0.1000000000D+01  0.1000000000D+01
 D   1 1.00       0.000000000000
      0.8000000000D+00  0.1000000000D+01
 ****
      5 0
 S   3 1.00       0.000000000000
      0.1873113696D+02  0.3349460434D-01
      0.2825394365D+01  0.2347269535D+00
      0.6401216923D+00  0.8137573261D+00
 S   1 1.00       0.000000000000
      0.1612777588D+00  0.1000000000D+01
 ****
      6 0
 S   6 1.00       0.000000000000
      0.3047524880D+04  0.1834737132D-02
      0.4573695180D+03  0.1403732281D-01
      0.1039486850D+03  0.6884262226D-01
      0.2921015530D+02  0.2321844432D+00
      0.9286662960D+01  0.4679413484D+00
      0.3163926960D+01  0.3623119853D+00
 SP   3 1.00       0.000000000000
      0.7868272350D+01 -0.1193324198D+00  0.6899906659D-01
      0.1881288540D+01 -0.1608541517D+00  0.3164239610D+00
      0.5442492580D+00  0.1143456438D+01  0.7443082909D+00
 SP   1 1.00       0.000000000000
      0.1687144782D+00  0.1000000000D+01  0.1000000000D+01
 D   1 1.00       0.000000000000
      0.8000000000D+00  0.1000000000D+01
 ****
      7 0
 S   3 1.00       0.000000000000
      0.1873113696D+02  0.3349460434D-01
      0.2825394365D+01  0.2347269535D+00
      0.6401216923D+00  0.8137573261D+00
 S   1 1.00       0.000000000000
      0.1612777588D+00  0.1000000000D+01
 ****
      8 0
 S   6 1.00       0.000000000000
      0.3047524880D+04  0.1834737132D-02
      0.4573695180D+03  0.1403732281D-01
      0.1039486850D+03  0.6884262226D-01
      0.2921015530D+02  0.2321844432D+00
      0.9286662960D+01  0.4679413484D+00
      0.3163926960D+01  0.3623119853D+00
 SP   3 1.00       0.000000000000
      0.7868272350D+01 -0.1193324198D+00  0.6899906659D-01
      0.1881288540D+01 -0.1608541517D+00  0.3164239610D+00
      0.5442492580D+00  0.1143456438D+01  0.7443082909D+00
 SP   1 1.00       0.000000000000
      0.1687144782D+00  0.1000000000D+01  0.1000000000D+01
 D   1 1.00       0.000000000000
      0.8000000000D+00  0.1000000000D+01
 ****
      9 0
 S   3 1.00       0.000000000000
      0.1873113696D+02  0.3349460434D-01
      0.2825394365D+01  0.2347269535D+00
      0.6401216923D+00  0.8137573261D+00
 S   1 1.00       0.000000000000
      0.1612777588D+00  0.1000000000D+01
 ****
     10 0
 S   6 1.00       0.000000000000
      0.3047524880D+04  0.1834737132D-02
      0.4573695180D+03  0.1403732281D-01
      0.1039486850D+03  0.6884262226D-01
      0.2921015530D+02  0.2321844432D+00
      0.9286662960D+01  0.4679413484D+00
      0.3163926960D+01  0.3623119853D+00
 SP   3 1.00       0.000000000000
      0.7868272350D+01 -0.1193324198D+00  0.6899906659D-01
      0.1881288540D+01 -0.1608541517D+00  0.3164239610D+00
      0.5442492580D+00  0.1143456438D+01  0.7443082909D+00
 SP   1 1.00       0.000000000000
      0.1687144782D+00  0.1000000000D+01  0.1000000000D+01
 D   1 1.00       0.000000000000
      0.8000000000D+00  0.1000000000D+01
 ****
     11 0
 S   3 1.00       0.000000000000
      0.1873113696D+02  0.3349460434D-01
      0.2825394365D+01  0.2347269535D+00
      0.6401216923D+00  0.8137573261D+00
 S   1 1.00       0.000000000000
      0.1612777588D+00  0.1000000000D+01
 ****
     12 0
 S   6 1.00       0.000000000000
      0.3047524880D+04  0.1834737132D-02
      0.4573695180D+03  0.1403732281D-01
      0.1039486850D+03  0.6884262226D-01
      0.2921015530D+02  0.2321844432D+00
      0.9286662960D+01  0.4679413484D+00
      0.3163926960D+01  0.3623119853D+00
 SP   3 1.00       0.000000000000
      0.7868272350D+01 -0.1193324198D+00  0.6899906659D-01
      0.1881288540D+01 -0.1608541517D+00  0.3164239610D+00
      0.5442492580D+00  0.1143456438D+01  0.7443082909D+00
 SP   1 1.00       0.000000000000
      0.1687144782D+00  0.1000000000D+01  0.1000000000D+01
 D   1 1.00       0.000000000000
      0.8000000000D+00  0.1000000000D+01
 ****
     13 0
 S   3 1.00       0.000000000000
      0.1873113696D+02  0.3349460434D-01
      0.2825394365D+01  0.2347269535D+00
      0.6401216923D+00  0.8137573261D+00
 S   1 1.00       0.000000000000
      0.1612777588D+00  0.1000000000D+01
 ****
     14 0
 S   3 1.00       0.000000000000
      0.1873113696D+02  0.3349460434D-01
      0.2825394365D+01  0.2347269535D+00
      0.6401216923D+00  0.8137573261D+00
 S   1 1.00       0.000000000000
      0.1612777588D+00  0.1000000000D+01
 ****
     15 0
 S   6 1.00       0.000000000000
      0.3047524880D+04  0.1834737132D-02
      0.4573695180D+03  0.1403732281D-01
      0.1039486850D+03  0.6884262226D-01
      0.2921015530D+02  0.2321844432D+00
      0.9286662960D+01  0.4679413484D+00
      0.3163926960D+01  0.3623119853D+00
 SP   3 1.00       0.000000000000
      0.7868272350D+01 -0.1193324198D+00  0.6899906659D-01
      0.1881288540D+01 -0.1608541517D+00  0.3164239610D+00
      0.5442492580D+00  0.1143456438D+01  0.7443082909D+00
 SP   1 1.00       0.000000000000
      0.1687144782D+00  0.1000000000D+01  0.1000000000D+01
 D   1 1.00       0.000000000000
      0.8000000000D+00  0.1000000000D+01
 ****
     16 0
 S   6 1.00       0.000000000000
      0.3047524880D+04  0.1834737132D-02
      0.4573695180D+03  0.1403732281D-01
      0.1039486850D+03  0.6884262226D-01
      0.2921015530D+02  0.2321844432D+00
      0.9286662960D+01  0.4679413484D+00
      0.3163926960D+01  0.3623119853D+00
 SP   3 1.00       0.000000000000
      0.7868272350D+01 -0.1193324198D+00  0.6899906659D-01
      0.1881288540D+01 -0.1608541517D+00  0.3164239610D+00
      0.5442492580D+00  0.1143456438D+01  0.7443082909D+00
 SP   1 1.00       0.000000000000
      0.1687144782D+00  0.1000000000D+01  0.1000000000D+01
 D   1 1.00       0.000000000000
      0.8000000000D+00  0.1000000000D+01
 ****
     17 0
 S   3 1.00       0.000000000000
      0.1873113696D+02  0.3349460434D-01
      0.2825394365D+01  0.2347269535D+00
      0.6401216923D+00  0.8137573261D+00
 S   1 1.00       0.000000000000
      0.1612777588D+00  0.1000000000D+01
 ****
     18 0
 S   3 1.00       0.000000000000
      0.1873113696D+02  0.3349460434D-01
      0.2825394365D+01  0.2347269535D+00
      0.6401216923D+00  0.8137573261D+00
 S   1 1.00       0.000000000000
      0.1612777588D+00  0.1000000000D+01
 ****
     19 0
 S   6 1.00       0.000000000000
      0.3047524880D+04  0.1834737132D-02
      0.4573695180D+03  0.1403732281D-01
      0.1039486850D+03  0.6884262226D-01
      0.2921015530D+02  0.2321844432D+00
      0.9286662960D+01  0.4679413484D+00
      0.3163926960D+01  0.3623119853D+00
 SP   3 1.00       0.000000000000
      0.7868272350D+01 -0.1193324198D+00  0.6899906659D-01
      0.1881288540D+01 -0.1608541517D+00  0.3164239610D+00
      0.5442492580D+00  0.1143456438D+01  0.7443082909D+00
 SP   1 1.00       0.000000000000
      0.1687144782D+00  0.1000000000D+01  0.1000000000D+01
 D   1 1.00       0.000000000000
      0.8000000000D+00  0.1000000000D+01
 ****
     20 0
 S   3 1.00       0.000000000000
      0.1873113696D+02  0.3349460434D-01
      0.2825394365D+01  0.2347269535D+00
      0.6401216923D+00  0.8137573261D+00
 S   1 1.00       0.000000000000
      0.1612777588D+00  0.1000000000D+01
 ****
     21 0
 S   3 1.00       0.000000000000
      0.1873113696D+02  0.3349460434D-01
      0.2825394365D+01  0.2347269535D+00
      0.6401216923D+00  0.8137573261D+00
 S   1 1.00       0.000000000000
      0.1612777588D+00  0.1000000000D+01
 ****
     22 0
 S   6 1.00       0.000000000000
      0.3047524880D+04  0.1834737132D-02
      0.4573695180D+03  0.1403732281D-01
      0.1039486850D+03  0.6884262226D-01
      0.2921015530D+02  0.2321844432D+00
      0.9286662960D+01  0.4679413484D+00
      0.3163926960D+01  0.3623119853D+00
 SP   3 1.00       0.000000000000
      0.7868272350D+01 -0.1193324198D+00  0.6899906659D-01
      0.1881288540D+01 -0.1608541517D+00  0.3164239610D+00
      0.5442492580D+00  0.1143456438D+01  0.7443082909D+00
 SP   1 1.00       0.000000000000
      0.1687144782D+00  0.1000000000D+01  0.1000000000D+01
 D   1 1.00       0.000000000000
      0.8000000000D+00  0.1000000000D+01
 ****
     23 0
 S   3 1.00       0.000000000000
      0.1873113696D+02  0.3349460434D-01
      0.2825394365D+01  0.2347269535D+00
      0.6401216923D+00  0.8137573261D+00
 S   1 1.00       0.000000000000
      0.1612777588D+00  0.1000000000D+01
 ****
     24 0
 S   3 1.00       0.000000000000
      0.1873113696D+02  0.3349460434D-01
      0.2825394365D+01  0.2347269535D+00
      0.6401216923D+00  0.8137573261D+00
 S   1 1.00       0.000000000000
      0.1612777588D+00  0.1000000000D+01
 ****
     25 0
 S   6 1.00       0.000000000000
      0.3047524880D+04  0.1834737132D-02
      0.4573695180D+03  0.1403732281D-01
      0.1039486850D+03  0.6884262226D-01
      0.2921015530D+02  0.2321844432D+00
      0.9286662960D+01  0.4679413484D+00
      0.3163926960D+01  0.3623119853D+00
 SP   3 1.00       0.000000000000
      0.7868272350D+01 -0.1193324198D+00  0.6899906659D-01
      0.1881288540D+01 -0.1608541517D+00  0.3164239610D+00
      0.5442492580D+00  0.1143456438D+01  0.7443082909D+00
 SP   1 1.00       0.000000000000
      0.1687144782D+00  0.1000000000D+01  0.1000000000D+01
 D   1 1.00       0.000000000000
      0.8000000000D+00  0.1000000000D+01
 ****
     26 0
 S   3 1.00       0.000000000000
      0.1873113696D+02  0.3349460434D-01
      0.2825394365D+01  0.2347269535D+00
      0.6401216923D+00  0.8137573261D+00
 S   1 1.00       0.000000000000
      0.1612777588D+00  0.1000000000D+01
 ****
     27 0
 S   3 1.00       0.000000000000
      0.1873113696D+02  0.3349460434D-01
      0.2825394365D+01  0.2347269535D+00
      0.6401216923D+00  0.8137573261D+00
 S   1 1.00       0.000000000000
      0.1612777588D+00  0.1000000000D+01
 ****
     28 0
 S   6 1.00       0.000000000000
      0.3047524880D+04  0.1834737132D-02
      0.4573695180D+03  0.1403732281D-01
      0.1039486850D+03  0.6884262226D-01
      0.2921015530D+02  0.2321844432D+00
      0.9286662960D+01  0.4679413484D+00
      0.3163926960D+01  0.3623119853D+00
 SP   3 1.00       0.000000000000
      0.7868272350D+01 -0.1193324198D+00  0.6899906659D-01
      0.1881288540D+01 -0.1608541517D+00  0.3164239610D+00
      0.5442492580D+00  0.1143456438D+01  0.7443082909D+00
 SP   1 1.00       0.000000000000
      0.1687144782D+00  0.1000000000D+01  0.1000000000D+01
 D   1 1.00       0.000000000000
      0.8000000000D+00  0.1000000000D+01
 ****
     29 0
 S   3 1.00       0.000000000000
      0.1873113696D+02  0.3349460434D-01
      0.2825394365D+01  0.2347269535D+00
      0.6401216923D+00  0.8137573261D+00
 S   1 1.00       0.000000000000
      0.1612777588D+00  0.1000000000D+01
 ****
     30 0
 S   6 1.00       0.000000000000
      0.3047524880D+04  0.1834737132D-02
      0.4573695180D+03  0.1403732281D-01
      0.1039486850D+03  0.6884262226D-01
      0.2921015530D+02  0.2321844432D+00
      0.9286662960D+01  0.4679413484D+00
      0.3163926960D+01  0.3623119853D+00
 SP   3 1.00       0.000000000000
      0.7868272350D+01 -0.1193324198D+00  0.6899906659D-01
      0.1881288540D+01 -0.1608541517D+00  0.3164239610D+00
      0.5442492580D+00  0.1143456438D+01  0.7443082909D+00
 SP   1 1.00       0.000000000000
      0.1687144782D+00  0.1000000000D+01  0.1000000000D+01
 D   1 1.00       0.000000000000
      0.8000000000D+00  0.1000000000D+01
 ****
     31 0
 S   3 1.00       0.000000000000
      0.1873113696D+02  0.3349460434D-01
      0.2825394365D+01  0.2347269535D+00
      0.6401216923D+00  0.8137573261D+00
 S   1 1.00       0.000000000000
      0.1612777588D+00  0.1000000000D+01
 ****
     32 0
 S   3 1.00       0.000000000000
      0.1873113696D+02  0.3349460434D-01
      0.2825394365D+01  0.2347269535D+00
      0.6401216923D+00  0.8137573261D+00
 S   1 1.00       0.000000000000
      0.1612777588D+00  0.1000000000D+01
 ****
     33 0
 S   3 1.00       0.000000000000
      0.1873113696D+02  0.3349460434D-01
      0.2825394365D+01  0.2347269535D+00
      0.6401216923D+00  0.8137573261D+00
 S   1 1.00       0.000000000000
      0.1612777588D+00  0.1000000000D+01
 ****
     34 0
 S   6 1.00       0.000000000000
      0.3047524880D+04  0.1834737132D-02
      0.4573695180D+03  0.1403732281D-01
      0.1039486850D+03  0.6884262226D-01
      0.2921015530D+02  0.2321844432D+00
      0.9286662960D+01  0.4679413484D+00
      0.3163926960D+01  0.3623119853D+00
 SP   3 1.00       0.000000000000
      0.7868272350D+01 -0.1193324198D+00  0.6899906659D-01
      0.1881288540D+01 -0.1608541517D+00  0.3164239610D+00
      0.5442492580D+00  0.1143456438D+01  0.7443082909D+00
 SP   1 1.00       0.000000000000
      0.1687144782D+00  0.1000000000D+01  0.1000000000D+01
 D   1 1.00       0.000000000000
      0.8000000000D+00  0.1000000000D+01
 ****
     35 0
 S   6 1.00       0.000000000000
      0.3047524880D+04  0.1834737132D-02
      0.4573695180D+03  0.1403732281D-01
      0.1039486850D+03  0.6884262226D-01
      0.2921015530D+02  0.2321844432D+00
      0.9286662960D+01  0.4679413484D+00
      0.3163926960D+01  0.3623119853D+00
 SP   3 1.00       0.000000000000
      0.7868272350D+01 -0.1193324198D+00  0.6899906659D-01
      0.1881288540D+01 -0.1608541517D+00  0.3164239610D+00
      0.5442492580D+00  0.1143456438D+01  0.7443082909D+00
 SP   1 1.00       0.000000000000
      0.1687144782D+00  0.1000000000D+01  0.1000000000D+01
 D   1 1.00       0.000000000000
      0.8000000000D+00  0.1000000000D+01
 ****
     36 0
 S   3 1.00       0.000000000000
      0.1873113696D+02  0.3349460434D-01
      0.2825394365D+01  0.2347269535D+00
      0.6401216923D+00  0.8137573261D+00
 S   1 1.00       0.000000000000
      0.1612777588D+00  0.1000000000D+01
 ****
     37 0
 S   3 1.00       0.000000000000
      0.1873113696D+02  0.3349460434D-01
      0.2825394365D+01  0.2347269535D+00
      0.6401216923D+00  0.8137573261D+00
 S   1 1.00       0.000000000000
      0.1612777588D+00  0.1000000000D+01
 ****
     38 0
 S   6 1.00       0.000000000000
      0.3047524880D+04  0.1834737132D-02
      0.4573695180D+03  0.1403732281D-01
      0.1039486850D+03  0.6884262226D-01
      0.2921015530D+02  0.2321844432D+00
      0.9286662960D+01  0.4679413484D+00
      0.3163926960D+01  0.3623119853D+00
 SP   3 1.00       0.000000000000
      0.7868272350D+01 -0.1193324198D+00  0.6899906659D-01
      0.1881288540D+01 -0.1608541517D+00  0.3164239610D+00
      0.5442492580D+00  0.1143456438D+01  0.7443082909D+00
 SP   1 1.00       0.000000000000
      0.1687144782D+00  0.1000000000D+01  0.1000000000D+01
 D   1 1.00       0.000000000000
      0.8000000000D+00  0.1000000000D+01
 ****
     39 0
 S   3 1.00       0.000000000000
      0.1873113696D+02  0.3349460434D-01
      0.2825394365D+01  0.2347269535D+00
      0.6401216923D+00  0.8137573261D+00
 S   1 1.00       0.000000000000
      0.1612777588D+00  0.1000000000D+01
 ****
     40 0
 S   6 1.00       0.000000000000
      0.3047524880D+04  0.1834737132D-02
      0.4573695180D+03  0.1403732281D-01
      0.1039486850D+03  0.6884262226D-01
      0.2921015530D+02  0.2321844432D+00
      0.9286662960D+01  0.4679413484D+00
      0.3163926960D+01  0.3623119853D+00
 SP   3 1.00       0.000000000000
      0.7868272350D+01 -0.1193324198D+00  0.6899906659D-01
      0.1881288540D+01 -0.1608541517D+00  0.3164239610D+00
      0.5442492580D+00  0.1143456438D+01  0.7443082909D+00
 SP   1 1.00       0.000000000000
      0.1687144782D+00  0.1000000000D+01  0.1000000000D+01
 D   1 1.00       0.000000000000
      0.8000000000D+00  0.1000000000D+01
 ****
     41 0
 S   3 1.00       0.000000000000
      0.1873113696D+02  0.3349460434D-01
      0.2825394365D+01  0.2347269535D+00
      0.6401216923D+00  0.8137573261D+00
 S   1 1.00       0.000000000000
      0.1612777588D+00  0.1000000000D+01
 ****
     42 0
 S   3 1.00       0.000000000000
      0.1873113696D+02  0.3349460434D-01
      0.2825394365D+01  0.2347269535D+00
      0.6401216923D+00  0.8137573261D+00
 S   1 1.00       0.000000000000
      0.1612777588D+00  0.1000000000D+01
 ****
     43 0
 S   3 1.00       0.000000000000
      0.1873113696D+02  0.3349460434D-01
      0.2825394365D+01  0.2347269535D+00
      0.6401216923D+00  0.8137573261D+00
 S   1 1.00       0.000000000000
      0.1612777588D+00  0.1000000000D+01
 ****
     44 0
 S   6 1.00       0.000000000000
      0.3047524880D+04  0.1834737132D-02
      0.4573695180D+03  0.1403732281D-01
      0.1039486850D+03  0.6884262226D-01
      0.2921015530D+02  0.2321844432D+00
      0.9286662960D+01  0.4679413484D+00
      0.3163926960D+01  0.3623119853D+00
 SP   3 1.00       0.000000000000
      0.7868272350D+01 -0.1193324198D+00  0.6899906659D-01
      0.1881288540D+01 -0.1608541517D+00  0.3164239610D+00
      0.5442492580D+00  0.1143456438D+01  0.7443082909D+00
 SP   1 1.00       0.000000000000
      0.1687144782D+00  0.1000000000D+01  0.1000000000D+01
 D   1 1.00       0.000000000000
      0.8000000000D+00  0.1000000000D+01
 ****
     45 0
 S   3 1.00       0.000000000000
      0.1873113696D+02  0.3349460434D-01
      0.2825394365D+01  0.2347269535D+00
      0.6401216923D+00  0.8137573261D+00
 S   1 1.00       0.000000000000
      0.1612777588D+00  0.1000000000D+01
 ****
     46 0
 S   3 1.00       0.000000000000
      0.1873113696D+02  0.3349460434D-01
      0.2825394365D+01  0.2347269535D+00
      0.6401216923D+00  0.8137573261D+00
 S   1 1.00       0.000000000000
      0.1612777588D+00  0.1000000000D+01
 ****
     47 0
 S   6 1.00       0.000000000000
      0.3047524880D+04  0.1834737132D-02
      0.4573695180D+03  0.1403732281D-01
      0.1039486850D+03  0.6884262226D-01
      0.2921015530D+02  0.2321844432D+00
      0.9286662960D+01  0.4679413484D+00
      0.3163926960D+01  0.3623119853D+00
 SP   3 1.00       0.000000000000
      0.7868272350D+01 -0.1193324198D+00  0.6899906659D-01
      0.1881288540D+01 -0.1608541517D+00  0.3164239610D+00
      0.5442492580D+00  0.1143456438D+01  0.7443082909D+00
 SP   1 1.00       0.000000000000
      0.1687144782D+00  0.1000000000D+01  0.1000000000D+01
 D   1 1.00       0.000000000000
      0.8000000000D+00  0.1000000000D+01
 ****
     48 0
 S   3 1.00       0.000000000000
      0.1873113696D+02  0.3349460434D-01
      0.2825394365D+01  0.2347269535D+00
      0.6401216923D+00  0.8137573261D+00
 S   1 1.00       0.000000000000
      0.1612777588D+00  0.1000000000D+01
 ****
     49 0
 S   3 1.00       0.000000000000
      0.1873113696D+02  0.3349460434D-01
      0.2825394365D+01  0.2347269535D+00
      0.6401216923D+00  0.8137573261D+00
 S   1 1.00       0.000000000000
      0.1612777588D+00  0.1000000000D+01
 ****
     50 0
 S   6 1.00       0.000000000000
      0.3047524880D+04  0.1834737132D-02
      0.4573695180D+03  0.1403732281D-01
      0.1039486850D+03  0.6884262226D-01
      0.2921015530D+02  0.2321844432D+00
      0.9286662960D+01  0.4679413484D+00
      0.3163926960D+01  0.3623119853D+00
 SP   3 1.00       0.000000000000
      0.7868272350D+01 -0.1193324198D+00  0.6899906659D-01
      0.1881288540D+01 -0.1608541517D+00  0.3164239610D+00
      0.5442492580D+00  0.1143456438D+01  0.7443082909D+00
 SP   1 1.00       0.000000000000
      0.1687144782D+00  0.1000000000D+01  0.1000000000D+01
 D   1 1.00       0.000000000000
      0.8000000000D+00  0.1000000000D+01
 ****
     51 0
 S   3 1.00       0.000000000000
      0.1873113696D+02  0.3349460434D-01
      0.2825394365D+01  0.2347269535D+00
      0.6401216923D+00  0.8137573261D+00
 S   1 1.00       0.000000000000
      0.1612777588D+00  0.1000000000D+01
 ****
     52 0
 S   3 1.00       0.000000000000
      0.1873113696D+02  0.3349460434D-01
      0.2825394365D+01  0.2347269535D+00
      0.6401216923D+00  0.8137573261D+00
 S   1 1.00       0.000000000000
      0.1612777588D+00  0.1000000000D+01
 ****
     53 0
 S   6 1.00       0.000000000000
      0.3047524880D+04  0.1834737132D-02
      0.4573695180D+03  0.1403732281D-01
      0.1039486850D+03  0.6884262226D-01
      0.2921015530D+02  0.2321844432D+00
      0.9286662960D+01  0.4679413484D+00
      0.3163926960D+01  0.3623119853D+00
 SP   3 1.00       0.000000000000
      0.7868272350D+01 -0.1193324198D+00  0.6899906659D-01
      0.1881288540D+01 -0.1608541517D+00  0.3164239610D+00
      0.5442492580D+00  0.1143456438D+01  0.7443082909D+00
 SP   1 1.00       0.000000000000
      0.1687144782D+00  0.1000000000D+01  0.1000000000D+01
 D   1 1.00       0.000000000000
      0.8000000000D+00  0.1000000000D+01
 ****
     54 0
 S   3 1.00       0.000000000000
      0.1873113696D+02  0.3349460434D-01
      0.2825394365D+01  0.2347269535D+00
      0.6401216923D+00  0.8137573261D+00
 S   1 1.00       0.000000000000
      0.1612777588D+00  0.1000000000D+01
 ****
     55 0
 S   6 1.00       0.000000000000
      0.3047524880D+04  0.1834737132D-02
      0.4573695180D+03  0.1403732281D-01
      0.1039486850D+03  0.6884262226D-01
      0.2921015530D+02  0.2321844432D+00
      0.9286662960D+01  0.4679413484D+00
      0.3163926960D+01  0.3623119853D+00
 SP   3 1.00       0.000000000000
      0.7868272350D+01 -0.1193324198D+00  0.6899906659D-01
      0.1881288540D+01 -0.1608541517D+00  0.3164239610D+00
      0.5442492580D+00  0.1143456438D+01  0.7443082909D+00
 SP   1 1.00       0.000000000000
      0.1687144782D+00  0.1000000000D+01  0.1000000000D+01
 D   1 1.00       0.000000000000
      0.8000000000D+00  0.1000000000D+01
 ****
     56 0
 S   3 1.00       0.000000000000
      0.1873113696D+02  0.3349460434D-01
      0.2825394365D+01  0.2347269535D+00
      0.6401216923D+00  0.8137573261D+00
 S   1 1.00       0.000000000000
      0.1612777588D+00  0.1000000000D+01
 ****
     57 0
 S   3 1.00       0.000000000000
      0.1873113696D+02  0.3349460434D-01
      0.2825394365D+01  0.2347269535D+00
      0.6401216923D+00  0.8137573261D+00
 S   1 1.00       0.000000000000
      0.1612777588D+00  0.1000000000D+01
 ****
     58 0
 S   3 1.00       0.000000000000
      0.1873113696D+02  0.3349460434D-01
      0.2825394365D+01  0.2347269535D+00
      0.6401216923D+00  0.8137573261D+00
 S   1 1.00       0.000000000000
      0.1612777588D+00  0.1000000000D+01
 ****
     59 0
 S   6 1.00       0.000000000000
      0.3047524880D+04  0.1834737132D-02
      0.4573695180D+03  0.1403732281D-01
      0.1039486850D+03  0.6884262226D-01
      0.2921015530D+02  0.2321844432D+00
      0.9286662960D+01  0.4679413484D+00
      0.3163926960D+01  0.3623119853D+00
 SP   3 1.00       0.000000000000
      0.7868272350D+01 -0.1193324198D+00  0.6899906659D-01
      0.1881288540D+01 -0.1608541517D+00  0.3164239610D+00
      0.5442492580D+00  0.1143456438D+01  0.7443082909D+00
 SP   1 1.00       0.000000000000
      0.1687144782D+00  0.1000000000D+01  0.1000000000D+01
 D   1 1.00       0.000000000000
      0.8000000000D+00  0.1000000000D+01
 ****
     60 0
 S   3 1.00       0.000000000000
      0.1873113696D+02  0.3349460434D-01
      0.2825394365D+01  0.2347269535D+00
      0.6401216923D+00  0.8137573261D+00
 S   1 1.00       0.000000000000
      0.1612777588D+00  0.1000000000D+01
 ****
     61 0
 S   3 1.00       0.000000000000
      0.1873113696D+02  0.3349460434D-01
      0.2825394365D+01  0.2347269535D+00
      0.6401216923D+00  0.8137573261D+00
 S   1 1.00       0.000000000000
      0.1612777588D+00  0.1000000000D+01
 ****
     62 0
 S   6 1.00       0.000000000000
      0.3047524880D+04  0.1834737132D-02
      0.4573695180D+03  0.1403732281D-01
      0.1039486850D+03  0.6884262226D-01
      0.2921015530D+02  0.2321844432D+00
      0.9286662960D+01  0.4679413484D+00
      0.3163926960D+01  0.3623119853D+00
 SP   3 1.00       0.000000000000
      0.7868272350D+01 -0.1193324198D+00  0.6899906659D-01
      0.1881288540D+01 -0.1608541517D+00  0.3164239610D+00
      0.5442492580D+00  0.1143456438D+01  0.7443082909D+00
 SP   1 1.00       0.000000000000
      0.1687144782D+00  0.1000000000D+01  0.1000000000D+01
 D   1 1.00       0.000000000000
      0.8000000000D+00  0.1000000000D+01
 ****
     63 0
 S   3 1.00       0.000000000000
      0.1873113696D+02  0.3349460434D-01
      0.2825394365D+01  0.2347269535D+00
      0.6401216923D+00  0.8137573261D+00
 S   1 1.00       0.000000000000
      0.1612777588D+00  0.1000000000D+01
 ****
     64 0
 S   3 1.00       0.000000000000
      0.1873113696D+02  0.3349460434D-01
      0.2825394365D+01  0.2347269535D+00
      0.6401216923D+00  0.8137573261D+00
 S   1 1.00       0.000000000000
      0.1612777588D+00  0.1000000000D+01
 ****
     65 0
 S   6 1.00       0.000000000000
      0.3047524880D+04  0.1834737132D-02
      0.4573695180D+03  0.1403732281D-01
      0.1039486850D+03  0.6884262226D-01
      0.2921015530D+02  0.2321844432D+00
      0.9286662960D+01  0.4679413484D+00
      0.3163926960D+01  0.3623119853D+00
 SP   3 1.00       0.000000000000
      0.7868272350D+01 -0.1193324198D+00  0.6899906659D-01
      0.1881288540D+01 -0.1608541517D+00  0.3164239610D+00
      0.5442492580D+00  0.1143456438D+01  0.7443082909D+00
 SP   1 1.00       0.000000000000
      0.1687144782D+00  0.1000000000D+01  0.1000000000D+01
 D   1 1.00       0.000000000000
      0.8000000000D+00  0.1000000000D+01
 ****
     66 0
 S   3 1.00       0.000000000000
      0.1873113696D+02  0.3349460434D-01
      0.2825394365D+01  0.2347269535D+00
      0.6401216923D+00  0.8137573261D+00
 S   1 1.00       0.000000000000
      0.1612777588D+00  0.1000000000D+01
 ****
     67 0
 S   6 1.00       0.000000000000
      0.3047524880D+04  0.1834737132D-02
      0.4573695180D+03  0.1403732281D-01
      0.1039486850D+03  0.6884262226D-01
      0.2921015530D+02  0.2321844432D+00
      0.9286662960D+01  0.4679413484D+00
      0.3163926960D+01  0.3623119853D+00
 SP   3 1.00       0.000000000000
      0.7868272350D+01 -0.1193324198D+00  0.6899906659D-01
      0.1881288540D+01 -0.1608541517D+00  0.3164239610D+00
      0.5442492580D+00  0.1143456438D+01  0.7443082909D+00
 SP   1 1.00       0.000000000000
      0.1687144782D+00  0.1000000000D+01  0.1000000000D+01
 D   1 1.00       0.000000000000
      0.8000000000D+00  0.1000000000D+01
 ****
     68 0
 S   3 1.00       0.000000000000
      0.1873113696D+02  0.3349460434D-01
      0.2825394365D+01  0.2347269535D+00
      0.6401216923D+00  0.8137573261D+00
 S   1 1.00       0.000000000000
      0.1612777588D+00  0.1000000000D+01
 ****
     69 0
 S   3 1.00       0.000000000000
      0.1873113696D+02  0.3349460434D-01
      0.2825394365D+01  0.2347269535D+00
      0.6401216923D+00  0.8137573261D+00
 S   1 1.00       0.000000000000
      0.1612777588D+00  0.1000000000D+01
 ****
     70 0
 S   3 1.00       0.000000000000
      0.1873113696D+02  0.3349460434D-01
      0.2825394365D+01  0.2347269535D+00
      0.6401216923D+00  0.8137573261D+00
 S   1 1.00       0.000000000000
      0.1612777588D+00  0.1000000000D+01
 ****
     71 0
 S   6 1.00       0.000000000000
      0.3047524880D+04  0.1834737132D-02
      0.4573695180D+03  0.1403732281D-01
      0.1039486850D+03  0.6884262226D-01
      0.2921015530D+02  0.2321844432D+00
      0.9286662960D+01  0.4679413484D+00
      0.3163926960D+01  0.3623119853D+00
 SP   3 1.00       0.000000000000
      0.7868272350D+01 -0.1193324198D+00  0.6899906659D-01
      0.1881288540D+01 -0.1608541517D+00  0.3164239610D+00
      0.5442492580D+00  0.1143456438D+01  0.7443082909D+00
 SP   1 1.00       0.000000000000
      0.1687144782D+00  0.1000000000D+01  0.1000000000D+01
 D   1 1.00       0.000000000000
      0.8000000000D+00  0.1000000000D+01
 ****
     72 0
 S   3 1.00       0.000000000000
      0.1873113696D+02  0.3349460434D-01
      0.2825394365D+01  0.2347269535D+00
      0.6401216923D+00  0.8137573261D+00
 S   1 1.00       0.000000000000
      0.1612777588D+00  0.1000000000D+01
 ****
     73 0
 S   3 1.00       0.000000000000
      0.1873113696D+02  0.3349460434D-01
      0.2825394365D+01  0.2347269535D+00
      0.6401216923D+00  0.8137573261D+00
 S   1 1.00       0.000000000000
      0.1612777588D+00  0.1000000000D+01
 ****
     74 0
 S   3 1.00       0.000000000000
      0.1873113696D+02  0.3349460434D-01
      0.2825394365D+01  0.2347269535D+00
      0.6401216923D+00  0.8137573261D+00
 S   1 1.00       0.000000000000
      0.1612777588D+00  0.1000000000D+01
 ****

 AO basis set (Overlap normalization):
 Atom O1       Shell     1 S   6     bf    1 -     1         -7.046514588063         -6.828665372094         -7.796285352109
      0.5484671660D+04  0.1831074430D-02
      0.8252349460D+03  0.1395017220D-01
      0.1880469580D+03  0.6844507810D-01
      0.5296450000D+02  0.2327143360D+00
      0.1689757040D+02  0.4701928980D+00
      0.5799635340D+01  0.3585208530D+00
 Atom O1       Shell     2 SP   3    bf    2 -     5         -7.046514588063         -6.828665372094         -7.796285352109
      0.1553961625D+02 -0.1107775495D+00  0.7087426823D-01
      0.3599933586D+01 -0.1480262627D+00  0.3397528391D+00
      0.1013761750D+01  0.1130767015D+01  0.7271585773D+00
 Atom O1       Shell     3 SP   1    bf    6 -     9         -7.046514588063         -6.828665372094         -7.796285352109
      0.2700058226D+00  0.1000000000D+01  0.1000000000D+01
 Atom O1       Shell     4 D   1     bf   10 -    15         -7.046514588063         -6.828665372094         -7.796285352109
      0.8000000000D+00  0.1000000000D+01
 Atom H2       Shell     5 S   3     bf   16 -    16         -7.330706305996         -8.418307662701         -6.943360296620
      0.1873113696D+02  0.3349460434D-01
      0.2825394365D+01  0.2347269535D+00
      0.6401216923D+00  0.8137573261D+00
 Atom H2       Shell     6 S   1     bf   17 -    17         -7.330706305996         -8.418307662701         -6.943360296620
      0.1612777588D+00  0.1000000000D+01
 Atom C3       Shell     7 S   6     bf   18 -    18          3.024360524264          3.898683666852          0.000000000000
      0.3047524880D+04  0.1834737132D-02
      0.4573695180D+03  0.1403732281D-01
      0.1039486850D+03  0.6884262226D-01
      0.2921015530D+02  0.2321844432D+00
      0.9286662960D+01  0.4679413484D+00
      0.3163926960D+01  0.3623119853D+00
 Atom C3       Shell     8 SP   3    bf   19 -    22          3.024360524264          3.898683666852          0.000000000000
      0.7868272350D+01 -0.1193324198D+00  0.6899906659D-01
      0.1881288540D+01 -0.1608541517D+00  0.3164239610D+00
      0.5442492580D+00  0.1143456438D+01  0.7443082909D+00
 Atom C3       Shell     9 SP   1    bf   23 -    26          3.024360524264          3.898683666852          0.000000000000
      0.1687144782D+00  0.1000000000D+01  0.1000000000D+01
 Atom C3       Shell    10 D   1     bf   27 -    32          3.024360524264          3.898683666852          0.000000000000
      0.8000000000D+00  0.1000000000D+01
 Atom C4       Shell    11 S   6     bf   33 -    33          2.507270227180          1.148730255446          0.894444946450
      0.3047524880D+04  0.1834737132D-02
      0.4573695180D+03  0.1403732281D-01
      0.1039486850D+03  0.6884262226D-01
      0.2921015530D+02  0.2321844432D+00
      0.9286662960D+01  0.4679413484D+00
      0.3163926960D+01  0.3623119853D+00
 Atom C4       Shell    12 SP   3    bf   34 -    37          2.507270227180          1.148730255446          0.894444946450
      0.7868272350D+01 -0.1193324198D+00  0.6899906659D-01
      0.1881288540D+01 -0.1608541517D+00  0.3164239610D+00
      0.5442492580D+00  0.1143456438D+01  0.7443082909D+00
 Atom C4       Shell    13 SP   1    bf   38 -    41          2.507270227180          1.148730255446          0.894444946450
      0.1687144782D+00  0.1000000000D+01  0.1000000000D+01
 Atom C4       Shell    14 D   1     bf   42 -    47          2.507270227180          1.148730255446          0.894444946450
      0.8000000000D+00  0.1000000000D+01
 Atom H5       Shell    15 S   3     bf   48 -    48          4.001004211125          0.000000000000          0.000000000000
      0.1873113696D+02  0.3349460434D-01
      0.2825394365D+01  0.2347269535D+00
      0.6401216923D+00  0.8137573261D+00
 Atom H5       Shell    16 S   1     bf   49 -    49          4.001004211125          0.000000000000          0.000000000000
      0.1612777588D+00  0.1000000000D+01
 Atom C6       Shell    17 S   6     bf   50 -    50          0.000000000000          0.000000000000          0.000000000000
      0.3047524880D+04  0.1834737132D-02
      0.4573695180D+03  0.1403732281D-01
      0.1039486850D+03  0.6884262226D-01
      0.2921015530D+02  0.2321844432D+00
      0.9286662960D+01  0.4679413484D+00
      0.3163926960D+01  0.3623119853D+00
 Atom C6       Shell    18 SP   3    bf   51 -    54          0.000000000000          0.000000000000          0.000000000000
      0.7868272350D+01 -0.1193324198D+00  0.6899906659D-01
      0.1881288540D+01 -0.1608541517D+00  0.3164239610D+00
      0.5442492580D+00  0.1143456438D+01  0.7443082909D+00
 Atom C6       Shell    19 SP   1    bf   55 -    58          0.000000000000          0.000000000000          0.000000000000
      0.1687144782D+00  0.1000000000D+01  0.1000000000D+01
 Atom C6       Shell    20 D   1     bf   59 -    64          0.000000000000          0.000000000000          0.000000000000
      0.8000000000D+00  0.1000000000D+01
 Atom H7       Shell    21 S   3     bf   65 -    65         -1.575942021808          1.093876778145          0.797052033144
      0.1873113696D+02  0.3349460434D-01
      0.2825394365D+01  0.2347269535D+00
      0.6401216923D+00  0.8137573261D+00
 Atom H7       Shell    22 S   1     bf   66 -    66         -1.575942021808          1.093876778145          0.797052033144
      0.1612777588D+00  0.1000000000D+01
 Atom C8       Shell    23 S   6     bf   67 -    67         -0.147606961774          0.092337669134         -2.926349783896
      0.3047524880D+04  0.1834737132D-02
      0.4573695180D+03  0.1403732281D-01
      0.1039486850D+03  0.6884262226D-01
      0.2921015530D+02  0.2321844432D+00
      0.9286662960D+01  0.4679413484D+00
      0.3163926960D+01  0.3623119853D+00
 Atom C8       Shell    24 SP   3    bf   68 -    71         -0.147606961774          0.092337669134         -2.926349783896
      0.7868272350D+01 -0.1193324198D+00  0.6899906659D-01
      0.1881288540D+01 -0.1608541517D+00  0.3164239610D+00
      0.5442492580D+00  0.1143456438D+01  0.7443082909D+00
 Atom C8       Shell    25 SP   1    bf   72 -    75         -0.147606961774          0.092337669134         -2.926349783896
      0.1687144782D+00  0.1000000000D+01  0.1000000000D+01
 Atom C8       Shell    26 D   1     bf   76 -    81         -0.147606961774          0.092337669134         -2.926349783896
      0.8000000000D+00  0.1000000000D+01
 Atom H9       Shell    27 S   3     bf   82 -    82          1.324233600058         -1.220869114377         -3.598147367445
      0.1873113696D+02  0.3349460434D-01
      0.2825394365D+01  0.2347269535D+00
      0.6401216923D+00  0.8137573261D+00
 Atom H9       Shell    28 S   1     bf   83 -    83          1.324233600058         -1.220869114377         -3.598147367445
      0.1612777588D+00  0.1000000000D+01
 Atom C10      Shell    29 S   6     bf   84 -    84          5.639489818452          4.374623816790          1.310200059159
      0.3047524880D+04  0.1834737132D-02
      0.4573695180D+03  0.1403732281D-01
      0.1039486850D+03  0.6884262226D-01
      0.2921015530D+02  0.2321844432D+00
      0.9286662960D+01  0.4679413484D+00
      0.3163926960D+01  0.3623119853D+00
 Atom C10      Shell    30 SP   3    bf   85 -    88          5.639489818452          4.374623816790          1.310200059159
      0.7868272350D+01 -0.1193324198D+00  0.6899906659D-01
      0.1881288540D+01 -0.1608541517D+00  0.3164239610D+00
      0.5442492580D+00  0.1143456438D+01  0.7443082909D+00
 Atom C10      Shell    31 SP   1    bf   89 -    92          5.639489818452          4.374623816790          1.310200059159
      0.1687144782D+00  0.1000000000D+01  0.1000000000D+01
 Atom C10      Shell    32 D   1     bf   93 -    98          5.639489818452          4.374623816790          1.310200059159
      0.8000000000D+00  0.1000000000D+01
 Atom H11      Shell    33 S   3     bf   99 -    99          7.019575710559          3.254847056980          0.231657444822
      0.1873113696D+02  0.3349460434D-01
      0.2825394365D+01  0.2347269535D+00
      0.6401216923D+00  0.8137573261D+00
 Atom H11      Shell    34 S   1     bf  100 -   100          7.019575710559          3.254847056980          0.231657444822
      0.1612777588D+00  0.1000000000D+01
 Atom C12      Shell    35 S   6     bf  101 -   101          3.022615853509          3.831098972312         -2.913998231535
      0.3047524880D+04  0.1834737132D-02
      0.4573695180D+03  0.1403732281D-01
      0.1039486850D+03  0.6884262226D-01
      0.2921015530D+02  0.2321844432D+00
      0.9286662960D+01  0.4679413484D+00
      0.3163926960D+01  0.3623119853D+00
 Atom C12      Shell    36 SP   3    bf  102 -   105          3.022615853509          3.831098972312         -2.913998231535
      0.7868272350D+01 -0.1193324198D+00  0.6899906659D-01
      0.1881288540D+01 -0.1608541517D+00  0.3164239610D+00
      0.5442492580D+00  0.1143456438D+01  0.7443082909D+00
 Atom C12      Shell    37 SP   1    bf  106 -   109          3.022615853509          3.831098972312         -2.913998231535
      0.1687144782D+00  0.1000000000D+01  0.1000000000D+01
 Atom C12      Shell    38 D   1     bf  110 -   115          3.022615853509          3.831098972312         -2.913998231535
      0.8000000000D+00  0.1000000000D+01
 Atom H13      Shell    39 S   3     bf  116 -   116          4.621420330094          2.666979543130         -3.552311304201
      0.1873113696D+02  0.3349460434D-01
      0.2825394365D+01  0.2347269535D+00
      0.6401216923D+00  0.8137573261D+00
 Atom H13      Shell    40 S   1     bf  117 -   117          4.621420330094          2.666979543130         -3.552311304201
      0.1612777588D+00  0.1000000000D+01
 Atom H14      Shell    41 S   3     bf  118 -   118          3.306105368108          5.713580915656         -3.724048027788
      0.1873113696D+02  0.3349460434D-01
      0.2825394365D+01  0.2347269535D+00
      0.6401216923D+00  0.8137573261D+00
 Atom H14      Shell    42 S   1     bf  119 -   119          3.306105368108          5.713580915656         -3.724048027788
      0.1612777588D+00  0.1000000000D+01
 Atom C15      Shell    43 S   6     bf  120 -   120         -2.709286051491         -0.969012916044         -3.977629149238
      0.3047524880D+04  0.1834737132D-02
      0.4573695180D+03  0.1403732281D-01
      0.1039486850D+03  0.6884262226D-01
      0.2921015530D+02  0.2321844432D+00
      0.9286662960D+01  0.4679413484D+00
      0.3163926960D+01  0.3623119853D+00
 Atom C15      Shell    44 SP   3    bf  121 -   124         -2.709286051491         -0.969012916044         -3.977629149238
      0.7868272350D+01 -0.1193324198D+00  0.6899906659D-01
      0.1881288540D+01 -0.1608541517D+00  0.3164239610D+00
      0.5442492580D+00  0.1143456438D+01  0.7443082909D+00
 Atom C15      Shell    45 SP   1    bf  125 -   128         -2.709286051491         -0.969012916044         -3.977629149238
      0.1687144782D+00  0.1000000000D+01  0.1000000000D+01
 Atom C15      Shell    46 D   1     bf  129 -   134         -2.709286051491         -0.969012916044         -3.977629149238
      0.8000000000D+00  0.1000000000D+01
 Atom C16      Shell    47 S   6     bf  135 -   135          3.100407393530          1.188338102609          3.736897277320
      0.3047524880D+04  0.1834737132D-02
      0.4573695180D+03  0.1403732281D-01
      0.1039486850D+03  0.6884262226D-01
      0.2921015530D+02  0.2321844432D+00
      0.9286662960D+01  0.4679413484D+00
      0.3163926960D+01  0.3623119853D+00
 Atom C16      Shell    48 SP   3    bf  136 -   139          3.100407393530          1.188338102609          3.736897277320
      0.7868272350D+01 -0.1193324198D+00  0.6899906659D-01
      0.1881288540D+01 -0.1608541517D+00  0.3164239610D+00
      0.5442492580D+00  0.1143456438D+01  0.7443082909D+00
 Atom C16      Shell    49 SP   1    bf  140 -   143          3.100407393530          1.188338102609          3.736897277320
      0.1687144782D+00  0.1000000000D+01  0.1000000000D+01
 Atom C16      Shell    50 D   1     bf  144 -   149          3.100407393530          1.188338102609          3.736897277320
      0.8000000000D+00  0.1000000000D+01
 Atom H17      Shell    51 S   3     bf  150 -   150          3.609070721486         -0.680622623487          4.462695844918
      0.1873113696D+02  0.3349460434D-01
      0.2825394365D+01  0.2347269535D+00
      0.6401216923D+00  0.8137573261D+00
 Atom H17      Shell    52 S   1     bf  151 -   151          3.609070721486         -0.680622623487          4.462695844918
      0.1612777588D+00  0.1000000000D+01
 Atom H18      Shell    53 S   3     bf  152 -   152          1.450297060308          1.819967100560          4.821643201147
      0.1873113696D+02  0.3349460434D-01
      0.2825394365D+01  0.2347269535D+00
      0.6401216923D+00  0.8137573261D+00
 Atom H18      Shell    54 S   1     bf  153 -   153          1.450297060308          1.819967100560          4.821643201147
      0.1612777588D+00  0.1000000000D+01
 Atom C19      Shell    55 S   6     bf  154 -   154          0.538057262063          2.733316338120         -3.973485244390
      0.3047524880D+04  0.1834737132D-02
      0.4573695180D+03  0.1403732281D-01
      0.1039486850D+03  0.6884262226D-01
      0.2921015530D+02  0.2321844432D+00
      0.9286662960D+01  0.4679413484D+00
      0.3163926960D+01  0.3623119853D+00
 Atom C19      Shell    56 SP   3    bf  155 -   158          0.538057262063          2.733316338120         -3.973485244390
      0.7868272350D+01 -0.1193324198D+00  0.6899906659D-01
      0.1881288540D+01 -0.1608541517D+00  0.3164239610D+00
      0.5442492580D+00  0.1143456438D+01  0.7443082909D+00
 Atom C19      Shell    57 SP   1    bf  159 -   162          0.538057262063          2.733316338120         -3.973485244390
      0.1687144782D+00  0.1000000000D+01  0.1000000000D+01
 Atom C19      Shell    58 D   1     bf  163 -   168          0.538057262063          2.733316338120         -3.973485244390
      0.8000000000D+00  0.1000000000D+01
 Atom H20      Shell    59 S   3     bf  169 -   169         -0.993490538644          4.066730548986         -3.573989675480
      0.1873113696D+02  0.3349460434D-01
      0.2825394365D+01  0.2347269535D+00
      0.6401216923D+00  0.8137573261D+00
 Atom H20      Shell    60 S   1     bf  170 -   170         -0.993490538644          4.066730548986         -3.573989675480
      0.1612777588D+00  0.1000000000D+01
 Atom H21      Shell    61 S   3     bf  171 -   171          0.689777023792          2.646228554951         -6.037012267615
      0.1873113696D+02  0.3349460434D-01
      0.2825394365D+01  0.2347269535D+00
      0.6401216923D+00  0.8137573261D+00
 Atom H21      Shell    62 S   1     bf  172 -   172          0.689777023792          2.646228554951         -6.037012267615
      0.1612777588D+00  0.1000000000D+01
 Atom C22      Shell    63 S   6     bf  173 -   173          5.310048853932          3.110047699116          3.962968767283
      0.3047524880D+04  0.1834737132D-02
      0.4573695180D+03  0.1403732281D-01
      0.1039486850D+03  0.6884262226D-01
      0.2921015530D+02  0.2321844432D+00
      0.9286662960D+01  0.4679413484D+00
      0.3163926960D+01  0.3623119853D+00
 Atom C22      Shell    64 SP   3    bf  174 -   177          5.310048853932          3.110047699116          3.962968767283
      0.7868272350D+01 -0.1193324198D+00  0.6899906659D-01
      0.1881288540D+01 -0.1608541517D+00  0.3164239610D+00
      0.5442492580D+00  0.1143456438D+01  0.7443082909D+00
 Atom C22      Shell    65 SP   1    bf  178 -   181          5.310048853932          3.110047699116          3.962968767283
      0.1687144782D+00  0.1000000000D+01  0.1000000000D+01
 Atom C22      Shell    66 D   1     bf  182 -   187          5.310048853932          3.110047699116          3.962968767283
      0.8000000000D+00  0.1000000000D+01
 Atom H23      Shell    67 S   3     bf  188 -   188          4.888049745929          4.545198358804          5.396515162868
      0.1873113696D+02  0.3349460434D-01
      0.2825394365D+01  0.2347269535D+00
      0.6401216923D+00  0.8137573261D+00
 Atom H23      Shell    68 S   1     bf  189 -   189          4.888049745929          4.545198358804          5.396515162868
      0.1612777588D+00  0.1000000000D+01
 Atom H24      Shell    69 S   3     bf  190 -   190          7.059848306684          2.186721104417          4.565947060415
      0.1873113696D+02  0.3349460434D-01
      0.2825394365D+01  0.2347269535D+00
      0.6401216923D+00  0.8137573261D+00
 Atom H24      Shell    70 S   1     bf  191 -   191          7.059848306684          2.186721104417          4.565947060415
      0.1612777588D+00  0.1000000000D+01
 Atom C25      Shell    71 S   6     bf  192 -   192         -0.270692667172         -2.743689233836          0.915212375247
      0.3047524880D+04  0.1834737132D-02
      0.4573695180D+03  0.1403732281D-01
      0.1039486850D+03  0.6884262226D-01
      0.2921015530D+02  0.2321844432D+00
      0.9286662960D+01  0.4679413484D+00
      0.3163926960D+01  0.3623119853D+00
 Atom C25      Shell    72 SP   3    bf  193 -   196         -0.270692667172         -2.743689233836          0.915212375247
      0.7868272350D+01 -0.1193324198D+00  0.6899906659D-01
      0.1881288540D+01 -0.1608541517D+00  0.3164239610D+00
      0.5442492580D+00  0.1143456438D+01  0.7443082909D+00
 Atom C25      Shell    73 SP   1    bf  197 -   200         -0.270692667172         -2.743689233836          0.915212375247
      0.1687144782D+00  0.1000000000D+01  0.1000000000D+01
 Atom C25      Shell    74 D   1     bf  201 -   206         -0.270692667172         -2.743689233836          0.915212375247
      0.8000000000D+00  0.1000000000D+01
 Atom H26      Shell    75 S   3     bf  207 -   207         -0.677809388193         -2.779588096621          2.949779477765
      0.1873113696D+02  0.3349460434D-01
      0.2825394365D+01  0.2347269535D+00
      0.6401216923D+00  0.8137573261D+00
 Atom H26      Shell    76 S   1     bf  208 -   208         -0.677809388193         -2.779588096621          2.949779477765
      0.1612777588D+00  0.1000000000D+01
 Atom H27      Shell    77 S   3     bf  209 -   209          1.553025256303         -3.729515459025          0.702266601750
      0.1873113696D+02  0.3349460434D-01
      0.2825394365D+01  0.2347269535D+00
      0.6401216923D+00  0.8137573261D+00
 Atom H27      Shell    78 S   1     bf  210 -   210          1.553025256303         -3.729515459025          0.702266601750
      0.1612777588D+00  0.1000000000D+01
 Atom C28      Shell    79 S   6     bf  211 -   211          6.685587384662          7.102108838009          1.494951307725
      0.3047524880D+04  0.1834737132D-02
      0.4573695180D+03  0.1403732281D-01
      0.1039486850D+03  0.6884262226D-01
      0.2921015530D+02  0.2321844432D+00
      0.9286662960D+01  0.4679413484D+00
      0.3163926960D+01  0.3623119853D+00
 Atom C28      Shell    80 SP   3    bf  212 -   215          6.685587384662          7.102108838009          1.494951307725
      0.7868272350D+01 -0.1193324198D+00  0.6899906659D-01
      0.1881288540D+01 -0.1608541517D+00  0.3164239610D+00
      0.5442492580D+00  0.1143456438D+01  0.7443082909D+00
 Atom C28      Shell    81 SP   1    bf  216 -   219          6.685587384662          7.102108838009          1.494951307725
      0.1687144782D+00  0.1000000000D+01  0.1000000000D+01
 Atom C28      Shell    82 D   1     bf  220 -   225          6.685587384662          7.102108838009          1.494951307725
      0.8000000000D+00  0.1000000000D+01
 Atom H29      Shell    83 S   3     bf  226 -   226          5.319543575016          8.213380469618          2.599049879084
      0.1873113696D+02  0.3349460434D-01
      0.2825394365D+01  0.2347269535D+00
      0.6401216923D+00  0.8137573261D+00
 Atom H29      Shell    84 S   1     bf  227 -   227          5.319543575016          8.213380469618          2.599049879084
      0.1612777588D+00  0.1000000000D+01
 Atom C30      Shell    85 S   6     bf  228 -   228          1.032374280547          5.793382462878          0.987472006575
      0.3047524880D+04  0.1834737132D-02
      0.4573695180D+03  0.1403732281D-01
      0.1039486850D+03  0.6884262226D-01
      0.2921015530D+02  0.2321844432D+00
      0.9286662960D+01  0.4679413484D+00
      0.3163926960D+01  0.3623119853D+00
 Atom C30      Shell    86 SP   3    bf  229 -   232          1.032374280547          5.793382462878          0.987472006575
      0.7868272350D+01 -0.1193324198D+00  0.6899906659D-01
      0.1881288540D+01 -0.1608541517D+00  0.3164239610D+00
      0.5442492580D+00  0.1143456438D+01  0.7443082909D+00
 Atom C30      Shell    87 SP   1    bf  233 -   236          1.032374280547          5.793382462878          0.987472006575
      0.1687144782D+00  0.1000000000D+01  0.1000000000D+01
 Atom C30      Shell    88 D   1     bf  237 -   242          1.032374280547          5.793382462878          0.987472006575
      0.8000000000D+00  0.1000000000D+01
 Atom H31      Shell    89 S   3     bf  243 -   243          1.397307136432          7.689361000339          0.241980130515
      0.1873113696D+02  0.3349460434D-01
      0.2825394365D+01  0.2347269535D+00
      0.6401216923D+00  0.8137573261D+00
 Atom H31      Shell    90 S   1     bf  244 -   244          1.397307136432          7.689361000339          0.241980130515
      0.1612777588D+00  0.1000000000D+01
 Atom H32      Shell    91 S   3     bf  245 -   245         -0.886984326575          5.278611275499          0.426246872198
      0.1873113696D+02  0.3349460434D-01
      0.2825394365D+01  0.2347269535D+00
      0.6401216923D+00  0.8137573261D+00
 Atom H32      Shell    92 S   1     bf  246 -   246         -0.886984326575          5.278611275499          0.426246872198
      0.1612777588D+00  0.1000000000D+01
 Atom H33      Shell    93 S   3     bf  247 -   247          1.047718025267          5.930736375367          3.050740893210
      0.1873113696D+02  0.3349460434D-01
      0.2825394365D+01  0.2347269535D+00
      0.6401216923D+00  0.8137573261D+00
 Atom H33      Shell    94 S   1     bf  248 -   248          1.047718025267          5.930736375367          3.050740893210
      0.1612777588D+00  0.1000000000D+01
 Atom C34      Shell    95 S   6     bf  249 -   249         -3.405977772177         -3.433836984102         -2.614857683850
      0.3047524880D+04  0.1834737132D-02
      0.4573695180D+03  0.1403732281D-01
      0.1039486850D+03  0.6884262226D-01
      0.2921015530D+02  0.2321844432D+00
      0.9286662960D+01  0.4679413484D+00
      0.3163926960D+01  0.3623119853D+00
 Atom C34      Shell    96 SP   3    bf  250 -   253         -3.405977772177         -3.433836984102         -2.614857683850
      0.7868272350D+01 -0.1193324198D+00  0.6899906659D-01
      0.1881288540D+01 -0.1608541517D+00  0.3164239610D+00
      0.5442492580D+00  0.1143456438D+01  0.7443082909D+00
 Atom C34      Shell    97 SP   1    bf  254 -   257         -3.405977772177         -3.433836984102         -2.614857683850
      0.1687144782D+00  0.1000000000D+01  0.1000000000D+01
 Atom C34      Shell    98 D   1     bf  258 -   263         -3.405977772177         -3.433836984102         -2.614857683850
      0.8000000000D+00  0.1000000000D+01
 Atom C35      Shell    99 S   6     bf  264 -   264         -2.371519615034         -1.570725735174         -6.844921665563
      0.3047524880D+04  0.1834737132D-02
      0.4573695180D+03  0.1403732281D-01
      0.1039486850D+03  0.6884262226D-01
      0.2921015530D+02  0.2321844432D+00
      0.9286662960D+01  0.4679413484D+00
      0.3163926960D+01  0.3623119853D+00
 Atom C35      Shell   100 SP   3    bf  265 -   268         -2.371519615034         -1.570725735174         -6.844921665563
      0.7868272350D+01 -0.1193324198D+00  0.6899906659D-01
      0.1881288540D+01 -0.1608541517D+00  0.3164239610D+00
      0.5442492580D+00  0.1143456438D+01  0.7443082909D+00
 Atom C35      Shell   101 SP   1    bf  269 -   272         -2.371519615034         -1.570725735174         -6.844921665563
      0.1687144782D+00  0.1000000000D+01  0.1000000000D+01
 Atom C35      Shell   102 D   1     bf  273 -   278         -2.371519615034         -1.570725735174         -6.844921665563
      0.8000000000D+00  0.1000000000D+01
 Atom H36      Shell   103 S   3     bf  279 -   279         -0.605196699331         -2.637659610698         -7.078626005041
      0.1873113696D+02  0.3349460434D-01
      0.2825394365D+01  0.2347269535D+00
      0.6401216923D+00  0.8137573261D+00
 Atom H36      Shell   104 S   1     bf  280 -   280         -0.605196699331         -2.637659610698         -7.078626005041
      0.1612777588D+00  0.1000000000D+01
 Atom H37      Shell   105 S   3     bf  281 -   281         -2.133108893725          0.196510900908         -7.896247102429
      0.1873113696D+02  0.3349460434D-01
      0.2825394365D+01  0.2347269535D+00
      0.6401216923D+00  0.8137573261D+00
 Atom H37      Shell   106 S   1     bf  282 -   282         -2.133108893725          0.196510900908         -7.896247102429
      0.1612777588D+00  0.1000000000D+01
 Atom C38      Shell   107 S   6     bf  283 -   283         -2.279129184746         -4.191123850382         -0.474720350616
      0.3047524880D+04  0.1834737132D-02
      0.4573695180D+03  0.1403732281D-01
      0.1039486850D+03  0.6884262226D-01
      0.2921015530D+02  0.2321844432D+00
      0.9286662960D+01  0.4679413484D+00
      0.3163926960D+01  0.3623119853D+00
 Atom C38      Shell   108 SP   3    bf  284 -   287         -2.279129184746         -4.191123850382         -0.474720350616
      0.7868272350D+01 -0.1193324198D+00  0.6899906659D-01
      0.1881288540D+01 -0.1608541517D+00  0.3164239610D+00
      0.5442492580D+00  0.1143456438D+01  0.7443082909D+00
 Atom C38      Shell   109 SP   1    bf  288 -   291         -2.279129184746         -4.191123850382         -0.474720350616
      0.1687144782D+00  0.1000000000D+01  0.1000000000D+01
 Atom C38      Shell   110 D   1     bf  292 -   297         -2.279129184746         -4.191123850382         -0.474720350616
      0.8000000000D+00  0.1000000000D+01
 Atom H39      Shell   111 S   3     bf  298 -   298         -2.846256236192         -5.991716061333          0.352247710170
      0.1873113696D+02  0.3349460434D-01
      0.2825394365D+01  0.2347269535D+00
      0.6401216923D+00  0.8137573261D+00
 Atom H39      Shell   112 S   1     bf  299 -   299         -2.846256236192         -5.991716061333          0.352247710170
      0.1612777588D+00  0.1000000000D+01
 Atom C40      Shell   113 S   6     bf  300 -   300         -4.899877107158          0.950929238507         -3.632047088954
      0.3047524880D+04  0.1834737132D-02
      0.4573695180D+03  0.1403732281D-01
      0.1039486850D+03  0.6884262226D-01
      0.2921015530D+02  0.2321844432D+00
      0.9286662960D+01  0.4679413484D+00
      0.3163926960D+01  0.3623119853D+00
 Atom C40      Shell   114 SP   3    bf  301 -   304         -4.899877107158          0.950929238507         -3.632047088954
      0.7868272350D+01 -0.1193324198D+00  0.6899906659D-01
      0.1881288540D+01 -0.1608541517D+00  0.3164239610D+00
      0.5442492580D+00  0.1143456438D+01  0.7443082909D+00
[...]
 1550 Fit       0.001338
 1551 Fit       0.002790
 1552 Fit       0.002231
 1553 Fit       0.001115
 1554 Fit       0.000380
 1555 Fit       0.000738
 1556 Fit       0.002143
 1557 Fit       0.003095
 1558 Fit       0.002233
 1559 Fit      -0.001129
 1560 Fit      -0.001846
 1561 Fit      -0.002171
 1562 Fit       0.000651
 1563 Fit       0.000708
 1564 Fit      -0.000287
 1565 Fit      -0.002062
 1566 Fit      -0.002025
 1567 Fit      -0.001421
 1568 Fit      -0.000042
 1569 Fit      -0.001750
 1570 Fit       0.000828
 1571 Fit       0.000859
 1572 Fit       0.001096
 1573 Fit      -0.000951
 1574 Fit       0.002789
 1575 Fit       0.002250
 1576 Fit       0.001214
 1577 Fit      -0.001868
 1578 Fit       0.003033
 1579 Fit       0.000121
 1580 Fit      -0.000885
 1581 Fit      -0.001629
 1582 Fit      -0.001925
 1583 Fit      -0.002085
 1584 Fit      -0.002292
 1585 Fit      -0.000809
 1586 Fit      -0.001943
 1587 Fit      -0.000745
 1588 Fit      -0.000173
 1589 Fit       0.001038
 1590 Fit       0.001775
 1591 Fit       0.005253
 1592 Fit       0.001745
 1593 Fit       0.003072
 1594 Fit       0.002778
 1595 Fit       0.002359
 1596 Fit       0.001934
 1597 Fit       0.002227
 1598 Fit       0.002416
 1599 Fit       0.000110
 1600 Fit      -0.000055
 1601 Fit       0.000328
 1602 Fit       0.000583
 1603 Fit       0.000521
 1604 Fit       0.000216
 1605 Fit      -0.001770
 1606 Fit      -0.001674
 1607 Fit      -0.001140
 1608 Fit       0.001834
 1609 Fit      -0.000384
 1610 Fit       0.000847
 1611 Fit       0.001438
 1612 Fit       0.003179
 1613 Fit       0.000306
 1614 Fit       0.001783
 1615 Fit       0.002711
 1616 Fit       0.002985
 1617 Fit       0.000518
 1618 Fit       0.002034
 1619 Fit      -0.013229
 1620 Fit      -0.005338
 1621 Fit      -0.020524
 1622 Fit      -0.019191
 1623 Fit      -0.012660
 1624 Fit      -0.024217
 1625 Fit      -0.023618
 1626 Fit      -0.018233
 1627 Fit      -0.010186
 1628 Fit      -0.001375
 1629 Fit      -0.004365
 1630 Fit      -0.026410
 1631 Fit      -0.024676
 1632 Fit      -0.019780
 1633 Fit      -0.014927
 1634 Fit      -0.012971
 1635 Fit      -0.013530
 1636 Fit      -0.013479
 1637 Fit      -0.025001
 1638 Fit      -0.025822
 1639 Fit      -0.022386
 1640 Fit      -0.020522
 1641 Fit      -0.024024
 1642 Fit       0.008552
 1643 Fit       0.015129
 1644 Fit       0.018540
 1645 Fit       0.019148
 1646 Fit      -0.002592
 1647 Fit       0.006886
 1648 Fit       0.012910
 1649 Fit       0.015995
 1650 Fit       0.016607
 1651 Fit       0.015216
 1652 Fit       0.000563
 1653 Fit       0.007379
 1654 Fit       0.010572
 1655 Fit       0.010789
 1656 Fit       0.008559
 1657 Fit      -0.002510
 1658 Fit       0.001174
 1659 Fit      -0.000330
 1660 Fit       0.003750
 1661 Fit       0.003778
 1662 Fit       0.003871
 1663 Fit       0.003970
 1664 Fit       0.003788
 1665 Fit       0.004003
 1666 Fit       0.002075
 1667 Fit       0.002857
 1668 Fit       0.002330
 1669 Fit      -0.000372
 1670 Fit      -0.000356
 1671 Fit       0.002282
 1672 Fit       0.003238
 1673 Fit       0.002710
 1674 Fit       0.003001
 1675 Fit       0.003778
 1676 Fit       0.004052
 1677 Fit       0.002821
 1678 Fit       0.000304
 1679 Fit       0.000509
 1680 Fit       0.002502
 1681 Fit       0.003556
 1682 Fit       0.003176
 1683 Fit       0.001641
 1684 Fit       0.000252
 1685 Fit       0.002715
 1686 Fit       0.002470
 1687 Fit       0.000877
 1688 Fit       0.001652
 1689 Fit       0.003051
 1690 Fit       0.001081
 1691 Fit       0.002519
 1692 Fit       0.002114
 1693 Fit      -0.000174
 1694 Fit       0.000912
 1695 Fit       0.001525
 1696 Fit       0.000909
 1697 Fit      -0.000325
 1698 Fit      -0.000061
 1699 Fit      -0.000174
 1700 Fit       0.000870
 1701 Fit       0.000227
 1702 Fit       0.001214
 1703 Fit       0.001491
 1704 Fit       0.002386
 1705 Fit       0.002750
 1706 Fit       0.002819
 1707 Fit       0.002271
 1708 Fit       0.002891
 1709 Fit       0.003417
 1710 Fit       0.003313
 1711 Fit       0.003055
 1712 Fit       0.003559
 1713 Fit       0.003367
 1714 Fit       0.000844
 1715 Fit       0.002489
 1716 Fit       0.002057
 1717 Fit       0.000831
 1718 Fit       0.004420
 1719 Fit       0.003602
 1720 Fit       0.002977
 1721 Fit       0.002389
 1722 Fit       0.001832
 1723 Fit       0.002960
 1724 Fit       0.002690
 1725 Fit       0.001362
 1726 Fit       0.002554
 1727 Fit       0.002135
 1728 Fit       0.002743
 1729 Fit       0.001573
 1730 Fit       0.002830
 1731 Fit       0.001396
 1732 Fit       0.001160
 1733 Fit       0.001536
 1734 Fit       0.001738
 1735 Fit       0.002565
 1736 Fit       0.001722
 1737 Fit       0.002351
 1738 Fit       0.002476
 1739 Fit       0.003188
 1740 Fit       0.003335
 1741 Fit      -0.000009
 1742 Fit      -0.000682
 1743 Fit      -0.000459
 1744 Fit       0.001459
 1745 Fit       0.001123
 1746 Fit       0.002438
 1747 Fit       0.002851
 1748 Fit       0.002097
 1749 Fit       0.000217
 1750 Fit       0.003260
 1751 Fit       0.003827
 1752 Fit       0.003805
 1753 Fit       0.000596
 1754 Fit       0.001970
 1755 Fit       0.003077
 1756 Fit       0.003487
 1757 Fit       0.004010
 1758 Fit       0.002815
 1759 Fit       0.002762
 1760 Fit       0.002522
 1761 Fit       0.002792
 1762 Fit       0.003299
 1763 Fit       0.003078
 1764 Fit       0.002166
 1765 Fit       0.001284
 1766 Fit       0.001665
 1767 Fit       0.003174
 1768 Fit       0.003639
 1769 Fit       0.002939
 1770 Fit       0.002643
 1771 Fit       0.003317
 1772 Fit       0.003916
 1773 Fit       0.002538
 1774 Fit       0.003073
 1775 Fit       0.003658
 1776 Fit       0.001301
 1777 Fit       0.002621
 1778 Fit       0.003537
 1779 Fit       0.000117
 1780 Fit       0.002414
 1781 Fit       0.002305
 1782 Fit       0.001495
 1783 Fit       0.002079
 1784 Fit       0.001088
 1785 Fit       0.001311
 1786 Fit       0.001550
 1787 Fit       0.000377
 1788 Fit      -0.000321
 1789 Fit      -0.000345
 1790 Fit       0.000414
 1791 Fit      -0.000571
 1792 Fit      -0.000310
 1793 Fit       0.001024
 1794 Fit       0.000712
 1795 Fit       0.001796
 1796 Fit       0.001452
 1797 Fit       0.000308
 1798 Fit       0.002412
 1799 Fit       0.001265
 1800 Fit       0.003532
 1801 Fit       0.002059
 1802 Fit       0.003365
 1803 Fit       0.001075
 1804 Fit       0.002808
 1805 Fit       0.001357
 1806 Fit       0.003208
 1807 Fit       0.000561
 1808 Fit       0.001961
 1809 Fit       0.002056
 1810 Fit       0.004557
 1811 Fit       0.004433
 1812 Fit       0.003383
 1813 Fit       0.003581
 1814 Fit       0.002008
 1815 Fit       0.001558
 1816 Fit       0.001712
 1817 Fit       0.002592
 1818 Fit       0.000182
 1819 Fit      -0.000104
 1820 Fit       0.001677
 1821 Fit       0.002787
 1822 Fit       0.002453
 1823 Fit       0.001735
 1824 Fit       0.002600
 1825 Fit       0.002679
 1826 Fit       0.001470
 1827 Fit       0.000886
 1828 Fit       0.001551
 1829 Fit       0.001807
 1830 Fit       0.000406
 1831 Fit       0.000472
 1832 Fit       0.003540
 1833 Fit       0.001026
 1834 Fit       0.002894
 1835 Fit       0.003367
 1836 Fit       0.002698
 1837 Fit       0.001070
 1838 Fit       0.000682
 1839 Fit       0.001712
 1840 Fit       0.000739
 1841 Fit       0.000017
 1842 Fit      -0.003370
 1843 Fit      -0.000807
 1844 Fit      -0.006191
 1845 Fit      -0.006429
 1846 Fit      -0.002945
 1847 Fit       0.000321
 1848 Fit      -0.000848
 1849 Fit       0.000072
 1850 Fit      -0.002962
 1851 Fit      -0.002593
 1852 Fit       0.001853
 1853 Fit       0.004503
 1854 Fit       0.004805
 1855 Fit       0.002276
 1856 Fit       0.005450
 1857 Fit       0.006192
 1858 Fit       0.005316
 1859 Fit       0.007780
 1860 Fit       0.007605
 1861 Fit       0.005933
 1862 Fit       0.003867
 1863 Fit       0.005502
 1864 Fit       0.001848
 1865 Fit      -0.000989
 1866 Fit      -0.001669
 1867 Fit       0.000399
 1868 Fit      -0.001070
 1869 Fit      -0.001732
 1870 Fit      -0.000940
 1871 Fit      -0.001759
 1872 Fit      -0.001495
 1873 Fit       0.001574
 1874 Fit      -0.000271
 1875 Fit       0.002032
 1876 Fit       0.000427
 1877 Fit       0.002902
 1878 Fit       0.002356
 1879 Fit       0.000768
 1880 Fit      -0.000986
 1881 Fit       0.001511
 1882 Fit      -0.000359
 1883 Fit      -0.001494
 1884 Fit      -0.000792
 1885 Fit      -0.001182
 1886 Fit      -0.000410
 1887 Fit      -0.001201
 1888 Fit      -0.001096
 1889 Fit      -0.001590
 1890 Fit       0.002908
 1891 Fit       0.000593
 1892 Fit      -0.002598
 1893 Fit       0.003314
 1894 Fit       0.001528
 1895 Fit       0.000023
 1896 Fit      -0.001849
 1897 Fit      -0.006037
 1898 Fit       0.001642
 1899 Fit       0.000077
 1900 Fit      -0.001058
 1901 Fit      -0.003130
 1902 Fit      -0.000376
 1903 Fit       0.004256
 1904 Fit       0.001304
 1905 Fit       0.006120
 1906 Fit       0.003351
 1907 Fit       0.007247
 1908 Fit       0.009230
 1909 Fit       0.006504
 1910 Fit       0.011328
 1911 Fit       0.012698
 1912 Fit       0.011148
 1913 Fit       0.007820
 1914 Fit       0.015942
 1915 Fit       0.009539
 1916 Fit      -0.005268
 1917 Fit      -0.002532
 1918 Fit      -0.001341
 1919 Fit      -0.000874
 1920 Fit      -0.000724
 1921 Fit      -0.000538
 1922 Fit      -0.001910
 1923 Fit      -0.001612
 1924 Fit      -0.002927
 1925 Fit      -0.006894
 1926 Fit      -0.008639
 1927 Fit      -0.013142
 1928 Fit      -0.000608
 1929 Fit      -0.002947
 1930 Fit      -0.006569
 1931 Fit      -0.012662
 1932 Fit      -0.022631
 1933 Fit      -0.002456
 1934 Fit      -0.008893
 1935 Fit      -0.001067
 1936 Fit      -0.002478
 1937 Fit      -0.005524
 1938 Fit      -0.012963
 1939 Fit      -0.002667
 1940 Fit      -0.004879
 1941 Fit      -0.009711
 1942 Fit      -0.020612
 1943 Fit      -0.002518
 1944 Fit       0.000123
 1945 Fit      -0.000425
 1946 Fit      -0.000286
 1947 Fit      -0.000750
 1948 Fit      -0.002907
 1949 Fit      -0.012679
 1950 Fit      -0.020770
 1951 Fit      -0.015307
 1952 Fit      -0.006203
 1953 Fit      -0.001831
 1954 Fit      -0.001880
 1955 Fit      -0.002092
 1956 Fit      -0.004942
 1957 Fit      -0.009402
 1958 Fit      -0.010007
 1959 Fit      -0.004858
 1960 Fit      -0.004679
 1961 Fit      -0.000128
 1962 Fit       0.000583
 1963 Fit       0.000478
 1964 Fit       0.000255
 1965 Fit      -0.000119
 1966 Fit       0.001375
 1967 Fit       0.001076
 1968 Fit       0.000498
 1969 Fit       0.002430
 1970 Fit       0.002232
 1971 Fit       0.001836
 1972 Fit       0.001169
 1973 Fit       0.002629
 1974 Fit       0.002757
 1975 Fit       0.002590
 1976 Fit       0.001906
 1977 Fit       0.002650
 1978 Fit       0.001677
 1979 Fit       0.001312
 1980 Fit       0.005745
 1981 Fit       0.000077
 1982 Fit       0.000942
 1983 Fit       0.007738
 1984 Fit       0.004255
 1985 Fit       0.002228
 1986 Fit       0.004385
 1987 Fit       0.003040
 1988 Fit       0.002566
 1989 Fit       0.001446
 1990 Fit      -0.000736
 1991 Fit       0.000580
 1992 Fit      -0.005733
 1993 Fit       0.000616
 1994 Fit       0.000605
 1995 Fit      -0.000366
 1996 Fit      -0.000539
 1997 Fit      -0.000827
 1998 Fit      -0.001151
 1999 Fit      -0.001401
 2000 Fit      -0.001090
 2001 Fit      -0.001308
 2002 Fit      -0.000578
 2003 Fit      -0.000743
 2004 Fit       0.001630
 2005 Fit      -0.000102
 2006 Fit       0.002223
 2007 Fit       0.002353
 2008 Fit       0.000964
 2009 Fit      -0.000579
 2010 Fit      -0.000483
 2011 Fit       0.001301
 2012 Fit       0.000061
 2013 Fit       0.001774
 2014 Fit       0.002158
 2015 Fit       0.002571
 2016 Fit       0.002203
 2017 Fit       0.001236
 2018 Fit       0.000138
 2019 Fit       0.001103
 2020 Fit       0.001655
 2021 Fit       0.001452
 2022 Fit       0.000583
 2023 Fit       0.000058
 2024 Fit       0.000315
 2025 Fit      -0.000272
 2026 Fit       0.002244
 2027 Fit       0.000284
 2028 Fit       0.002352
 2029 Fit       0.000253
 2030 Fit       0.002373
 2031 Fit       0.001378
 2032 Fit       0.000595
 2033 Fit       0.000370
 2034 Fit       0.001415
 2035 Fit       0.000277
 2036 Fit       0.004029
 2037 Fit       0.002354
 2038 Fit       0.000849
 2039 Fit       0.003153
 2040 Fit       0.001457
 2041 Fit       0.000636
 2042 Fit       0.000645
 2043 Fit       0.000645
 2044 Fit       0.000621
 2045 Fit       0.000471
 2046 Fit       0.000652
 2047 Fit       0.001575
 2048 Fit       0.001421
 2049 Fit       0.001669
 2050 Fit      -0.002211
 2051 Fit      -0.001224
 2052 Fit      -0.000602
 2053 Fit       0.002079
 2054 Fit       0.002307
 2055 Fit       0.002429
 2056 Fit      -0.000963
 2057 Fit       0.000780
 2058 Fit       0.001800
 2059 Fit       0.002383
 2060 Fit      -0.000821
 2061 Fit       0.000604
 2062 Fit       0.001405
 2063 Fit      -0.000354
 2064 Fit       0.000936
 2065 Fit      -0.000920
 2066 Fit       0.002506
 2067 Fit       0.002127
 2068 Fit       0.000842
 2069 Fit      -0.000609
 2070 Fit       0.000619
 2071 Fit       0.001609
 2072 Fit       0.001708
 2073 Fit       0.000622
 2074 Fit      -0.000360
 2075 Fit       0.000998
 2076 Fit       0.001123
 2077 Fit       0.001160
 2078 Fit       0.001564
 2079 Fit       0.001240
 2080 Fit       0.000712
 2081 Fit       0.001537
 2082 Fit       0.002247
 2083 Fit       0.001854
 2084 Fit       0.000668
 2085 Fit       0.000482
 2086 Fit      -0.001461
 2087 Fit      -0.001100
 2088 Fit      -0.000516
 2089 Fit       0.000563
 2090 Fit      -0.002147
 2091 Fit      -0.002263
 2092 Fit      -0.001688
 2093 Fit      -0.000217
 2094 Fit      -0.001762
 2095 Fit      -0.002311
 2096 Fit      -0.001781
 2097 Fit      -0.001966
 2098 Fit      -0.001989
 2099 Fit      -0.001394
 2100 Fit      -0.000057
 2101 Fit       0.000426
 2102 Fit       0.000061
 2103 Fit      -0.001317
 2104 Fit       0.000292
 2105 Fit       0.001345
 2106 Fit       0.001656
 2107 Fit       0.001259
 2108 Fit      -0.001164
 2109 Fit       0.000510
 2110 Fit       0.001725
 2111 Fit       0.002313
 2112 Fit       0.002219
 2113 Fit      -0.001015
 2114 Fit       0.000761
 2115 Fit       0.001737
 2116 Fit       0.000975
 2117 Fit       0.000493
 2118 Fit       0.000818
 2119 Fit       0.001826
 2120 Fit       0.002462
 2121 Fit       0.001819
 2122 Fit      -0.000439
 2123 Fit      -0.000963
 2124 Fit      -0.001156
 2125 Fit      -0.000947
 2126 Fit      -0.000210
 2127 Fit       0.000923
 2128 Fit       0.002030
 2129 Fit       0.001064
 2130 Fit       0.000233
 2131 Fit      -0.001076
 2132 Fit      -0.000796
 2133 Fit      -0.001915
 2134 Fit      -0.000174
 2135 Fit      -0.000158
 2136 Fit       0.000329
 2137 Fit      -0.000931
 2138 Fit       0.001407
 2139 Fit       0.001120
 2140 Fit       0.000882
 2141 Fit      -0.000668
 2142 Fit       0.002648
 2143 Fit       0.001900
 2144 Fit       0.000964
 2145 Fit       0.000605
 2146 Fit       0.000564
 2147 Fit      -0.000044
 2148 Fit      -0.000127
 2149 Fit      -0.000472
 2150 Fit      -0.001437
 2151 Fit      -0.000824
 2152 Fit      -0.001326
 2153 Fit      -0.001255
 2154 Fit      -0.000246
 2155 Fit      -0.000867
 2156 Fit      -0.000037
 2157 Fit       0.000665
 2158 Fit       0.000357
 2159 Fit       0.002310
 2160 Fit       0.000330
 2161 Fit       0.001525
 2162 Fit       0.002047
 2163 Fit       0.002509
 2164 Fit       0.002430
 2165 Fit       0.002159
 2166 Fit       0.001805
 2167 Fit       0.001931
 2168 Fit       0.002057
 2169 Fit       0.000731
 2170 Fit       0.000590
 2171 Fit       0.000803
 2172 Fit       0.000943
 2173 Fit       0.000899
 2174 Fit       0.000744
 2175 Fit      -0.000511
 2176 Fit      -0.000631
 2177 Fit      -0.000828
 2178 Fit      -0.001182
 2179 Fit      -0.000675
 2180 Fit       0.000039
 2181 Fit       0.000321
 2182 Fit       0.002307
 2183 Fit      -0.000359
 2184 Fit       0.000546
 2185 Fit       0.001335
 2186 Fit       0.001792
 2187 Fit       0.002769
 2188 Fit       0.000701
 2189 Fit       0.001608
 2190 Fit       0.002293
 2191 Fit       0.000803
 2192 Fit       0.001689
 -----------------------------------------------------------------
 Leave Link  602 at Tue Mar 21 12:58:07 2017, MaxMem=    33554432 cpu:         3.3
 (Enter /home/michal/g09/l9999.exe)

 Test job not archived.
 1\1\GINC-LINUX\SP\RHF\6-31G(d)\C27H46O1\MICHAL\21-Mar-2017\0\\#P HF/6-
 31G* SCF(Conver=6) NoSymm Test Pop=mk IOp(6/33=2) GFInput GFPrint\\MEP
  - Input generated by R.E.D.-III.x MOLECULE\\0,1\O,0,-3.72885492,-3.61
 357408,-4.12561652\H,0,-3.8792427,-4.45477655,-3.67426802\C,0,1.600422
 66,2.06309454,0.\C,0,1.32679026,0.60788187,0.47331988\H,0,2.11724024,0
 .,0.\C,0,0.,0.,0.\H,0,-0.8339526,0.57885466,0.42178177\C,0,-0.07811024
 ,0.04886299,-1.54855761\H,0,0.70075424,-0.64605611,-1.90405758\C,0,2.9
 8428948,2.31495122,0.69332801\H,0,3.71459948,1.72239088,0.12258784\C,0
 ,1.59949942,2.02733026,-1.54202145\H,0,2.44555031,1.41130479,-1.879802
 18\H,0,1.74951561,3.0234968,-1.97068134\C,0,-1.43369243,-0.51277955,-2
 .10487069\C,0,1.64066493,0.62884144,1.97748087\H,0,1.90983797,-0.36016
 998,2.36155693\H,0,0.76746415,0.96308511,2.55150369\C,0,0.28472764,1.4
 4640871,-2.10267783\H,0,-0.52573255,2.15202112,-1.89127388\H,0,0.36501
 428,1.40032384,-3.1946493\C,0,2.80995683,1.64576636,2.09711275\H,0,2.5
 8664452,2.40521538,2.85571283\H,0,3.73591082,1.15716297,2.41619512\C,0
 ,-0.14324439,-1.45189781,0.48430953\H,0,-0.35868128,-1.47089467,1.5609
 5607\H,0,0.82182557,-1.97357458,0.37162348\C,0,3.53786047,3.75827413,0
 .79109416\H,0,2.81498122,4.34633375,1.37535796\C,0,0.54630894,3.065725
 96,0.52254768\H,0,0.73942309,4.06903459,0.12805037\H,0,-0.46937189,2.7
 9332078,0.22556013\H,0,0.5544285,3.13841052,1.61438255\C,0,-1.80236581
 ,-1.81710827,-1.38372309\C,0,-1.25495413,-0.83119226,-3.62217654\H,0,-
 0.3202563,-1.39578935,-3.74584755\H,0,-1.12879261,0.10398909,-4.178514
 \C,0,-1.20606322,-2.21784722,-0.25121119\H,0,-1.50617393,-3.17067958,0
 .18640146\C,0,-2.59290329,0.50321008,-1.92199654\H,0,-2.46234292,1.379
 22323,-2.56509011\H,0,-3.55886057,0.05987093,-2.17618233\H,0,-2.658329
 91,0.84552853,-0.88457971\C,0,-2.8940958,-2.65870858,-2.0181066\H,0,-2
 .99878963,-3.60028332,-1.46370894\H,0,-3.86532312,-2.1473673,-1.958782
 55\C,0,-2.39910353,-1.63748638,-4.25375062\H,0,-3.33632086,-1.06710121
 ,-4.24901686\H,0,-2.16942375,-1.85469024,-5.30310098\C,0,4.86709324,3.
 82472375,1.592194\H,0,5.14062393,4.88558158,1.68939413\H,0,4.68697351,
 3.46986554,2.61320439\C,0,-2.6259546,-2.94318888,-3.5030406\H,0,-1.721
 12982,-3.56729934,-3.58989276\C,0,3.69543441,4.45702276,-0.5726136\H,0
 ,4.2628106,3.84707827,-1.28421939\H,0,4.22544635,5.40974476,-0.4554758
 7\H,0,2.72849094,4.67879934,-1.03100122\C,0,6.06538395,3.06964998,0.99
 184632\H,0,5.86320171,1.9914554,0.97748947\H,0,6.19262916,3.36342383,-
 0.05755833\C,0,7.39987439,3.33815086,1.71372135\H,0,7.60645814,4.41735
 093,1.66940301\H,0,8.20918715,2.85200981,1.14875141\C,0,7.5033022,2.88
 319413,3.18520038\H,0,6.69549914,3.36537145,3.75401034\C,0,8.83569282,
 3.35158311,3.79214194\H,0,8.94352408,4.44039999,3.72713073\H,0,8.91363
 52,3.06915108,4.84828149\H,0,9.68591313,2.90082618,3.26403831\C,0,7.34
 749715,1.36204402,3.34052845\H,0,6.3754194,1.00740299,2.9830504\H,0,7.
 44029089,1.0639766,4.39110274\H,0,8.12472027,0.8317425,2.77480183\\Ver
 sion=EM64L-G09RevD.01\HF=-1124.0783056\RMSD=4.587e-07\Dipole=0.3624065
 ,-0.0809109,0.5267195\Quadrupole=-3.1187547,7.6879795,-4.5692249,-0.77
 15906,-6.6898448,-3.0038971\PG=C01 [X(C27H46O1)]\\@


 Some scientists claim that hydrogen, because it is so
 plentiful, is the basic building block of the universe. 
 I dispute that. I say that stupidity is far more
 abundant than hydrogen, and THAT is the basic building 
 block of the universe.
                   --Frank Zappa
 Job cpu time:       0 days  0 hours 10 minutes 37.2 seconds.
 File lengths (MBytes):  RWF=    142 Int=      0 D2E=      0 Chk=     10 Scr=      1
 Normal termination of Gaussian 09 at Tue Mar 21 12:58:07 2017.
