 Entering Gaussian System, Link 0=/home/michal/g09/g09
 Input=JOB2-gau_m1-7-4.com
 Output=JOB2-gau_m1-7-4.log
 Initial command:
 /home/michal/g09/l1.exe "/home/michal/gauss_scratch/Gau-15266.inp" -scrdir="/home/michal/gauss_scratch/"
 Entering Link 1 = /home/michal/g09/l1.exe PID=     15267.
  
 Copyright (c) 1988,1990,1992,1993,1995,1998,2003,2009,2013,
            Gaussian, Inc.  All Rights Reserved.
  
 This is part of the Gaussian(R) 09 program.  It is based on
 the Gaussian(R) 03 system (copyright 2003, Gaussian, Inc.),
 the Gaussian(R) 98 system (copyright 1998, Gaussian, Inc.),
 the Gaussian(R) 94 system (copyright 1995, Gaussian, Inc.),
 the Gaussian 92(TM) system (copyright 1992, Gaussian, Inc.),
 the Gaussian 90(TM) system (copyright 1990, Gaussian, Inc.),
 the Gaussian 88(TM) system (copyright 1988, Gaussian, Inc.),
 the Gaussian 86(TM) system (copyright 1986, Carnegie Mellon
 University), and the Gaussian 82(TM) system (copyright 1983,
 Carnegie Mellon University). Gaussian is a federally registered
 trademark of Gaussian, Inc.
  
 This software contains proprietary and confidential information,
 including trade secrets, belonging to Gaussian, Inc.
  
 This software is provided under written license and may be
 used, copied, transmitted, or stored only in accord with that
 written license.
  
 The following legend is applicable only to US Government
 contracts under FAR:
  
                    RESTRICTED RIGHTS LEGEND
  
 Use, reproduction and disclosure by the US Government is
 subject to restrictions as set forth in subparagraphs (a)
 and (c) of the Commercial Computer Software - Restricted
 Rights clause in FAR 52.227-19.
  
 Gaussian, Inc.
 340 Quinnipiac St., Bldg. 40, Wallingford CT 06492
  
  
 ---------------------------------------------------------------
 Warning -- This program may not be used in any manner that
 competes with the business of Gaussian, Inc. or will provide
 assistance to any competitor of Gaussian, Inc.  The licensee
 of this program is prohibited from giving any competitor of
 Gaussian, Inc. access to this program.  By using this program,
 the user acknowledges that Gaussian, Inc. is engaged in the
 business of creating and licensing software in the field of
 computational chemistry and represents and warrants to the
 licensee that it is not a competitor of Gaussian, Inc. and that
 it will not use this program in any manner prohibited above.
 ---------------------------------------------------------------
  

 Cite this work as:
 Gaussian 09, Revision D.01,
 M. J. Frisch, G. W. Trucks, H. B. Schlegel, G. E. Scuseria, 
 M. A. Robb, J. R. Cheeseman, G. Scalmani, V. Barone, B. Mennucci, 
 G. A. Petersson, H. Nakatsuji, M. Caricato, X. Li, H. P. Hratchian, 
 A. F. Izmaylov, J. Bloino, G. Zheng, J. L. Sonnenberg, M. Hada, 
 M. Ehara, K. Toyota, R. Fukuda, J. Hasegawa, M. Ishida, T. Nakajima, 
 Y. Honda, O. Kitao, H. Nakai, T. Vreven, J. A. Montgomery, Jr., 
 J. E. Peralta, F. Ogliaro, M. Bearpark, J. J. Heyd, E. Brothers, 
 K. N. Kudin, V. N. Staroverov, T. Keith, R. Kobayashi, J. Normand, 
 K. Raghavachari, A. Rendell, J. C. Burant, S. S. Iyengar, J. Tomasi, 
 M. Cossi, N. Rega, J. M. Millam, M. Klene, J. E. Knox, J. B. Cross, 
 V. Bakken, C. Adamo, J. Jaramillo, R. Gomperts, R. E. Stratmann, 
 O. Yazyev, A. J. Austin, R. Cammi, C. Pomelli, J. W. Ochterski, 
 R. L. Martin, K. Morokuma, V. G. Zakrzewski, G. A. Voth, 
 P. Salvador, J. J. Dannenberg, S. Dapprich, A. D. Daniels, 
 O. Farkas, J. B. Foresman, J. V. Ortiz, J. Cioslowski, 
 and D. J. Fox, Gaussian, Inc., Wallingford CT, 2013.
 
 ******************************************
 Gaussian 09:  EM64L-G09RevD.01 24-Apr-2013
                21-Mar-2017 
 ******************************************
 %Mem=256MB
 %NProc=12
 Will use up to   12 processors via shared memory.
 ----------------------------------------------------------------------
 #P HF/6-31G* SCF(Conver=6) NoSymm Test Pop=mk IOp(6/33=2) GFInput GFPr
 int
 ----------------------------------------------------------------------
 1/38=1/1;
 2/12=2,15=1,17=6,18=5,40=1/2;
 3/5=1,6=6,7=1,11=9,16=1,24=110,25=1,30=1/1,2,3;
 4//1;
 5/5=2,6=6,38=5/2;
 6/7=2,8=2,9=2,10=2,15=8,20=1,28=1,33=2/1,2;
 99/5=1,9=1/99;
 Leave Link    1 at Tue Mar 21 12:11:22 2017, MaxMem=    33554432 cpu:         0.6
 (Enter /home/michal/g09/l101.exe)
 ----------------------------------------------
 MEP - Input generated by R.E.D.-III.x MOLECULE
 ----------------------------------------------
 Symbolic Z-matrix:
 Charge =  0 Multiplicity = 1
 O                     4.20529   6.55518   4.12443 
 H                     4.98714   6.90272   3.67513 
 C                     0.        0.        0. 
 C                     1.34555   0.61931  -0.47202 
 H                     2.12801   0.        0. 
 C                     1.61279   2.05456   0. 
 H                     0.85013   2.72251  -0.42486 
 C                     1.54255   2.12236   1.54807 
 H                     2.4045    1.53615   1.9077 
 C                     0.0905   -1.40681  -0.68799 
 H                     0.8258   -1.98472  -0.10537 
 C                     0.03083   0.01514   1.54239 
 H                     0.83384  -0.65431   1.8836 
 H                    -0.89895  -0.37171   1.97134 
 C                     1.75706   3.57508   2.10128 
 C                     1.39781   0.31059  -1.97553 
 H                     2.41941   0.31051  -2.36851 
 H                     0.8405    1.06458  -2.54516 
 C                     0.27295   1.43331   2.09957 
 H                    -0.60745   2.04766   1.88281 
 H                     0.33285   1.36978   3.19195 
 C                     0.72624  -1.08573  -2.08569 
 H                    -0.04359  -1.09135  -2.86638 
 H                     1.4567   -1.84907  -2.36946 
 C                     2.98784   2.54469  -0.48217 
 H                     2.95626   2.75741  -1.55906 
 H                     3.72741   1.73471  -0.36736 
 C                    -1.18016  -2.28752  -0.80686 
 H                    -1.89288  -1.74698  -1.44721 
 C                    -1.22561   0.77927  -0.53094 
 H                    -2.15486   0.35596  -0.13588 
 H                    -1.20416   1.83307  -0.2426 
 H                    -1.29194   0.74517  -1.62262 
 C                     2.93641   4.24608   1.38307 
 C                     2.10213   3.48295   3.6205 
 H                     2.87413   2.71164   3.75023 
 H                     1.22212   3.1376    4.17392 
 C                     3.47247   3.76206   0.25296 
 H                     4.32613   4.28237  -0.18294 
 C                     0.49155   4.45348   1.91017 
 H                    -0.33013   4.11604   2.54973 
 H                     0.68662   5.49854   2.16328 
 H                     0.14881   4.43208   0.87102 
 C                     3.48785   5.50983   2.01665 
 H                     4.37861   5.83695   1.4649 
 H                     2.7578    6.32912   1.95257 
 C                     2.60684   4.78934   4.25042 
 H                     1.82772   5.56176   4.24028 
 H                     2.86847   4.62164   5.30137 
 C                    -0.85372  -3.64022  -1.51216 
 H                     0.13283  -3.58417  -1.98339 
 H                    -0.76649  -4.42867  -0.75236 
 C                     3.82264   5.32175   3.50338 
 H                     4.64586   4.59402   3.59548 
 C                    -1.86769  -2.54912   0.54593 
 H                    -1.15923  -2.97463   1.26752 
 H                    -2.6889   -3.26322   0.43459 
 H                    -2.28608  -1.6403    0.98549 
 C                    -1.84862  -4.07291  -2.6094 
 H                    -1.908    -3.26525  -3.35217 
 H                    -1.42342  -4.93215  -3.14391 
 C                    -3.28225  -4.41495  -2.16225 
 H                    -3.89608  -4.56596  -3.0627 
 H                    -3.71908  -3.54689  -1.65036 
 C                    -3.44755  -5.65792  -1.2612 
 H                    -2.81024  -5.53173  -0.37436 
 C                    -3.01581  -6.95469  -1.96518 
 H                    -1.9611   -6.93595  -2.2575 
 H                    -3.15974  -7.8213   -1.30993 
 H                    -3.61132  -7.12163  -2.87227 
 C                    -4.90105  -5.77059  -0.77354 
 H                    -5.21111  -4.87229  -0.22722 
 H                    -5.0325   -6.63059  -0.10698 
 H                    -5.58806  -5.89814  -1.62004 
 
 NAtoms=     74 NQM=       74 NQMF=       0 NMMI=      0 NMMIF=      0
                NMic=       0 NMicF=      0.
                    Isotopes and Nuclear Properties:
 (Nuclear quadrupole moments (NQMom) in fm**2, nuclear magnetic moments (NMagM)
  in nuclear magnetons)

  Atom         1           2           3           4           5           6           7           8           9          10
 IAtWgt=          16           1          12          12           1          12           1          12           1          12
 AtmWgt=  15.9949146   1.0078250  12.0000000  12.0000000   1.0078250  12.0000000   1.0078250  12.0000000   1.0078250  12.0000000
 NucSpn=           0           1           0           0           1           0           1           0           1           0
 AtZEff=   0.0000000   0.0000000   0.0000000   0.0000000   0.0000000   0.0000000   0.0000000   0.0000000   0.0000000   0.0000000
 NQMom=    0.0000000   0.0000000   0.0000000   0.0000000   0.0000000   0.0000000   0.0000000   0.0000000   0.0000000   0.0000000
 NMagM=    0.0000000   2.7928460   0.0000000   0.0000000   2.7928460   0.0000000   2.7928460   0.0000000   2.7928460   0.0000000
 AtZNuc=   8.0000000   1.0000000   6.0000000   6.0000000   1.0000000   6.0000000   1.0000000   6.0000000   1.0000000   6.0000000

  Atom        11          12          13          14          15          16          17          18          19          20
 IAtWgt=           1          12           1           1          12          12           1           1          12           1
 AtmWgt=   1.0078250  12.0000000   1.0078250   1.0078250  12.0000000  12.0000000   1.0078250   1.0078250  12.0000000   1.0078250
 NucSpn=           1           0           1           1           0           0           1           1           0           1
 AtZEff=   0.0000000   0.0000000   0.0000000   0.0000000   0.0000000   0.0000000   0.0000000   0.0000000   0.0000000   0.0000000
 NQMom=    0.0000000   0.0000000   0.0000000   0.0000000   0.0000000   0.0000000   0.0000000   0.0000000   0.0000000   0.0000000
 NMagM=    2.7928460   0.0000000   2.7928460   2.7928460   0.0000000   0.0000000   2.7928460   2.7928460   0.0000000   2.7928460
 AtZNuc=   1.0000000   6.0000000   1.0000000   1.0000000   6.0000000   6.0000000   1.0000000   1.0000000   6.0000000   1.0000000

  Atom        21          22          23          24          25          26          27          28          29          30
 IAtWgt=           1          12           1           1          12           1           1          12           1          12
 AtmWgt=   1.0078250  12.0000000   1.0078250   1.0078250  12.0000000   1.0078250   1.0078250  12.0000000   1.0078250  12.0000000
 NucSpn=           1           0           1           1           0           1           1           0           1           0
 AtZEff=   0.0000000   0.0000000   0.0000000   0.0000000   0.0000000   0.0000000   0.0000000   0.0000000   0.0000000   0.0000000
 NQMom=    0.0000000   0.0000000   0.0000000   0.0000000   0.0000000   0.0000000   0.0000000   0.0000000   0.0000000   0.0000000
 NMagM=    2.7928460   0.0000000   2.7928460   2.7928460   0.0000000   2.7928460   2.7928460   0.0000000   2.7928460   0.0000000
 AtZNuc=   1.0000000   6.0000000   1.0000000   1.0000000   6.0000000   1.0000000   1.0000000   6.0000000   1.0000000   6.0000000

  Atom        31          32          33          34          35          36          37          38          39          40
 IAtWgt=           1           1           1          12          12           1           1          12           1          12
 AtmWgt=   1.0078250   1.0078250   1.0078250  12.0000000  12.0000000   1.0078250   1.0078250  12.0000000   1.0078250  12.0000000
 NucSpn=           1           1           1           0           0           1           1           0           1           0
 AtZEff=   0.0000000   0.0000000   0.0000000   0.0000000   0.0000000   0.0000000   0.0000000   0.0000000   0.0000000   0.0000000
 NQMom=    0.0000000   0.0000000   0.0000000   0.0000000   0.0000000   0.0000000   0.0000000   0.0000000   0.0000000   0.0000000
 NMagM=    2.7928460   2.7928460   2.7928460   0.0000000   0.0000000   2.7928460   2.7928460   0.0000000   2.7928460   0.0000000
 AtZNuc=   1.0000000   1.0000000   1.0000000   6.0000000   6.0000000   1.0000000   1.0000000   6.0000000   1.0000000   6.0000000

  Atom        41          42          43          44          45          46          47          48          49          50
 IAtWgt=           1           1           1          12           1           1          12           1           1          12
 AtmWgt=   1.0078250   1.0078250   1.0078250  12.0000000   1.0078250   1.0078250  12.0000000   1.0078250   1.0078250  12.0000000
 NucSpn=           1           1           1           0           1           1           0           1           1           0
 AtZEff=   0.0000000   0.0000000   0.0000000   0.0000000   0.0000000   0.0000000   0.0000000   0.0000000   0.0000000   0.0000000
 NQMom=    0.0000000   0.0000000   0.0000000   0.0000000   0.0000000   0.0000000   0.0000000   0.0000000   0.0000000   0.0000000
 NMagM=    2.7928460   2.7928460   2.7928460   0.0000000   2.7928460   2.7928460   0.0000000   2.7928460   2.7928460   0.0000000
 AtZNuc=   1.0000000   1.0000000   1.0000000   6.0000000   1.0000000   1.0000000   6.0000000   1.0000000   1.0000000   6.0000000

  Atom        51          52          53          54          55          56          57          58          59          60
 IAtWgt=           1           1          12           1          12           1           1           1          12           1
 AtmWgt=   1.0078250   1.0078250  12.0000000   1.0078250  12.0000000   1.0078250   1.0078250   1.0078250  12.0000000   1.0078250
 NucSpn=           1           1           0           1           0           1           1           1           0           1
 AtZEff=   0.0000000   0.0000000   0.0000000   0.0000000   0.0000000   0.0000000   0.0000000   0.0000000   0.0000000   0.0000000
 NQMom=    0.0000000   0.0000000   0.0000000   0.0000000   0.0000000   0.0000000   0.0000000   0.0000000   0.0000000   0.0000000
 NMagM=    2.7928460   2.7928460   0.0000000   2.7928460   0.0000000   2.7928460   2.7928460   2.7928460   0.0000000   2.7928460
 AtZNuc=   1.0000000   1.0000000   6.0000000   1.0000000   6.0000000   1.0000000   1.0000000   1.0000000   6.0000000   1.0000000

  Atom        61          62          63          64          65          66          67          68          69          70
 IAtWgt=           1          12           1           1          12           1          12           1           1           1
 AtmWgt=   1.0078250  12.0000000   1.0078250   1.0078250  12.0000000   1.0078250  12.0000000   1.0078250   1.0078250   1.0078250
 NucSpn=           1           0           1           1           0           1           0           1           1           1
 AtZEff=   0.0000000   0.0000000   0.0000000   0.0000000   0.0000000   0.0000000   0.0000000   0.0000000   0.0000000   0.0000000
 NQMom=    0.0000000   0.0000000   0.0000000   0.0000000   0.0000000   0.0000000   0.0000000   0.0000000   0.0000000   0.0000000
 NMagM=    2.7928460   0.0000000   2.7928460   2.7928460   0.0000000   2.7928460   0.0000000   2.7928460   2.7928460   2.7928460
 AtZNuc=   1.0000000   6.0000000   1.0000000   1.0000000   6.0000000   1.0000000   6.0000000   1.0000000   1.0000000   1.0000000

  Atom        71          72          73          74
 IAtWgt=          12           1           1           1
 AtmWgt=  12.0000000   1.0078250   1.0078250   1.0078250
 NucSpn=           0           1           1           1
 AtZEff=   0.0000000   0.0000000   0.0000000   0.0000000
 NQMom=    0.0000000   0.0000000   0.0000000   0.0000000
 NMagM=    0.0000000   2.7928460   2.7928460   2.7928460
 AtZNuc=   6.0000000   1.0000000   1.0000000   1.0000000
 Leave Link  101 at Tue Mar 21 12:11:22 2017, MaxMem=    33554432 cpu:         1.0
 (Enter /home/michal/g09/l202.exe)
 Symmetry turned off by external request.
 Stoichiometry    C27H46O
 Framework group  C1[X(C27H46O)]
 Deg. of freedom   216
 Full point group                 C1      NOp   1
                          Input orientation:                          
 ---------------------------------------------------------------------
 Center     Atomic      Atomic             Coordinates (Angstroms)
 Number     Number       Type             X           Y           Z
 ---------------------------------------------------------------------
      1          8           0        4.205290    6.555176    4.124428
      2          1           0        4.987140    6.902719    3.675131
      3          6           0        0.000000    0.000000    0.000000
      4          6           0        1.345555    0.619310   -0.472021
      5          1           0        2.128011    0.000000    0.000000
      6          6           0        1.612790    2.054559    0.000000
      7          1           0        0.850126    2.722514   -0.424860
      8          6           0        1.542554    2.122362    1.548068
      9          1           0        2.404502    1.536152    1.907702
     10          6           0        0.090498   -1.406810   -0.687989
     11          1           0        0.825804   -1.984724   -0.105366
     12          6           0        0.030828    0.015145    1.542389
     13          1           0        0.833839   -0.654311    1.883600
     14          1           0       -0.898952   -0.371708    1.971336
     15          6           0        1.757064    3.575078    2.101277
     16          6           0        1.397811    0.310588   -1.975527
     17          1           0        2.419409    0.310513   -2.368514
     18          1           0        0.840502    1.064579   -2.545162
     19          6           0        0.272949    1.433309    2.099566
     20          1           0       -0.607448    2.047663    1.882807
     21          1           0        0.332849    1.369784    3.191952
     22          6           0        0.726237   -1.085726   -2.085691
     23          1           0       -0.043586   -1.091345   -2.866383
     24          1           0        1.456704   -1.849069   -2.369456
     25          6           0        2.987841    2.544687   -0.482166
     26          1           0        2.956264    2.757407   -1.559055
     27          1           0        3.727407    1.734715   -0.367356
     28          6           0       -1.180164   -2.287521   -0.806864
     29          1           0       -1.892880   -1.746976   -1.447210
     30          6           0       -1.225607    0.779275   -0.530937
     31          1           0       -2.154856    0.355961   -0.135875
     32          1           0       -1.204159    1.833070   -0.242598
     33          1           0       -1.291942    0.745166   -1.622624
     34          6           0        2.936408    4.246079    1.383070
     35          6           0        2.102133    3.482952    3.620500
     36          1           0        2.874130    2.711644    3.750227
     37          1           0        1.222122    3.137595    4.173921
     38          6           0        3.472467    3.762063    0.252959
     39          1           0        4.326130    4.282367   -0.182938
     40          6           0        0.491550    4.453479    1.910168
     41          1           0       -0.330129    4.116036    2.549730
     42          1           0        0.686623    5.498542    2.163281
     43          1           0        0.148814    4.432083    0.871021
     44          6           0        3.487852    5.509834    2.016650
     45          1           0        4.378605    5.836949    1.464896
     46          1           0        2.757798    6.329123    1.952567
     47          6           0        2.606835    4.789336    4.250417
     48          1           0        1.827720    5.561760    4.240281
     49          1           0        2.868468    4.621645    5.301370
     50          6           0       -0.853715   -3.640222   -1.512157
     51          1           0        0.132833   -3.584169   -1.983392
     52          1           0       -0.766495   -4.428672   -0.752357
     53          6           0        3.822639    5.321751    3.503384
     54          1           0        4.645862    4.594022    3.595484
     55          6           0       -1.867691   -2.549115    0.545934
     56          1           0       -1.159234   -2.974634    1.267521
     57          1           0       -2.688901   -3.263219    0.434593
     58          1           0       -2.286084   -1.640299    0.985486
     59          6           0       -1.848619   -4.072911   -2.609396
     60          1           0       -1.907998   -3.265246   -3.352168
     61          1           0       -1.423418   -4.932147   -3.143911
     62          6           0       -3.282252   -4.414946   -2.162252
     63          1           0       -3.896077   -4.565957   -3.062705
     64          1           0       -3.719084   -3.546895   -1.650364
     65          6           0       -3.447551   -5.657922   -1.261202
     66          1           0       -2.810242   -5.531735   -0.374359
     67          6           0       -3.015813   -6.954689   -1.965182
     68          1           0       -1.961103   -6.935950   -2.257500
     69          1           0       -3.159739   -7.821301   -1.309933
     70          1           0       -3.611317   -7.121629   -2.872269
     71          6           0       -4.901046   -5.770590   -0.773542
     72          1           0       -5.211106   -4.872289   -0.227223
     73          1           0       -5.032502   -6.630585   -0.106978
     74          1           0       -5.588059   -5.898141   -1.620041
 ---------------------------------------------------------------------
 Rotational constants (GHZ):      0.5608491      0.0571627      0.0541633
 Leave Link  202 at Tue Mar 21 12:11:23 2017, MaxMem=    33554432 cpu:         0.6
 (Enter /home/michal/g09/l301.exe)
 Standard basis: 6-31G(d) (6D, 7F)
 Ernie: Thresh=  0.10000D-02 Tol=  0.10000D-05 Strict=F.
 AO basis set in the form of general basis input (Overlap normalization):
      1 0
 S   6 1.00       0.000000000000
      0.5484671660D+04  0.1831074430D-02
      0.8252349460D+03  0.1395017220D-01
      0.1880469580D+03  0.6844507810D-01
      0.5296450000D+02  0.2327143360D+00
      0.1689757040D+02  0.4701928980D+00
      0.5799635340D+01  0.3585208530D+00
 SP   3 1.00       0.000000000000
      0.1553961625D+02 -0.1107775495D+00  0.7087426823D-01
      0.3599933586D+01 -0.1480262627D+00  0.3397528391D+00
      0.1013761750D+01  0.1130767015D+01  0.7271585773D+00
 SP   1 1.00       0.000000000000
      0.2700058226D+00  0.1000000000D+01  0.1000000000D+01
 D   1 1.00       0.000000000000
      0.8000000000D+00  0.1000000000D+01
 ****
      2 0
 S   3 1.00       0.000000000000
      0.1873113696D+02  0.3349460434D-01
      0.2825394365D+01  0.2347269535D+00
      0.6401216923D+00  0.8137573261D+00
 S   1 1.00       0.000000000000
      0.1612777588D+00  0.1000000000D+01
 ****
      3 0
 S   6 1.00       0.000000000000
      0.3047524880D+04  0.1834737132D-02
      0.4573695180D+03  0.1403732281D-01
      0.1039486850D+03  0.6884262226D-01
      0.2921015530D+02  0.2321844432D+00
      0.9286662960D+01  0.4679413484D+00
      0.3163926960D+01  0.3623119853D+00
 SP   3 1.00       0.000000000000
      0.7868272350D+01 -0.1193324198D+00  0.6899906659D-01
      0.1881288540D+01 -0.1608541517D+00  0.3164239610D+00
      0.5442492580D+00  0.1143456438D+01  0.7443082909D+00
 SP   1 1.00       0.000000000000
      0.1687144782D+00  0.1000000000D+01  0.1000000000D+01
 D   1 1.00       0.000000000000
      0.8000000000D+00  0.1000000000D+01
 ****
      4 0
 S   6 1.00       0.000000000000
      0.3047524880D+04  0.1834737132D-02
      0.4573695180D+03  0.1403732281D-01
      0.1039486850D+03  0.6884262226D-01
      0.2921015530D+02  0.2321844432D+00
      0.9286662960D+01  0.4679413484D+00
      0.3163926960D+01  0.3623119853D+00
 SP   3 1.00       0.000000000000
      0.7868272350D+01 -0.1193324198D+00  0.6899906659D-01
      0.1881288540D+01 -0.1608541517D+00  0.3164239610D+00
      0.5442492580D+00  0.1143456438D+01  0.7443082909D+00
 SP   1 1.00       0.000000000000
      0.1687144782D+00  0.1000000000D+01  0.1000000000D+01
 D   1 1.00       0.000000000000
      0.8000000000D+00  0.1000000000D+01
 ****
      5 0
 S   3 1.00       0.000000000000
      0.1873113696D+02  0.3349460434D-01
      0.2825394365D+01  0.2347269535D+00
      0.6401216923D+00  0.8137573261D+00
 S   1 1.00       0.000000000000
      0.1612777588D+00  0.1000000000D+01
 ****
      6 0
 S   6 1.00       0.000000000000
      0.3047524880D+04  0.1834737132D-02
      0.4573695180D+03  0.1403732281D-01
      0.1039486850D+03  0.6884262226D-01
      0.2921015530D+02  0.2321844432D+00
      0.9286662960D+01  0.4679413484D+00
      0.3163926960D+01  0.3623119853D+00
 SP   3 1.00       0.000000000000
      0.7868272350D+01 -0.1193324198D+00  0.6899906659D-01
      0.1881288540D+01 -0.1608541517D+00  0.3164239610D+00
      0.5442492580D+00  0.1143456438D+01  0.7443082909D+00
 SP   1 1.00       0.000000000000
      0.1687144782D+00  0.1000000000D+01  0.1000000000D+01
 D   1 1.00       0.000000000000
      0.8000000000D+00  0.1000000000D+01
 ****
      7 0
 S   3 1.00       0.000000000000
      0.1873113696D+02  0.3349460434D-01
      0.2825394365D+01  0.2347269535D+00
      0.6401216923D+00  0.8137573261D+00
 S   1 1.00       0.000000000000
      0.1612777588D+00  0.1000000000D+01
 ****
      8 0
 S   6 1.00       0.000000000000
      0.3047524880D+04  0.1834737132D-02
      0.4573695180D+03  0.1403732281D-01
      0.1039486850D+03  0.6884262226D-01
      0.2921015530D+02  0.2321844432D+00
      0.9286662960D+01  0.4679413484D+00
      0.3163926960D+01  0.3623119853D+00
 SP   3 1.00       0.000000000000
      0.7868272350D+01 -0.1193324198D+00  0.6899906659D-01
      0.1881288540D+01 -0.1608541517D+00  0.3164239610D+00
      0.5442492580D+00  0.1143456438D+01  0.7443082909D+00
 SP   1 1.00       0.000000000000
      0.1687144782D+00  0.1000000000D+01  0.1000000000D+01
 D   1 1.00       0.000000000000
      0.8000000000D+00  0.1000000000D+01
 ****
      9 0
 S   3 1.00       0.000000000000
      0.1873113696D+02  0.3349460434D-01
      0.2825394365D+01  0.2347269535D+00
      0.6401216923D+00  0.8137573261D+00
 S   1 1.00       0.000000000000
      0.1612777588D+00  0.1000000000D+01
 ****
     10 0
 S   6 1.00       0.000000000000
      0.3047524880D+04  0.1834737132D-02
      0.4573695180D+03  0.1403732281D-01
      0.1039486850D+03  0.6884262226D-01
      0.2921015530D+02  0.2321844432D+00
      0.9286662960D+01  0.4679413484D+00
      0.3163926960D+01  0.3623119853D+00
 SP   3 1.00       0.000000000000
      0.7868272350D+01 -0.1193324198D+00  0.6899906659D-01
      0.1881288540D+01 -0.1608541517D+00  0.3164239610D+00
      0.5442492580D+00  0.1143456438D+01  0.7443082909D+00
 SP   1 1.00       0.000000000000
      0.1687144782D+00  0.1000000000D+01  0.1000000000D+01
 D   1 1.00       0.000000000000
      0.8000000000D+00  0.1000000000D+01
 ****
     11 0
 S   3 1.00       0.000000000000
      0.1873113696D+02  0.3349460434D-01
      0.2825394365D+01  0.2347269535D+00
      0.6401216923D+00  0.8137573261D+00
 S   1 1.00       0.000000000000
      0.1612777588D+00  0.1000000000D+01
 ****
     12 0
 S   6 1.00       0.000000000000
      0.3047524880D+04  0.1834737132D-02
      0.4573695180D+03  0.1403732281D-01
      0.1039486850D+03  0.6884262226D-01
      0.2921015530D+02  0.2321844432D+00
      0.9286662960D+01  0.4679413484D+00
      0.3163926960D+01  0.3623119853D+00
 SP   3 1.00       0.000000000000
      0.7868272350D+01 -0.1193324198D+00  0.6899906659D-01
      0.1881288540D+01 -0.1608541517D+00  0.3164239610D+00
      0.5442492580D+00  0.1143456438D+01  0.7443082909D+00
 SP   1 1.00       0.000000000000
      0.1687144782D+00  0.1000000000D+01  0.1000000000D+01
 D   1 1.00       0.000000000000
      0.8000000000D+00  0.1000000000D+01
 ****
     13 0
 S   3 1.00       0.000000000000
      0.1873113696D+02  0.3349460434D-01
      0.2825394365D+01  0.2347269535D+00
      0.6401216923D+00  0.8137573261D+00
 S   1 1.00       0.000000000000
      0.1612777588D+00  0.1000000000D+01
 ****
     14 0
 S   3 1.00       0.000000000000
      0.1873113696D+02  0.3349460434D-01
      0.2825394365D+01  0.2347269535D+00
      0.6401216923D+00  0.8137573261D+00
 S   1 1.00       0.000000000000
      0.1612777588D+00  0.1000000000D+01
 ****
     15 0
 S   6 1.00       0.000000000000
      0.3047524880D+04  0.1834737132D-02
      0.4573695180D+03  0.1403732281D-01
      0.1039486850D+03  0.6884262226D-01
      0.2921015530D+02  0.2321844432D+00
      0.9286662960D+01  0.4679413484D+00
      0.3163926960D+01  0.3623119853D+00
 SP   3 1.00       0.000000000000
      0.7868272350D+01 -0.1193324198D+00  0.6899906659D-01
      0.1881288540D+01 -0.1608541517D+00  0.3164239610D+00
      0.5442492580D+00  0.1143456438D+01  0.7443082909D+00
 SP   1 1.00       0.000000000000
      0.1687144782D+00  0.1000000000D+01  0.1000000000D+01
 D   1 1.00       0.000000000000
      0.8000000000D+00  0.1000000000D+01
 ****
     16 0
 S   6 1.00       0.000000000000
      0.3047524880D+04  0.1834737132D-02
      0.4573695180D+03  0.1403732281D-01
      0.1039486850D+03  0.6884262226D-01
      0.2921015530D+02  0.2321844432D+00
      0.9286662960D+01  0.4679413484D+00
      0.3163926960D+01  0.3623119853D+00
 SP   3 1.00       0.000000000000
      0.7868272350D+01 -0.1193324198D+00  0.6899906659D-01
      0.1881288540D+01 -0.1608541517D+00  0.3164239610D+00
      0.5442492580D+00  0.1143456438D+01  0.7443082909D+00
 SP   1 1.00       0.000000000000
      0.1687144782D+00  0.1000000000D+01  0.1000000000D+01
 D   1 1.00       0.000000000000
      0.8000000000D+00  0.1000000000D+01
 ****
     17 0
 S   3 1.00       0.000000000000
      0.1873113696D+02  0.3349460434D-01
      0.2825394365D+01  0.2347269535D+00
      0.6401216923D+00  0.8137573261D+00
 S   1 1.00       0.000000000000
      0.1612777588D+00  0.1000000000D+01
 ****
     18 0
 S   3 1.00       0.000000000000
      0.1873113696D+02  0.3349460434D-01
      0.2825394365D+01  0.2347269535D+00
      0.6401216923D+00  0.8137573261D+00
 S   1 1.00       0.000000000000
      0.1612777588D+00  0.1000000000D+01
 ****
     19 0
 S   6 1.00       0.000000000000
      0.3047524880D+04  0.1834737132D-02
      0.4573695180D+03  0.1403732281D-01
      0.1039486850D+03  0.6884262226D-01
      0.2921015530D+02  0.2321844432D+00
      0.9286662960D+01  0.4679413484D+00
      0.3163926960D+01  0.3623119853D+00
 SP   3 1.00       0.000000000000
      0.7868272350D+01 -0.1193324198D+00  0.6899906659D-01
      0.1881288540D+01 -0.1608541517D+00  0.3164239610D+00
      0.5442492580D+00  0.1143456438D+01  0.7443082909D+00
 SP   1 1.00       0.000000000000
      0.1687144782D+00  0.1000000000D+01  0.1000000000D+01
 D   1 1.00       0.000000000000
      0.8000000000D+00  0.1000000000D+01
 ****
     20 0
 S   3 1.00       0.000000000000
      0.1873113696D+02  0.3349460434D-01
      0.2825394365D+01  0.2347269535D+00
      0.6401216923D+00  0.8137573261D+00
 S   1 1.00       0.000000000000
      0.1612777588D+00  0.1000000000D+01
 ****
     21 0
 S   3 1.00       0.000000000000
      0.1873113696D+02  0.3349460434D-01
      0.2825394365D+01  0.2347269535D+00
      0.6401216923D+00  0.8137573261D+00
 S   1 1.00       0.000000000000
      0.1612777588D+00  0.1000000000D+01
 ****
     22 0
 S   6 1.00       0.000000000000
      0.3047524880D+04  0.1834737132D-02
      0.4573695180D+03  0.1403732281D-01
      0.1039486850D+03  0.6884262226D-01
      0.2921015530D+02  0.2321844432D+00
      0.9286662960D+01  0.4679413484D+00
      0.3163926960D+01  0.3623119853D+00
 SP   3 1.00       0.000000000000
      0.7868272350D+01 -0.1193324198D+00  0.6899906659D-01
      0.1881288540D+01 -0.1608541517D+00  0.3164239610D+00
      0.5442492580D+00  0.1143456438D+01  0.7443082909D+00
 SP   1 1.00       0.000000000000
      0.1687144782D+00  0.1000000000D+01  0.1000000000D+01
 D   1 1.00       0.000000000000
      0.8000000000D+00  0.1000000000D+01
 ****
     23 0
 S   3 1.00       0.000000000000
      0.1873113696D+02  0.3349460434D-01
      0.2825394365D+01  0.2347269535D+00
      0.6401216923D+00  0.8137573261D+00
 S   1 1.00       0.000000000000
      0.1612777588D+00  0.1000000000D+01
 ****
     24 0
 S   3 1.00       0.000000000000
      0.1873113696D+02  0.3349460434D-01
      0.2825394365D+01  0.2347269535D+00
      0.6401216923D+00  0.8137573261D+00
 S   1 1.00       0.000000000000
      0.1612777588D+00  0.1000000000D+01
 ****
     25 0
 S   6 1.00       0.000000000000
      0.3047524880D+04  0.1834737132D-02
      0.4573695180D+03  0.1403732281D-01
      0.1039486850D+03  0.6884262226D-01
      0.2921015530D+02  0.2321844432D+00
      0.9286662960D+01  0.4679413484D+00
      0.3163926960D+01  0.3623119853D+00
 SP   3 1.00       0.000000000000
      0.7868272350D+01 -0.1193324198D+00  0.6899906659D-01
      0.1881288540D+01 -0.1608541517D+00  0.3164239610D+00
      0.5442492580D+00  0.1143456438D+01  0.7443082909D+00
 SP   1 1.00       0.000000000000
      0.1687144782D+00  0.1000000000D+01  0.1000000000D+01
 D   1 1.00       0.000000000000
      0.8000000000D+00  0.1000000000D+01
 ****
     26 0
 S   3 1.00       0.000000000000
      0.1873113696D+02  0.3349460434D-01
      0.2825394365D+01  0.2347269535D+00
      0.6401216923D+00  0.8137573261D+00
 S   1 1.00       0.000000000000
      0.1612777588D+00  0.1000000000D+01
 ****
     27 0
 S   3 1.00       0.000000000000
      0.1873113696D+02  0.3349460434D-01
      0.2825394365D+01  0.2347269535D+00
      0.6401216923D+00  0.8137573261D+00
 S   1 1.00       0.000000000000
      0.1612777588D+00  0.1000000000D+01
 ****
     28 0
 S   6 1.00       0.000000000000
      0.3047524880D+04  0.1834737132D-02
      0.4573695180D+03  0.1403732281D-01
      0.1039486850D+03  0.6884262226D-01
      0.2921015530D+02  0.2321844432D+00
      0.9286662960D+01  0.4679413484D+00
      0.3163926960D+01  0.3623119853D+00
 SP   3 1.00       0.000000000000
      0.7868272350D+01 -0.1193324198D+00  0.6899906659D-01
      0.1881288540D+01 -0.1608541517D+00  0.3164239610D+00
      0.5442492580D+00  0.1143456438D+01  0.7443082909D+00
 SP   1 1.00       0.000000000000
      0.1687144782D+00  0.1000000000D+01  0.1000000000D+01
 D   1 1.00       0.000000000000
      0.8000000000D+00  0.1000000000D+01
 ****
     29 0
 S   3 1.00       0.000000000000
      0.1873113696D+02  0.3349460434D-01
      0.2825394365D+01  0.2347269535D+00
      0.6401216923D+00  0.8137573261D+00
 S   1 1.00       0.000000000000
      0.1612777588D+00  0.1000000000D+01
 ****
     30 0
 S   6 1.00       0.000000000000
      0.3047524880D+04  0.1834737132D-02
      0.4573695180D+03  0.1403732281D-01
      0.1039486850D+03  0.6884262226D-01
      0.2921015530D+02  0.2321844432D+00
      0.9286662960D+01  0.4679413484D+00
      0.3163926960D+01  0.3623119853D+00
 SP   3 1.00       0.000000000000
      0.7868272350D+01 -0.1193324198D+00  0.6899906659D-01
      0.1881288540D+01 -0.1608541517D+00  0.3164239610D+00
      0.5442492580D+00  0.1143456438D+01  0.7443082909D+00
 SP   1 1.00       0.000000000000
      0.1687144782D+00  0.1000000000D+01  0.1000000000D+01
 D   1 1.00       0.000000000000
      0.8000000000D+00  0.1000000000D+01
 ****
     31 0
 S   3 1.00       0.000000000000
      0.1873113696D+02  0.3349460434D-01
      0.2825394365D+01  0.2347269535D+00
      0.6401216923D+00  0.8137573261D+00
 S   1 1.00       0.000000000000
      0.1612777588D+00  0.1000000000D+01
 ****
     32 0
 S   3 1.00       0.000000000000
      0.1873113696D+02  0.3349460434D-01
      0.2825394365D+01  0.2347269535D+00
      0.6401216923D+00  0.8137573261D+00
 S   1 1.00       0.000000000000
      0.1612777588D+00  0.1000000000D+01
 ****
     33 0
 S   3 1.00       0.000000000000
      0.1873113696D+02  0.3349460434D-01
      0.2825394365D+01  0.2347269535D+00
      0.6401216923D+00  0.8137573261D+00
 S   1 1.00       0.000000000000
      0.1612777588D+00  0.1000000000D+01
 ****
     34 0
 S   6 1.00       0.000000000000
      0.3047524880D+04  0.1834737132D-02
      0.4573695180D+03  0.1403732281D-01
      0.1039486850D+03  0.6884262226D-01
      0.2921015530D+02  0.2321844432D+00
      0.9286662960D+01  0.4679413484D+00
      0.3163926960D+01  0.3623119853D+00
 SP   3 1.00       0.000000000000
      0.7868272350D+01 -0.1193324198D+00  0.6899906659D-01
      0.1881288540D+01 -0.1608541517D+00  0.3164239610D+00
      0.5442492580D+00  0.1143456438D+01  0.7443082909D+00
 SP   1 1.00       0.000000000000
      0.1687144782D+00  0.1000000000D+01  0.1000000000D+01
 D   1 1.00       0.000000000000
      0.8000000000D+00  0.1000000000D+01
 ****
     35 0
 S   6 1.00       0.000000000000
      0.3047524880D+04  0.1834737132D-02
      0.4573695180D+03  0.1403732281D-01
      0.1039486850D+03  0.6884262226D-01
      0.2921015530D+02  0.2321844432D+00
      0.9286662960D+01  0.4679413484D+00
      0.3163926960D+01  0.3623119853D+00
 SP   3 1.00       0.000000000000
      0.7868272350D+01 -0.1193324198D+00  0.6899906659D-01
      0.1881288540D+01 -0.1608541517D+00  0.3164239610D+00
      0.5442492580D+00  0.1143456438D+01  0.7443082909D+00
 SP   1 1.00       0.000000000000
      0.1687144782D+00  0.1000000000D+01  0.1000000000D+01
 D   1 1.00       0.000000000000
      0.8000000000D+00  0.1000000000D+01
 ****
     36 0
 S   3 1.00       0.000000000000
      0.1873113696D+02  0.3349460434D-01
      0.2825394365D+01  0.2347269535D+00
      0.6401216923D+00  0.8137573261D+00
 S   1 1.00       0.000000000000
      0.1612777588D+00  0.1000000000D+01
 ****
     37 0
 S   3 1.00       0.000000000000
      0.1873113696D+02  0.3349460434D-01
      0.2825394365D+01  0.2347269535D+00
      0.6401216923D+00  0.8137573261D+00
 S   1 1.00       0.000000000000
      0.1612777588D+00  0.1000000000D+01
 ****
     38 0
 S   6 1.00       0.000000000000
      0.3047524880D+04  0.1834737132D-02
      0.4573695180D+03  0.1403732281D-01
      0.1039486850D+03  0.6884262226D-01
      0.2921015530D+02  0.2321844432D+00
      0.9286662960D+01  0.4679413484D+00
      0.3163926960D+01  0.3623119853D+00
 SP   3 1.00       0.000000000000
      0.7868272350D+01 -0.1193324198D+00  0.6899906659D-01
      0.1881288540D+01 -0.1608541517D+00  0.3164239610D+00
      0.5442492580D+00  0.1143456438D+01  0.7443082909D+00
 SP   1 1.00       0.000000000000
      0.1687144782D+00  0.1000000000D+01  0.1000000000D+01
 D   1 1.00       0.000000000000
      0.8000000000D+00  0.1000000000D+01
 ****
     39 0
 S   3 1.00       0.000000000000
      0.1873113696D+02  0.3349460434D-01
      0.2825394365D+01  0.2347269535D+00
      0.6401216923D+00  0.8137573261D+00
 S   1 1.00       0.000000000000
      0.1612777588D+00  0.1000000000D+01
 ****
     40 0
 S   6 1.00       0.000000000000
      0.3047524880D+04  0.1834737132D-02
      0.4573695180D+03  0.1403732281D-01
      0.1039486850D+03  0.6884262226D-01
      0.2921015530D+02  0.2321844432D+00
      0.9286662960D+01  0.4679413484D+00
      0.3163926960D+01  0.3623119853D+00
 SP   3 1.00       0.000000000000
      0.7868272350D+01 -0.1193324198D+00  0.6899906659D-01
      0.1881288540D+01 -0.1608541517D+00  0.3164239610D+00
      0.5442492580D+00  0.1143456438D+01  0.7443082909D+00
 SP   1 1.00       0.000000000000
      0.1687144782D+00  0.1000000000D+01  0.1000000000D+01
 D   1 1.00       0.000000000000
      0.8000000000D+00  0.1000000000D+01
 ****
     41 0
 S   3 1.00       0.000000000000
      0.1873113696D+02  0.3349460434D-01
      0.2825394365D+01  0.2347269535D+00
      0.6401216923D+00  0.8137573261D+00
 S   1 1.00       0.000000000000
      0.1612777588D+00  0.1000000000D+01
 ****
     42 0
 S   3 1.00       0.000000000000
      0.1873113696D+02  0.3349460434D-01
      0.2825394365D+01  0.2347269535D+00
      0.6401216923D+00  0.8137573261D+00
 S   1 1.00       0.000000000000
      0.1612777588D+00  0.1000000000D+01
 ****
     43 0
 S   3 1.00       0.000000000000
      0.1873113696D+02  0.3349460434D-01
      0.2825394365D+01  0.2347269535D+00
      0.6401216923D+00  0.8137573261D+00
 S   1 1.00       0.000000000000
      0.1612777588D+00  0.1000000000D+01
 ****
     44 0
 S   6 1.00       0.000000000000
      0.3047524880D+04  0.1834737132D-02
      0.4573695180D+03  0.1403732281D-01
      0.1039486850D+03  0.6884262226D-01
      0.2921015530D+02  0.2321844432D+00
      0.9286662960D+01  0.4679413484D+00
      0.3163926960D+01  0.3623119853D+00
 SP   3 1.00       0.000000000000
      0.7868272350D+01 -0.1193324198D+00  0.6899906659D-01
      0.1881288540D+01 -0.1608541517D+00  0.3164239610D+00
      0.5442492580D+00  0.1143456438D+01  0.7443082909D+00
 SP   1 1.00       0.000000000000
      0.1687144782D+00  0.1000000000D+01  0.1000000000D+01
 D   1 1.00       0.000000000000
      0.8000000000D+00  0.1000000000D+01
 ****
     45 0
 S   3 1.00       0.000000000000
      0.1873113696D+02  0.3349460434D-01
      0.2825394365D+01  0.2347269535D+00
      0.6401216923D+00  0.8137573261D+00
 S   1 1.00       0.000000000000
      0.1612777588D+00  0.1000000000D+01
 ****
     46 0
 S   3 1.00       0.000000000000
      0.1873113696D+02  0.3349460434D-01
      0.2825394365D+01  0.2347269535D+00
      0.6401216923D+00  0.8137573261D+00
 S   1 1.00       0.000000000000
      0.1612777588D+00  0.1000000000D+01
 ****
     47 0
 S   6 1.00       0.000000000000
      0.3047524880D+04  0.1834737132D-02
      0.4573695180D+03  0.1403732281D-01
      0.1039486850D+03  0.6884262226D-01
      0.2921015530D+02  0.2321844432D+00
      0.9286662960D+01  0.4679413484D+00
      0.3163926960D+01  0.3623119853D+00
 SP   3 1.00       0.000000000000
      0.7868272350D+01 -0.1193324198D+00  0.6899906659D-01
      0.1881288540D+01 -0.1608541517D+00  0.3164239610D+00
      0.5442492580D+00  0.1143456438D+01  0.7443082909D+00
 SP   1 1.00       0.000000000000
      0.1687144782D+00  0.1000000000D+01  0.1000000000D+01
 D   1 1.00       0.000000000000
      0.8000000000D+00  0.1000000000D+01
 ****
     48 0
 S   3 1.00       0.000000000000
      0.1873113696D+02  0.3349460434D-01
      0.2825394365D+01  0.2347269535D+00
      0.6401216923D+00  0.8137573261D+00
 S   1 1.00       0.000000000000
      0.1612777588D+00  0.1000000000D+01
 ****
     49 0
 S   3 1.00       0.000000000000
      0.1873113696D+02  0.3349460434D-01
      0.2825394365D+01  0.2347269535D+00
      0.6401216923D+00  0.8137573261D+00
 S   1 1.00       0.000000000000
      0.1612777588D+00  0.1000000000D+01
 ****
     50 0
 S   6 1.00       0.000000000000
      0.3047524880D+04  0.1834737132D-02
      0.4573695180D+03  0.1403732281D-01
      0.1039486850D+03  0.6884262226D-01
      0.2921015530D+02  0.2321844432D+00
      0.9286662960D+01  0.4679413484D+00
      0.3163926960D+01  0.3623119853D+00
 SP   3 1.00       0.000000000000
      0.7868272350D+01 -0.1193324198D+00  0.6899906659D-01
      0.1881288540D+01 -0.1608541517D+00  0.3164239610D+00
      0.5442492580D+00  0.1143456438D+01  0.7443082909D+00
 SP   1 1.00       0.000000000000
      0.1687144782D+00  0.1000000000D+01  0.1000000000D+01
 D   1 1.00       0.000000000000
      0.8000000000D+00  0.1000000000D+01
 ****
     51 0
 S   3 1.00       0.000000000000
      0.1873113696D+02  0.3349460434D-01
      0.2825394365D+01  0.2347269535D+00
      0.6401216923D+00  0.8137573261D+00
 S   1 1.00       0.000000000000
      0.1612777588D+00  0.1000000000D+01
 ****
     52 0
 S   3 1.00       0.000000000000
      0.1873113696D+02  0.3349460434D-01
      0.2825394365D+01  0.2347269535D+00
      0.6401216923D+00  0.8137573261D+00
 S   1 1.00       0.000000000000
      0.1612777588D+00  0.1000000000D+01
 ****
     53 0
 S   6 1.00       0.000000000000
      0.3047524880D+04  0.1834737132D-02
      0.4573695180D+03  0.1403732281D-01
      0.1039486850D+03  0.6884262226D-01
      0.2921015530D+02  0.2321844432D+00
      0.9286662960D+01  0.4679413484D+00
      0.3163926960D+01  0.3623119853D+00
 SP   3 1.00       0.000000000000
      0.7868272350D+01 -0.1193324198D+00  0.6899906659D-01
      0.1881288540D+01 -0.1608541517D+00  0.3164239610D+00
      0.5442492580D+00  0.1143456438D+01  0.7443082909D+00
 SP   1 1.00       0.000000000000
      0.1687144782D+00  0.1000000000D+01  0.1000000000D+01
 D   1 1.00       0.000000000000
      0.8000000000D+00  0.1000000000D+01
 ****
     54 0
 S   3 1.00       0.000000000000
      0.1873113696D+02  0.3349460434D-01
      0.2825394365D+01  0.2347269535D+00
      0.6401216923D+00  0.8137573261D+00
 S   1 1.00       0.000000000000
      0.1612777588D+00  0.1000000000D+01
 ****
     55 0
 S   6 1.00       0.000000000000
      0.3047524880D+04  0.1834737132D-02
      0.4573695180D+03  0.1403732281D-01
      0.1039486850D+03  0.6884262226D-01
      0.2921015530D+02  0.2321844432D+00
      0.9286662960D+01  0.4679413484D+00
      0.3163926960D+01  0.3623119853D+00
 SP   3 1.00       0.000000000000
      0.7868272350D+01 -0.1193324198D+00  0.6899906659D-01
      0.1881288540D+01 -0.1608541517D+00  0.3164239610D+00
      0.5442492580D+00  0.1143456438D+01  0.7443082909D+00
 SP   1 1.00       0.000000000000
      0.1687144782D+00  0.1000000000D+01  0.1000000000D+01
 D   1 1.00       0.000000000000
      0.8000000000D+00  0.1000000000D+01
 ****
     56 0
 S   3 1.00       0.000000000000
      0.1873113696D+02  0.3349460434D-01
      0.2825394365D+01  0.2347269535D+00
      0.6401216923D+00  0.8137573261D+00
 S   1 1.00       0.000000000000
      0.1612777588D+00  0.1000000000D+01
 ****
     57 0
 S   3 1.00       0.000000000000
      0.1873113696D+02  0.3349460434D-01
      0.2825394365D+01  0.2347269535D+00
      0.6401216923D+00  0.8137573261D+00
 S   1 1.00       0.000000000000
      0.1612777588D+00  0.1000000000D+01
 ****
     58 0
 S   3 1.00       0.000000000000
      0.1873113696D+02  0.3349460434D-01
      0.2825394365D+01  0.2347269535D+00
      0.6401216923D+00  0.8137573261D+00
 S   1 1.00       0.000000000000
      0.1612777588D+00  0.1000000000D+01
 ****
     59 0
 S   6 1.00       0.000000000000
      0.3047524880D+04  0.1834737132D-02
      0.4573695180D+03  0.1403732281D-01
      0.1039486850D+03  0.6884262226D-01
      0.2921015530D+02  0.2321844432D+00
      0.9286662960D+01  0.4679413484D+00
      0.3163926960D+01  0.3623119853D+00
 SP   3 1.00       0.000000000000
      0.7868272350D+01 -0.1193324198D+00  0.6899906659D-01
      0.1881288540D+01 -0.1608541517D+00  0.3164239610D+00
      0.5442492580D+00  0.1143456438D+01  0.7443082909D+00
 SP   1 1.00       0.000000000000
      0.1687144782D+00  0.1000000000D+01  0.1000000000D+01
 D   1 1.00       0.000000000000
      0.8000000000D+00  0.1000000000D+01
 ****
     60 0
 S   3 1.00       0.000000000000
      0.1873113696D+02  0.3349460434D-01
      0.2825394365D+01  0.2347269535D+00
      0.6401216923D+00  0.8137573261D+00
 S   1 1.00       0.000000000000
      0.1612777588D+00  0.1000000000D+01
 ****
     61 0
 S   3 1.00       0.000000000000
      0.1873113696D+02  0.3349460434D-01
      0.2825394365D+01  0.2347269535D+00
      0.6401216923D+00  0.8137573261D+00
 S   1 1.00       0.000000000000
      0.1612777588D+00  0.1000000000D+01
 ****
     62 0
 S   6 1.00       0.000000000000
      0.3047524880D+04  0.1834737132D-02
      0.4573695180D+03  0.1403732281D-01
      0.1039486850D+03  0.6884262226D-01
      0.2921015530D+02  0.2321844432D+00
      0.9286662960D+01  0.4679413484D+00
      0.3163926960D+01  0.3623119853D+00
 SP   3 1.00       0.000000000000
      0.7868272350D+01 -0.1193324198D+00  0.6899906659D-01
      0.1881288540D+01 -0.1608541517D+00  0.3164239610D+00
      0.5442492580D+00  0.1143456438D+01  0.7443082909D+00
 SP   1 1.00       0.000000000000
      0.1687144782D+00  0.1000000000D+01  0.1000000000D+01
 D   1 1.00       0.000000000000
      0.8000000000D+00  0.1000000000D+01
 ****
     63 0
 S   3 1.00       0.000000000000
      0.1873113696D+02  0.3349460434D-01
      0.2825394365D+01  0.2347269535D+00
      0.6401216923D+00  0.8137573261D+00
 S   1 1.00       0.000000000000
      0.1612777588D+00  0.1000000000D+01
 ****
     64 0
 S   3 1.00       0.000000000000
      0.1873113696D+02  0.3349460434D-01
      0.2825394365D+01  0.2347269535D+00
      0.6401216923D+00  0.8137573261D+00
 S   1 1.00       0.000000000000
      0.1612777588D+00  0.1000000000D+01
 ****
     65 0
 S   6 1.00       0.000000000000
      0.3047524880D+04  0.1834737132D-02
      0.4573695180D+03  0.1403732281D-01
      0.1039486850D+03  0.6884262226D-01
      0.2921015530D+02  0.2321844432D+00
      0.9286662960D+01  0.4679413484D+00
      0.3163926960D+01  0.3623119853D+00
 SP   3 1.00       0.000000000000
      0.7868272350D+01 -0.1193324198D+00  0.6899906659D-01
      0.1881288540D+01 -0.1608541517D+00  0.3164239610D+00
      0.5442492580D+00  0.1143456438D+01  0.7443082909D+00
 SP   1 1.00       0.000000000000
      0.1687144782D+00  0.1000000000D+01  0.1000000000D+01
 D   1 1.00       0.000000000000
      0.8000000000D+00  0.1000000000D+01
 ****
     66 0
 S   3 1.00       0.000000000000
      0.1873113696D+02  0.3349460434D-01
      0.2825394365D+01  0.2347269535D+00
      0.6401216923D+00  0.8137573261D+00
 S   1 1.00       0.000000000000
      0.1612777588D+00  0.1000000000D+01
 ****
     67 0
 S   6 1.00       0.000000000000
      0.3047524880D+04  0.1834737132D-02
      0.4573695180D+03  0.1403732281D-01
      0.1039486850D+03  0.6884262226D-01
      0.2921015530D+02  0.2321844432D+00
      0.9286662960D+01  0.4679413484D+00
      0.3163926960D+01  0.3623119853D+00
 SP   3 1.00       0.000000000000
      0.7868272350D+01 -0.1193324198D+00  0.6899906659D-01
      0.1881288540D+01 -0.1608541517D+00  0.3164239610D+00
      0.5442492580D+00  0.1143456438D+01  0.7443082909D+00
 SP   1 1.00       0.000000000000
      0.1687144782D+00  0.1000000000D+01  0.1000000000D+01
 D   1 1.00       0.000000000000
      0.8000000000D+00  0.1000000000D+01
 ****
     68 0
 S   3 1.00       0.000000000000
      0.1873113696D+02  0.3349460434D-01
      0.2825394365D+01  0.2347269535D+00
      0.6401216923D+00  0.8137573261D+00
 S   1 1.00       0.000000000000
      0.1612777588D+00  0.1000000000D+01
 ****
     69 0
 S   3 1.00       0.000000000000
      0.1873113696D+02  0.3349460434D-01
      0.2825394365D+01  0.2347269535D+00
      0.6401216923D+00  0.8137573261D+00
 S   1 1.00       0.000000000000
      0.1612777588D+00  0.1000000000D+01
 ****
     70 0
 S   3 1.00       0.000000000000
      0.1873113696D+02  0.3349460434D-01
      0.2825394365D+01  0.2347269535D+00
      0.6401216923D+00  0.8137573261D+00
 S   1 1.00       0.000000000000
      0.1612777588D+00  0.1000000000D+01
 ****
     71 0
 S   6 1.00       0.000000000000
      0.3047524880D+04  0.1834737132D-02
      0.4573695180D+03  0.1403732281D-01
      0.1039486850D+03  0.6884262226D-01
      0.2921015530D+02  0.2321844432D+00
      0.9286662960D+01  0.4679413484D+00
      0.3163926960D+01  0.3623119853D+00
 SP   3 1.00       0.000000000000
      0.7868272350D+01 -0.1193324198D+00  0.6899906659D-01
      0.1881288540D+01 -0.1608541517D+00  0.3164239610D+00
      0.5442492580D+00  0.1143456438D+01  0.7443082909D+00
 SP   1 1.00       0.000000000000
      0.1687144782D+00  0.1000000000D+01  0.1000000000D+01
 D   1 1.00       0.000000000000
      0.8000000000D+00  0.1000000000D+01
 ****
     72 0
 S   3 1.00       0.000000000000
      0.1873113696D+02  0.3349460434D-01
      0.2825394365D+01  0.2347269535D+00
      0.6401216923D+00  0.8137573261D+00
 S   1 1.00       0.000000000000
      0.1612777588D+00  0.1000000000D+01
 ****
     73 0
 S   3 1.00       0.000000000000
      0.1873113696D+02  0.3349460434D-01
      0.2825394365D+01  0.2347269535D+00
      0.6401216923D+00  0.8137573261D+00
 S   1 1.00       0.000000000000
      0.1612777588D+00  0.1000000000D+01
 ****
     74 0
 S   3 1.00       0.000000000000
      0.1873113696D+02  0.3349460434D-01
      0.2825394365D+01  0.2347269535D+00
      0.6401216923D+00  0.8137573261D+00
 S   1 1.00       0.000000000000
      0.1612777588D+00  0.1000000000D+01
 ****

 AO basis set (Overlap normalization):
 Atom O1       Shell     1 S   6     bf    1 -     1          7.946845577883         12.387488205447          7.794039053552
      0.5484671660D+04  0.1831074430D-02
      0.8252349460D+03  0.1395017220D-01
      0.1880469580D+03  0.6844507810D-01
      0.5296450000D+02  0.2327143360D+00
      0.1689757040D+02  0.4701928980D+00
      0.5799635340D+01  0.3585208530D+00
 Atom O1       Shell     2 SP   3    bf    2 -     5          7.946845577883         12.387488205447          7.794039053552
      0.1553961625D+02 -0.1107775495D+00  0.7087426823D-01
      0.3599933586D+01 -0.1480262627D+00  0.3397528391D+00
      0.1013761750D+01  0.1130767015D+01  0.7271585773D+00
 Atom O1       Shell     3 SP   1    bf    6 -     9          7.946845577883         12.387488205447          7.794039053552
      0.2700058226D+00  0.1000000000D+01  0.1000000000D+01
 Atom O1       Shell     4 D   1     bf   10 -    15          7.946845577883         12.387488205447          7.794039053552
      0.8000000000D+00  0.1000000000D+01
 Atom H2       Shell     5 S   3     bf   16 -    16          9.424328729668         13.044248066527          6.944991413732
      0.1873113696D+02  0.3349460434D-01
      0.2825394365D+01  0.2347269535D+00
      0.6401216923D+00  0.8137573261D+00
 Atom H2       Shell     6 S   1     bf   17 -    17          9.424328729668         13.044248066527          6.944991413732
      0.1612777588D+00  0.1000000000D+01
 Atom C3       Shell     7 S   6     bf   18 -    18          0.000000000000          0.000000000000          0.000000000000
      0.3047524880D+04  0.1834737132D-02
      0.4573695180D+03  0.1403732281D-01
      0.1039486850D+03  0.6884262226D-01
      0.2921015530D+02  0.2321844432D+00
      0.9286662960D+01  0.4679413484D+00
      0.3163926960D+01  0.3623119853D+00
 Atom C3       Shell     8 SP   3    bf   19 -    22          0.000000000000          0.000000000000          0.000000000000
      0.7868272350D+01 -0.1193324198D+00  0.6899906659D-01
      0.1881288540D+01 -0.1608541517D+00  0.3164239610D+00
      0.5442492580D+00  0.1143456438D+01  0.7443082909D+00
 Atom C3       Shell     9 SP   1    bf   23 -    26          0.000000000000          0.000000000000          0.000000000000
      0.1687144782D+00  0.1000000000D+01  0.1000000000D+01
 Atom C3       Shell    10 D   1     bf   27 -    32          0.000000000000          0.000000000000          0.000000000000
      0.8000000000D+00  0.1000000000D+01
 Atom C4       Shell    11 S   6     bf   33 -    33          2.542729634153          1.170326121282         -0.891990381176
      0.3047524880D+04  0.1834737132D-02
      0.4573695180D+03  0.1403732281D-01
      0.1039486850D+03  0.6884262226D-01
      0.2921015530D+02  0.2321844432D+00
      0.9286662960D+01  0.4679413484D+00
      0.3163926960D+01  0.3623119853D+00
 Atom C4       Shell    12 SP   3    bf   34 -    37          2.542729634153          1.170326121282         -0.891990381176
      0.7868272350D+01 -0.1193324198D+00  0.6899906659D-01
      0.1881288540D+01 -0.1608541517D+00  0.3164239610D+00
      0.5442492580D+00  0.1143456438D+01  0.7443082909D+00
 Atom C4       Shell    13 SP   1    bf   38 -    41          2.542729634153          1.170326121282         -0.891990381176
      0.1687144782D+00  0.1000000000D+01  0.1000000000D+01
 Atom C4       Shell    14 D   1     bf   42 -    47          2.542729634153          1.170326121282         -0.891990381176
      0.8000000000D+00  0.1000000000D+01
 Atom H5       Shell    15 S   3     bf   48 -    48          4.021358432405          0.000000000000          0.000000000000
      0.1873113696D+02  0.3349460434D-01
      0.2825394365D+01  0.2347269535D+00
      0.6401216923D+00  0.8137573261D+00
 Atom H5       Shell    16 S   1     bf   49 -    49          4.021358432405          0.000000000000          0.000000000000
      0.1612777588D+00  0.1000000000D+01
 Atom C6       Shell    17 S   6     bf   50 -    50          3.047730824042          3.882553210246          0.000000000000
      0.3047524880D+04  0.1834737132D-02
      0.4573695180D+03  0.1403732281D-01
      0.1039486850D+03  0.6884262226D-01
      0.2921015530D+02  0.2321844432D+00
      0.9286662960D+01  0.4679413484D+00
      0.3163926960D+01  0.3623119853D+00
 Atom C6       Shell    18 SP   3    bf   51 -    54          3.047730824042          3.882553210246          0.000000000000
      0.7868272350D+01 -0.1193324198D+00  0.6899906659D-01
      0.1881288540D+01 -0.1608541517D+00  0.3164239610D+00
      0.5442492580D+00  0.1143456438D+01  0.7443082909D+00
 Atom C6       Shell    19 SP   1    bf   55 -    58          3.047730824042          3.882553210246          0.000000000000
      0.1687144782D+00  0.1000000000D+01  0.1000000000D+01
 Atom C6       Shell    20 D   1     bf   59 -    64          3.047730824042          3.882553210246          0.000000000000
      0.8000000000D+00  0.1000000000D+01
 Atom H7       Shell    21 S   3     bf   65 -    65          1.606505242856          5.144806627735         -0.802869460558
      0.1873113696D+02  0.3349460434D-01
      0.2825394365D+01  0.2347269535D+00
      0.6401216923D+00  0.8137573261D+00
 Atom H7       Shell    22 S   1     bf   66 -    66          1.606505242856          5.144806627735         -0.802869460558
      0.1612777588D+00  0.1000000000D+01
 Atom C8       Shell    23 S   6     bf   67 -    67          2.915004586290          4.010683577350          2.925425008618
      0.3047524880D+04  0.1834737132D-02
      0.4573695180D+03  0.1403732281D-01
      0.1039486850D+03  0.6884262226D-01
      0.2921015530D+02  0.2321844432D+00
      0.9286662960D+01  0.4679413484D+00
      0.3163926960D+01  0.3623119853D+00
 Atom C8       Shell    24 SP   3    bf   68 -    71          2.915004586290          4.010683577350          2.925425008618
      0.7868272350D+01 -0.1193324198D+00  0.6899906659D-01
      0.1881288540D+01 -0.1608541517D+00  0.3164239610D+00
      0.5442492580D+00  0.1143456438D+01  0.7443082909D+00
 Atom C8       Shell    25 SP   1    bf   72 -    75          2.915004586290          4.010683577350          2.925425008618
      0.1687144782D+00  0.1000000000D+01  0.1000000000D+01
 Atom C8       Shell    26 D   1     bf   76 -    81          2.915004586290          4.010683577350          2.925425008618
      0.8000000000D+00  0.1000000000D+01
 Atom H9       Shell    27 S   3     bf   82 -    82          4.543849585674          2.902907428861          3.605034001905
      0.1873113696D+02  0.3349460434D-01
      0.2825394365D+01  0.2347269535D+00
      0.6401216923D+00  0.8137573261D+00
 Atom H9       Shell    28 S   1     bf   83 -    83          4.543849585674          2.902907428861          3.605034001905
      0.1612777588D+00  0.1000000000D+01
 Atom C10      Shell    29 S   6     bf   84 -    84          0.171016454471         -2.658486074539         -1.300109885369
      0.3047524880D+04  0.1834737132D-02
      0.4573695180D+03  0.1403732281D-01
      0.1039486850D+03  0.6884262226D-01
      0.2921015530D+02  0.2321844432D+00
      0.9286662960D+01  0.4679413484D+00
      0.3163926960D+01  0.3623119853D+00
 Atom C10      Shell    30 SP   3    bf   85 -    88          0.171016454471         -2.658486074539         -1.300109885369
      0.7868272350D+01 -0.1193324198D+00  0.6899906659D-01
      0.1881288540D+01 -0.1608541517D+00  0.3164239610D+00
      0.5442492580D+00  0.1143456438D+01  0.7443082909D+00
 Atom C10      Shell    31 SP   1    bf   89 -    92          0.171016454471         -2.658486074539         -1.300109885369
      0.1687144782D+00  0.1000000000D+01  0.1000000000D+01
 Atom C10      Shell    32 D   1     bf   93 -    98          0.171016454471         -2.658486074539         -1.300109885369
      0.8000000000D+00  0.1000000000D+01
 Atom H11      Shell    33 S   3     bf   99 -    99          1.560542530167         -3.750585187311         -0.199112827026
      0.1873113696D+02  0.3349460434D-01
      0.2825394365D+01  0.2347269535D+00
      0.6401216923D+00  0.8137573261D+00
 Atom H11      Shell    34 S   1     bf  100 -   100          1.560542530167         -3.750585187311         -0.199112827026
      0.1612777588D+00  0.1000000000D+01
 Atom C12      Shell    35 S   6     bf  101 -   101          0.058256420533          0.028619240878          2.914693575163
      0.3047524880D+04  0.1834737132D-02
      0.4573695180D+03  0.1403732281D-01
      0.1039486850D+03  0.6884262226D-01
      0.2921015530D+02  0.2321844432D+00
      0.9286662960D+01  0.4679413484D+00
      0.3163926960D+01  0.3623119853D+00
 Atom C12      Shell    36 SP   3    bf  102 -   105          0.058256420533          0.028619240878          2.914693575163
      0.7868272350D+01 -0.1193324198D+00  0.6899906659D-01
      0.1881288540D+01 -0.1608541517D+00  0.3164239610D+00
      0.5442492580D+00  0.1143456438D+01  0.7443082909D+00
 Atom C12      Shell    37 SP   1    bf  106 -   109          0.058256420533          0.028619240878          2.914693575163
      0.1687144782D+00  0.1000000000D+01  0.1000000000D+01
 Atom C12      Shell    38 D   1     bf  110 -   115          0.058256420533          0.028619240878          2.914693575163
      0.8000000000D+00  0.1000000000D+01
 Atom H13      Shell    39 S   3     bf  116 -   116          1.575727273330         -1.236468557940          3.559487652575
      0.1873113696D+02  0.3349460434D-01
      0.2825394365D+01  0.2347269535D+00
      0.6401216923D+00  0.8137573261D+00
 Atom H13      Shell    40 S   1     bf  117 -   117          1.575727273330         -1.236468557940          3.559487652575
      0.1612777588D+00  0.1000000000D+01
 Atom H14      Shell    41 S   3     bf  118 -   118         -1.698773143302         -0.702425792279          3.725284513391
      0.1873113696D+02  0.3349460434D-01
      0.2825394365D+01  0.2347269535D+00
      0.6401216923D+00  0.8137573261D+00
 Atom H14      Shell    42 S   1     bf  119 -   119         -1.698773143302         -0.702425792279          3.725284513391
      0.1612777588D+00  0.1000000000D+01
 Atom C15      Shell    43 S   6     bf  120 -   120          3.320369946925          6.755917454431          3.970837700284
      0.3047524880D+04  0.1834737132D-02
      0.4573695180D+03  0.1403732281D-01
      0.1039486850D+03  0.6884262226D-01
      0.2921015530D+02  0.2321844432D+00
      0.9286662960D+01  0.4679413484D+00
      0.3163926960D+01  0.3623119853D+00
 Atom C15      Shell    44 SP   3    bf  121 -   124          3.320369946925          6.755917454431          3.970837700284
      0.7868272350D+01 -0.1193324198D+00  0.6899906659D-01
      0.1881288540D+01 -0.1608541517D+00  0.3164239610D+00
      0.5442492580D+00  0.1143456438D+01  0.7443082909D+00
 Atom C15      Shell    45 SP   1    bf  125 -   128          3.320369946925          6.755917454431          3.970837700284
      0.1687144782D+00  0.1000000000D+01  0.1000000000D+01
 Atom C15      Shell    46 D   1     bf  129 -   134          3.320369946925          6.755917454431          3.970837700284
      0.8000000000D+00  0.1000000000D+01
 Atom C16      Shell    47 S   6     bf  135 -   135          2.641479219645          0.586925825524         -3.733205565039
      0.3047524880D+04  0.1834737132D-02
      0.4573695180D+03  0.1403732281D-01
      0.1039486850D+03  0.6884262226D-01
      0.2921015530D+02  0.2321844432D+00
      0.9286662960D+01  0.4679413484D+00
      0.3163926960D+01  0.3623119853D+00
 Atom C16      Shell    48 SP   3    bf  136 -   139          2.641479219645          0.586925825524         -3.733205565039
      0.7868272350D+01 -0.1193324198D+00  0.6899906659D-01
      0.1881288540D+01 -0.1608541517D+00  0.3164239610D+00
      0.5442492580D+00  0.1143456438D+01  0.7443082909D+00
 Atom C16      Shell    49 SP   1    bf  140 -   143          2.641479219645          0.586925825524         -3.733205565039
      0.1687144782D+00  0.1000000000D+01  0.1000000000D+01
 Atom C16      Shell    50 D   1     bf  144 -   149          2.641479219645          0.586925825524         -3.733205565039
      0.8000000000D+00  0.1000000000D+01
 Atom H17      Shell    51 S   3     bf  150 -   150          4.572019978802          0.586783661427         -4.475843198748
      0.1873113696D+02  0.3349460434D-01
      0.2825394365D+01  0.2347269535D+00
      0.6401216923D+00  0.8137573261D+00
 Atom H17      Shell    52 S   1     bf  151 -   151          4.572019978802          0.586783661427         -4.475843198748
      0.1612777588D+00  0.1000000000D+01
 Atom H18      Shell    53 S   3     bf  152 -   152          1.588317705971          2.011762567849         -4.809658671396
      0.1873113696D+02  0.3349460434D-01
      0.2825394365D+01  0.2347269535D+00
      0.6401216923D+00  0.8137573261D+00
 Atom H18      Shell    54 S   1     bf  153 -   153          1.588317705971          2.011762567849         -4.809658671396
      0.1612777588D+00  0.1000000000D+01
 Atom C19      Shell    55 S   6     bf  154 -   154          0.515798820450          2.708561889540          3.967605078069
      0.3047524880D+04  0.1834737132D-02
      0.4573695180D+03  0.1403732281D-01
      0.1039486850D+03  0.6884262226D-01
      0.2921015530D+02  0.2321844432D+00
      0.9286662960D+01  0.4679413484D+00
      0.3163926960D+01  0.3623119853D+00
 Atom C19      Shell    56 SP   3    bf  155 -   158          0.515798820450          2.708561889540          3.967605078069
      0.7868272350D+01 -0.1193324198D+00  0.6899906659D-01
      0.1881288540D+01 -0.1608541517D+00  0.3164239610D+00
      0.5442492580D+00  0.1143456438D+01  0.7443082909D+00
 Atom C19      Shell    57 SP   1    bf  159 -   162          0.515798820450          2.708561889540          3.967605078069
      0.1687144782D+00  0.1000000000D+01  0.1000000000D+01
 Atom C19      Shell    58 D   1     bf  163 -   168          0.515798820450          2.708561889540          3.967605078069
      0.8000000000D+00  0.1000000000D+01
 Atom H20      Shell    59 S   3     bf  169 -   169         -1.147910700120          3.869522017881          3.557989591080
      0.1873113696D+02  0.3349460434D-01
      0.2825394365D+01  0.2347269535D+00
      0.6401216923D+00  0.8137573261D+00
 Atom H20      Shell    60 S   1     bf  170 -   170         -1.147910700120          3.869522017881          3.557989591080
      0.1612777588D+00  0.1000000000D+01
 Atom H21      Shell    61 S   3     bf  171 -   171          0.628992697714          2.588517244818          6.031915014830
      0.1873113696D+02  0.3349460434D-01
      0.2825394365D+01  0.2347269535D+00
      0.6401216923D+00  0.8137573261D+00
 Atom H21      Shell    62 S   1     bf  172 -   172          0.628992697714          2.588517244818          6.031915014830
      0.1612777588D+00  0.1000000000D+01
 Atom C22      Shell    63 S   6     bf  173 -   173          1.372389245438         -2.051724115052         -3.941385354742
      0.3047524880D+04  0.1834737132D-02
      0.4573695180D+03  0.1403732281D-01
      0.1039486850D+03  0.6884262226D-01
      0.2921015530D+02  0.2321844432D+00
      0.9286662960D+01  0.4679413484D+00
      0.3163926960D+01  0.3623119853D+00
 Atom C22      Shell    64 SP   3    bf  174 -   177          1.372389245438         -2.051724115052         -3.941385354742
      0.7868272350D+01 -0.1193324198D+00  0.6899906659D-01
      0.1881288540D+01 -0.1608541517D+00  0.3164239610D+00
      0.5442492580D+00  0.1143456438D+01  0.7443082909D+00
 Atom C22      Shell    65 SP   1    bf  178 -   181          1.372389245438         -2.051724115052         -3.941385354742
      0.1687144782D+00  0.1000000000D+01  0.1000000000D+01
 Atom C22      Shell    66 D   1     bf  182 -   187          1.372389245438         -2.051724115052         -3.941385354742
      0.8000000000D+00  0.1000000000D+01
 Atom H23      Shell    67 S   3     bf  188 -   188         -0.082365168591         -2.062343941282         -5.416679126521
      0.1873113696D+02  0.3349460434D-01
      0.2825394365D+01  0.2347269535D+00
      0.6401216923D+00  0.8137573261D+00
 Atom H23      Shell    68 S   1     bf  189 -   189         -0.082365168591         -2.062343941282         -5.416679126521
      0.1612777588D+00  0.1000000000D+01
 Atom H24      Shell    69 S   3     bf  190 -   190          2.752771805652         -3.494233519480         -4.477623604224
      0.1873113696D+02  0.3349460434D-01
      0.2825394365D+01  0.2347269535D+00
      0.6401216923D+00  0.8137573261D+00
 Atom H24      Shell    70 S   1     bf  191 -   191          2.752771805652         -3.494233519480         -4.477623604224
      0.1612777588D+00  0.1000000000D+01
 Atom C25      Shell    71 S   6     bf  192 -   192          5.646201936703          4.808760654640         -0.911160972493
      0.3047524880D+04  0.1834737132D-02
      0.4573695180D+03  0.1403732281D-01
      0.1039486850D+03  0.6884262226D-01
      0.2921015530D+02  0.2321844432D+00
      0.9286662960D+01  0.4679413484D+00
      0.3163926960D+01  0.3623119853D+00
 Atom C25      Shell    72 SP   3    bf  193 -   196          5.646201936703          4.808760654640         -0.911160972493
      0.7868272350D+01 -0.1193324198D+00  0.6899906659D-01
      0.1881288540D+01 -0.1608541517D+00  0.3164239610D+00
      0.5442492580D+00  0.1143456438D+01  0.7443082909D+00
 Atom C25      Shell    73 SP   1    bf  197 -   200          5.646201936703          4.808760654640         -0.911160972493
      0.1687144782D+00  0.1000000000D+01  0.1000000000D+01
 Atom C25      Shell    74 D   1     bf  201 -   206          5.646201936703          4.808760654640         -0.911160972493
      0.8000000000D+00  0.1000000000D+01
 Atom H26      Shell    75 S   3     bf  207 -   207          5.586529430995          5.210744312566         -2.946187372949
      0.1873113696D+02  0.3349460434D-01
      0.2825394365D+01  0.2347269535D+00
      0.6401216923D+00  0.8137573261D+00
 Atom H26      Shell    76 S   1     bf  208 -   208          5.586529430995          5.210744312566         -2.946187372949
      0.1612777588D+00  0.1000000000D+01
 Atom H27      Shell    77 S   3     bf  209 -   209          7.043778869335          3.278135890663         -0.694202460039
      0.1873113696D+02  0.3349460434D-01
      0.2825394365D+01  0.2347269535D+00
      0.6401216923D+00  0.8137573261D+00
 Atom H27      Shell    78 S   1     bf  210 -   210          7.043778869335          3.278135890663         -0.694202460039
      0.1612777588D+00  0.1000000000D+01
 Atom C28      Shell    79 S   6     bf  211 -   211         -2.230187583370         -4.322787646307         -1.524751495156
      0.3047524880D+04  0.1834737132D-02
      0.4573695180D+03  0.1403732281D-01
      0.1039486850D+03  0.6884262226D-01
      0.2921015530D+02  0.2321844432D+00
      0.9286662960D+01  0.4679413484D+00
      0.3163926960D+01  0.3623119853D+00
 Atom C28      Shell    80 SP   3    bf  212 -   215         -2.230187583370         -4.322787646307         -1.524751495156
      0.7868272350D+01 -0.1193324198D+00  0.6899906659D-01
      0.1881288540D+01 -0.1608541517D+00  0.3164239610D+00
      0.5442492580D+00  0.1143456438D+01  0.7443082909D+00
 Atom C28      Shell    81 SP   1    bf  216 -   219         -2.230187583370         -4.322787646307         -1.524751495156
      0.1687144782D+00  0.1000000000D+01  0.1000000000D+01
 Atom C28      Shell    82 D   1     bf  220 -   225         -2.230187583370         -4.322787646307         -1.524751495156
      0.8000000000D+00  0.1000000000D+01
 Atom H29      Shell    83 S   3     bf  226 -   226         -3.577025652793         -3.301306427491         -2.734831199280
      0.1873113696D+02  0.3349460434D-01
      0.2825394365D+01  0.2347269535D+00
      0.6401216923D+00  0.8137573261D+00
 Atom H29      Shell    84 S   1     bf  227 -   227         -3.577025652793         -3.301306427491         -2.734831199280
      0.1612777588D+00  0.1000000000D+01
 Atom C30      Shell    85 S   6     bf  228 -   228         -2.316060782863          1.472616124335         -1.003324635645
      0.3047524880D+04  0.1834737132D-02
      0.4573695180D+03  0.1403732281D-01
      0.1039486850D+03  0.6884262226D-01
      0.2921015530D+02  0.2321844432D+00
      0.9286662960D+01  0.4679413484D+00
      0.3163926960D+01  0.3623119853D+00
 Atom C30      Shell    86 SP   3    bf  229 -   232         -2.316060782863          1.472616124335         -1.003324635645
      0.7868272350D+01 -0.1193324198D+00  0.6899906659D-01
      0.1881288540D+01 -0.1608541517D+00  0.3164239610D+00
      0.5442492580D+00  0.1143456438D+01  0.7443082909D+00
 Atom C30      Shell    87 SP   1    bf  233 -   236         -2.316060782863          1.472616124335         -1.003324635645
      0.1687144782D+00  0.1000000000D+01  0.1000000000D+01
 Atom C30      Shell    88 D   1     bf  237 -   242         -2.316060782863          1.472616124335         -1.003324635645
      0.8000000000D+00  0.1000000000D+01
 Atom H31      Shell    89 S   3     bf  243 -   243         -4.072087280066          0.672669408700         -0.256767237505
      0.1873113696D+02  0.3349460434D-01
      0.2825394365D+01  0.2347269535D+00
      0.6401216923D+00  0.8137573261D+00
 Atom H31      Shell    90 S   1     bf  244 -   244         -4.072087280066          0.672669408700         -0.256767237505
      0.1612777588D+00  0.1000000000D+01
 Atom H32      Shell    91 S   3     bf  245 -   245         -2.275529955662          3.464000584765         -0.458443610310
      0.1873113696D+02  0.3349460434D-01
      0.2825394365D+01  0.2347269535D+00
      0.6401216923D+00  0.8137573261D+00
 Atom H32      Shell    92 S   1     bf  246 -   246         -2.275529955662          3.464000584765         -0.458443610310
      0.1612777588D+00  0.1000000000D+01
 Atom H33      Shell    93 S   3     bf  247 -   247         -2.441417334360          1.408159569052         -3.066314542010
      0.1873113696D+02  0.3349460434D-01
      0.2825394365D+01  0.2347269535D+00
      0.6401216923D+00  0.8137573261D+00
 Atom H33      Shell    94 S   1     bf  248 -   248         -2.441417334360          1.408159569052         -3.066314542010
      0.1612777588D+00  0.1000000000D+01
 Atom C34      Shell    95 S   6     bf  249 -   249          5.549007047798          8.023926297419          2.613623409227
      0.3047524880D+04  0.1834737132D-02
      0.4573695180D+03  0.1403732281D-01
      0.1039486850D+03  0.6884262226D-01
      0.2921015530D+02  0.2321844432D+00
      0.9286662960D+01  0.4679413484D+00
      0.3163926960D+01  0.3623119853D+00
 Atom C34      Shell    96 SP   3    bf  250 -   253          5.549007047798          8.023926297419          2.613623409227
      0.7868272350D+01 -0.1193324198D+00  0.6899906659D-01
      0.1881288540D+01 -0.1608541517D+00  0.3164239610D+00
      0.5442492580D+00  0.1143456438D+01  0.7443082909D+00
 Atom C34      Shell    97 SP   1    bf  254 -   257          5.549007047798          8.023926297419          2.613623409227
      0.1687144782D+00  0.1000000000D+01  0.1000000000D+01
 Atom C34      Shell    98 D   1     bf  258 -   263          5.549007047798          8.023926297419          2.613623409227
      0.8000000000D+00  0.1000000000D+01
 Atom C35      Shell    99 S   6     bf  264 -   264          3.972456439689          6.581824582507          6.841754068825
      0.3047524880D+04  0.1834737132D-02
      0.4573695180D+03  0.1403732281D-01
      0.1039486850D+03  0.6884262226D-01
      0.2921015530D+02  0.2321844432D+00
      0.9286662960D+01  0.4679413484D+00
      0.3163926960D+01  0.3623119853D+00
 Atom C35      Shell   100 SP   3    bf  265 -   268          3.972456439689          6.581824582507          6.841754068825
      0.7868272350D+01 -0.1193324198D+00  0.6899906659D-01
      0.1881288540D+01 -0.1608541517D+00  0.3164239610D+00
      0.5442492580D+00  0.1143456438D+01  0.7443082909D+00
 Atom C35      Shell   101 SP   1    bf  269 -   272          3.972456439689          6.581824582507          6.841754068825
      0.1687144782D+00  0.1000000000D+01  0.1000000000D+01
 Atom C35      Shell   102 D   1     bf  273 -   278          3.972456439689          6.581824582507          6.841754068825
      0.8000000000D+00  0.1000000000D+01
 Atom H36      Shell   103 S   3     bf  279 -   279          5.431319061639          5.124264718855          7.086902759838
      0.1873113696D+02  0.3349460434D-01
      0.2825394365D+01  0.2347269535D+00
      0.6401216923D+00  0.8137573261D+00
 Atom H36      Shell   104 S   1     bf  280 -   280          5.431319061639          5.124264718855          7.086902759838
      0.1612777588D+00  0.1000000000D+01
 Atom H37      Shell   105 S   3     bf  281 -   281          2.309476750248          5.929196172980          7.887566796615
      0.1873113696D+02  0.3349460434D-01
      0.2825394365D+01  0.2347269535D+00
      0.6401216923D+00  0.8137573261D+00
 Atom H37      Shell   106 S   1     bf  282 -   282          2.309476750248          5.929196172980          7.887566796615
      0.1612777588D+00  0.1000000000D+01
 Atom C38      Shell   107 S   6     bf  283 -   283          6.562012504757          7.109267895388          0.478022306883
      0.3047524880D+04  0.1834737132D-02
      0.4573695180D+03  0.1403732281D-01
      0.1039486850D+03  0.6884262226D-01
      0.2921015530D+02  0.2321844432D+00
      0.9286662960D+01  0.4679413484D+00
      0.3163926960D+01  0.3623119853D+00
 Atom C38      Shell   108 SP   3    bf  284 -   287          6.562012504757          7.109267895388          0.478022306883
      0.7868272350D+01 -0.1193324198D+00  0.6899906659D-01
      0.1881288540D+01 -0.1608541517D+00  0.3164239610D+00
      0.5442492580D+00  0.1143456438D+01  0.7443082909D+00
 Atom C38      Shell   109 SP   1    bf  288 -   291          6.562012504757          7.109267895388          0.478022306883
      0.1687144782D+00  0.1000000000D+01  0.1000000000D+01
 Atom C38      Shell   110 D   1     bf  292 -   297          6.562012504757          7.109267895388          0.478022306883
      0.8000000000D+00  0.1000000000D+01
 Atom H39      Shell   111 S   3     bf  298 -   298          8.175201085336          8.092500528151         -0.345703550777
      0.1873113696D+02  0.3349460434D-01
      0.2825394365D+01  0.2347269535D+00
      0.6401216923D+00  0.8137573261D+00
 Atom H39      Shell   112 S   1     bf  299 -   299          8.175201085336          8.092500528151         -0.345703550777
      0.1612777588D+00  0.1000000000D+01
 Atom C40      Shell   113 S   6     bf  300 -   300          0.928895239668          8.415854703694          3.609693707500
      0.3047524880D+04  0.1834737132D-02
      0.4573695180D+03  0.1403732281D-01
      0.1039486850D+03  0.6884262226D-01
      0.2921015530D+02  0.2321844432D+00
      0.9286662960D+01  0.4679413484D+00
      0.3163926960D+01  0.3623119853D+00
 Atom C40      Shell   114 SP   3    bf  301 -   304          0.928895239668          8.415854703694          3.609693707500
      0.7868272350D+01 -0.1193324198D+00  0.6899906659D-01
      0.1881288540D+01 -0.1608541517D+00  0.3164239610D+00
      0.5442492580D+00  0.1143456438D+01  0.7443082909D+00
[...]
 1521 Fit       0.001922
 1522 Fit       0.000382
 1523 Fit      -0.002691
 1524 Fit      -0.002790
 1525 Fit      -0.001938
 1526 Fit      -0.002445
 1527 Fit      -0.000819
 1528 Fit       0.001509
 1529 Fit       0.000190
 1530 Fit       0.002850
 1531 Fit      -0.000448
 1532 Fit       0.001745
 1533 Fit       0.003531
 1534 Fit      -0.000881
 1535 Fit       0.001718
 1536 Fit       0.002258
 1537 Fit      -0.000510
 1538 Fit       0.002091
 1539 Fit       0.000692
 1540 Fit       0.003045
 1541 Fit       0.002049
 1542 Fit       0.002223
 1543 Fit       0.002323
 1544 Fit       0.001541
 1545 Fit       0.000037
 1546 Fit      -0.000310
 1547 Fit       0.000567
 1548 Fit       0.000471
 1549 Fit      -0.000524
 1550 Fit      -0.001912
 1551 Fit      -0.001258
 1552 Fit      -0.002306
 1553 Fit       0.003066
 1554 Fit       0.001888
 1555 Fit       0.000600
 1556 Fit      -0.000822
 1557 Fit      -0.002169
 1558 Fit      -0.000734
 1559 Fit       0.000092
 1560 Fit       0.002223
 1561 Fit       0.002491
 1562 Fit       0.001325
 1563 Fit      -0.000264
 1564 Fit       0.001224
 1565 Fit      -0.001647
 1566 Fit      -0.000710
 1567 Fit      -0.002099
 1568 Fit      -0.003036
 1569 Fit      -0.002656
 1570 Fit      -0.002796
 1571 Fit      -0.002777
 1572 Fit      -0.002482
 1573 Fit      -0.002390
 1574 Fit      -0.002961
 1575 Fit      -0.000636
 1576 Fit       0.001290
 1577 Fit       0.001343
 1578 Fit      -0.000685
 1579 Fit       0.002747
 1580 Fit       0.001805
 1581 Fit      -0.000153
 1582 Fit       0.002084
 1583 Fit       0.000528
 1584 Fit      -0.001487
 1585 Fit      -0.001193
 1586 Fit      -0.000027
 1587 Fit       0.000285
 1588 Fit      -0.000646
 1589 Fit       0.001480
 1590 Fit       0.001873
 1591 Fit      -0.000798
 1592 Fit       0.001170
 1593 Fit       0.002477
 1594 Fit       0.003009
 1595 Fit       0.002173
 1596 Fit      -0.002532
 1597 Fit      -0.000690
 1598 Fit       0.000802
 1599 Fit       0.002318
 1600 Fit      -0.001614
 1601 Fit      -0.002018
 1602 Fit      -0.001168
 1603 Fit      -0.000883
 1604 Fit      -0.001329
 1605 Fit      -0.002298
 1606 Fit      -0.000276
 1607 Fit       0.000859
 1608 Fit       0.001197
 1609 Fit       0.000671
 1610 Fit      -0.000420
 1611 Fit       0.001682
 1612 Fit       0.002333
 1613 Fit       0.002323
 1614 Fit       0.003232
 1615 Fit      -0.023998
 1616 Fit      -0.020784
 1617 Fit      -0.023285
 1618 Fit      -0.026243
 1619 Fit      -0.023691
 1620 Fit      -0.019193
 1621 Fit      -0.012996
 1622 Fit      -0.013513
 1623 Fit      -0.017269
 1624 Fit      -0.022620
 1625 Fit      -0.026155
 1626 Fit      -0.025536
 1627 Fit      -0.013681
 1628 Fit      -0.011601
 1629 Fit      -0.019425
 1630 Fit      -0.024131
 1631 Fit      -0.023816
 1632 Fit      -0.003841
 1633 Fit      -0.008883
 1634 Fit      -0.017134
 1635 Fit      -0.020750
 1636 Fit      -0.018483
 1637 Fit      -0.007228
 1638 Fit      -0.013931
 1639 Fit       0.000781
 1640 Fit       0.000650
 1641 Fit       0.010805
 1642 Fit       0.010679
 1643 Fit       0.007598
 1644 Fit       0.000924
 1645 Fit       0.008509
 1646 Fit       0.016623
 1647 Fit       0.016085
 1648 Fit       0.013089
 1649 Fit       0.007170
 1650 Fit      -0.002195
 1651 Fit       0.015174
 1652 Fit       0.019239
 1653 Fit       0.017755
 1654 Fit       0.013306
 1655 Fit       0.005699
 1656 Fit       0.003794
 1657 Fit       0.003686
 1658 Fit       0.003756
 1659 Fit       0.003346
 1660 Fit       0.003599
 1661 Fit       0.000628
 1662 Fit       0.002785
 1663 Fit       0.002346
 1664 Fit       0.002782
 1665 Fit       0.003058
 1666 Fit      -0.000224
 1667 Fit       0.003213
 1668 Fit       0.002316
 1669 Fit       0.002670
 1670 Fit       0.003253
 1671 Fit       0.002382
 1672 Fit       0.003127
 1673 Fit       0.002067
 1674 Fit       0.002984
 1675 Fit       0.000218
 1676 Fit       0.000496
 1677 Fit      -0.000616
 1678 Fit       0.001628
 1679 Fit       0.001149
 1680 Fit       0.002655
 1681 Fit       0.000673
 1682 Fit       0.001923
 1683 Fit       0.002568
 1684 Fit       0.002467
 1685 Fit       0.003118
 1686 Fit       0.003465
 1687 Fit       0.000861
 1688 Fit       0.001455
 1689 Fit       0.000517
 1690 Fit       0.002346
 1691 Fit       0.002141
 1692 Fit       0.000246
 1693 Fit       0.003030
 1694 Fit       0.000893
 1695 Fit      -0.000058
 1696 Fit      -0.000007
 1697 Fit       0.000839
 1698 Fit      -0.000373
 1699 Fit       0.003214
 1700 Fit       0.003532
 1701 Fit       0.003508
 1702 Fit       0.003011
 1703 Fit       0.003120
 1704 Fit       0.003400
 1705 Fit       0.002984
 1706 Fit       0.002752
 1707 Fit       0.002315
 1708 Fit       0.002643
 1709 Fit       0.001671
 1710 Fit       0.000985
 1711 Fit       0.000763
 1712 Fit       0.002604
 1713 Fit       0.002895
 1714 Fit       0.001922
 1715 Fit       0.002495
 1716 Fit       0.003097
 1717 Fit       0.003846
 1718 Fit       0.001137
 1719 Fit       0.002192
 1720 Fit       0.002379
 1721 Fit       0.000783
 1722 Fit       0.001440
 1723 Fit       0.002262
 1724 Fit       0.002762
 1725 Fit       0.002159
 1726 Fit       0.002555
 1727 Fit       0.003290
 1728 Fit       0.002859
 1729 Fit       0.002373
 1730 Fit       0.002294
 1731 Fit       0.002130
 1732 Fit       0.001649
 1733 Fit       0.001376
 1734 Fit       0.001096
 1735 Fit       0.001508
 1736 Fit       0.001614
 1737 Fit       0.000326
 1738 Fit      -0.000498
 1739 Fit      -0.000615
 1740 Fit      -0.000495
 1741 Fit       0.003888
 1742 Fit       0.003959
 1743 Fit       0.000515
 1744 Fit       0.002339
 1745 Fit       0.002813
 1746 Fit       0.001505
 1747 Fit      -0.000060
 1748 Fit       0.001180
 1749 Fit       0.003110
 1750 Fit       0.003234
 1751 Fit       0.003490
 1752 Fit       0.003440
 1753 Fit       0.003128
 1754 Fit       0.003644
 1755 Fit       0.003425
 1756 Fit       0.002206
 1757 Fit       0.002737
 1758 Fit       0.002719
 1759 Fit       0.000743
 1760 Fit       0.001092
 1761 Fit       0.002909
 1762 Fit       0.003075
 1763 Fit      -0.002670
 1764 Fit       0.002745
 1765 Fit       0.003233
 1766 Fit       0.003706
 1767 Fit       0.002682
 1768 Fit       0.001325
 1769 Fit       0.001433
 1770 Fit       0.002860
 1771 Fit       0.003261
 1772 Fit       0.003199
 1773 Fit       0.002671
 1774 Fit       0.002776
 1775 Fit      -0.001070
 1776 Fit       0.003362
 1777 Fit       0.001836
 1778 Fit       0.001408
 1779 Fit       0.003567
 1780 Fit       0.002700
 1781 Fit       0.002597
 1782 Fit       0.003691
 1783 Fit       0.003148
 1784 Fit       0.002610
 1785 Fit       0.003105
 1786 Fit       0.001728
 1787 Fit       0.002589
 1788 Fit       0.001835
 1789 Fit       0.004069
 1790 Fit       0.000899
 1791 Fit      -0.000095
 1792 Fit      -0.000621
 1793 Fit       0.000214
 1794 Fit      -0.000414
 1795 Fit      -0.000253
 1796 Fit       0.000588
 1797 Fit       0.004225
 1798 Fit       0.001421
 1799 Fit       0.002650
 1800 Fit       0.001301
 1801 Fit       0.002544
 1802 Fit       0.000311
 1803 Fit       0.001547
 1804 Fit       0.002189
 1805 Fit       0.001175
 1806 Fit       0.001992
 1807 Fit       0.000622
 1808 Fit       0.003306
 1809 Fit       0.001420
 1810 Fit       0.002247
 1811 Fit       0.000517
 1812 Fit       0.002173
 1813 Fit       0.001553
 1814 Fit       0.001610
 1815 Fit       0.002353
 1816 Fit       0.003367
 1817 Fit       0.003530
 1818 Fit       0.004488
 1819 Fit       0.000569
 1820 Fit       0.001272
 1821 Fit       0.000531
 1822 Fit       0.001348
 1823 Fit       0.001020
 1824 Fit       0.001649
 1825 Fit       0.001794
 1826 Fit       0.001679
 1827 Fit       0.002418
 1828 Fit       0.002679
 1829 Fit       0.002600
 1830 Fit       0.002823
 1831 Fit       0.001687
 1832 Fit       0.000001
 1833 Fit       0.001192
 1834 Fit       0.001563
 1835 Fit       0.000297
 1836 Fit       0.001705
 1837 Fit       0.002961
 1838 Fit       0.003367
 1839 Fit       0.002333
 1840 Fit       0.003498
 1841 Fit       0.000944
 1842 Fit      -0.002856
 1843 Fit      -0.002698
 1844 Fit      -0.000478
 1845 Fit       0.001954
 1846 Fit      -0.003774
 1847 Fit      -0.006729
 1848 Fit      -0.005719
 1849 Fit      -0.002045
 1850 Fit      -0.003438
 1851 Fit       0.005354
 1852 Fit       0.001739
 1853 Fit       0.005869
 1854 Fit       0.007561
 1855 Fit       0.007821
 1856 Fit       0.003822
 1857 Fit       0.005724
 1858 Fit       0.006190
 1859 Fit       0.004686
 1860 Fit       0.000759
 1861 Fit       0.004430
 1862 Fit       0.004936
 1863 Fit       0.003979
 1864 Fit      -0.001361
 1865 Fit      -0.001335
 1866 Fit      -0.001471
 1867 Fit      -0.001738
 1868 Fit      -0.001475
 1869 Fit      -0.000332
 1870 Fit      -0.001634
 1871 Fit      -0.005886
 1872 Fit       0.000004
 1873 Fit       0.002045
 1874 Fit      -0.000496
 1875 Fit       0.001330
 1876 Fit       0.002666
 1877 Fit       0.000334
 1878 Fit       0.001954
 1879 Fit       0.002997
 1880 Fit      -0.000369
 1881 Fit       0.001470
 1882 Fit      -0.001538
 1883 Fit      -0.001137
 1884 Fit      -0.001198
 1885 Fit      -0.000400
 1886 Fit      -0.001163
 1887 Fit      -0.001034
 1888 Fit      -0.000026
 1889 Fit       0.001505
 1890 Fit      -0.004152
 1891 Fit      -0.001167
 1892 Fit       0.000481
 1893 Fit       0.001992
 1894 Fit      -0.001672
 1895 Fit       0.001240
 1896 Fit       0.003484
 1897 Fit      -0.001429
 1898 Fit       0.015592
 1899 Fit       0.009241
 1900 Fit       0.011025
 1901 Fit       0.012656
 1902 Fit       0.011449
 1903 Fit       0.006749
 1904 Fit       0.007637
 1905 Fit       0.009558
 1906 Fit       0.008811
 1907 Fit       0.006122
 1908 Fit       0.001912
 1909 Fit       0.004972
 1910 Fit      -0.000340
 1911 Fit      -0.007116
 1912 Fit      -0.003178
 1913 Fit      -0.001552
 1914 Fit      -0.001977
 1915 Fit      -0.000637
 1916 Fit      -0.000879
 1917 Fit      -0.000884
 1918 Fit      -0.002899
 1919 Fit      -0.019109
 1920 Fit      -0.010296
 1921 Fit      -0.005260
 1922 Fit      -0.002032
 1923 Fit      -0.010946
 1924 Fit      -0.016175
 1925 Fit      -0.007734
 1926 Fit      -0.004040
 1927 Fit      -0.013488
 1928 Fit      -0.005769
 1929 Fit      -0.002592
 1930 Fit      -0.001158
 1931 Fit      -0.009357
 1932 Fit      -0.002671
 1933 Fit      -0.004676
 1934 Fit      -0.006263
 1935 Fit      -0.010649
 1936 Fit      -0.008232
 1937 Fit      -0.003935
 1938 Fit      -0.001778
 1939 Fit      -0.002313
 1940 Fit      -0.008626
 1941 Fit      -0.018830
 1942 Fit      -0.018120
 1943 Fit      -0.002011
 1944 Fit      -0.000482
 1945 Fit      -0.000285
 1946 Fit      -0.000671
 1947 Fit      -0.002820
 1948 Fit       0.000189
 1949 Fit      -0.002318
 1950 Fit       0.000541
 1951 Fit       0.000039
 1952 Fit       0.001471
 1953 Fit       0.000351
 1954 Fit       0.001769
 1955 Fit       0.001431
 1956 Fit       0.002711
 1957 Fit       0.002383
 1958 Fit       0.001306
 1959 Fit       0.002208
 1960 Fit       0.001593
 1961 Fit       0.001973
 1962 Fit       0.001589
 1963 Fit       0.001316
 1964 Fit       0.001102
 1965 Fit       0.000483
 1966 Fit       0.000658
 1967 Fit      -0.007789
 1968 Fit      -0.002594
 1969 Fit      -0.001418
 1970 Fit       0.001174
 1971 Fit       0.000291
 1972 Fit       0.004332
 1973 Fit       0.002570
 1974 Fit       0.003035
 1975 Fit       0.007553
 1976 Fit       0.000885
 1977 Fit       0.002144
 1978 Fit       0.004162
 1979 Fit       0.007842
 1980 Fit       0.001914
 1981 Fit      -0.000750
 1982 Fit      -0.000885
 1983 Fit      -0.001160
 1984 Fit      -0.001057
 1985 Fit      -0.001246
 1986 Fit       0.000220
 1987 Fit       0.000091
 1988 Fit       0.000778
 1989 Fit       0.001737
 1990 Fit      -0.000023
 1991 Fit       0.000818
 1992 Fit      -0.000188
 1993 Fit       0.001099
 1994 Fit       0.001820
 1995 Fit       0.000462
 1996 Fit       0.001695
 1997 Fit       0.002230
 1998 Fit       0.001773
 1999 Fit       0.002291
 2000 Fit       0.002621
 2001 Fit       0.000546
 2002 Fit      -0.000089
 2003 Fit       0.000774
 2004 Fit       0.003567
 2005 Fit       0.001818
 2006 Fit       0.002640
 2007 Fit       0.000881
 2008 Fit       0.002728
 2009 Fit      -0.000521
 2010 Fit      -0.001003
 2011 Fit      -0.000277
 2012 Fit      -0.000695
 2013 Fit       0.003825
 2014 Fit       0.002001
 2015 Fit       0.002997
 2016 Fit       0.001887
 2017 Fit       0.000700
 2018 Fit      -0.000133
 2019 Fit       0.001410
 2020 Fit       0.001543
 2021 Fit       0.000505
 2022 Fit       0.000264
 2023 Fit       0.002885
 2024 Fit       0.002014
 2025 Fit       0.000736
 2026 Fit       0.001689
 2027 Fit       0.001609
 2028 Fit      -0.000033
 2029 Fit      -0.000006
 2030 Fit       0.000660
 2031 Fit      -0.000642
 2032 Fit      -0.001395
 2033 Fit      -0.000430
 2034 Fit      -0.000971
 2035 Fit      -0.000432
 2036 Fit       0.000836
 2037 Fit       0.000258
 2038 Fit       0.000303
 2039 Fit       0.001013
 2040 Fit       0.001932
 2041 Fit       0.002578
 2042 Fit       0.000321
 2043 Fit       0.000903
 2044 Fit       0.001560
 2045 Fit       0.001701
 2046 Fit       0.000556
 2047 Fit       0.000948
 2048 Fit       0.002148
 2049 Fit       0.002148
 2050 Fit       0.001708
 2051 Fit       0.000930
 2052 Fit       0.001628
 2053 Fit       0.000660
 2054 Fit      -0.000536
 2055 Fit       0.000454
 2056 Fit       0.001153
 2057 Fit       0.000466
 2058 Fit       0.001170
 2059 Fit       0.001048
 2060 Fit       0.001714
 2061 Fit       0.000077
 2062 Fit      -0.000348
 2063 Fit      -0.000902
 2064 Fit      -0.001686
 2065 Fit      -0.001619
 2066 Fit      -0.001653
 2067 Fit      -0.001915
 2068 Fit      -0.001967
 2069 Fit      -0.001557
 2070 Fit      -0.000368
 2071 Fit       0.001088
 2072 Fit      -0.000007
 2073 Fit       0.001780
 2074 Fit      -0.000319
 2075 Fit       0.001131
 2076 Fit       0.002631
 2077 Fit       0.000107
 2078 Fit       0.001697
 2079 Fit       0.002757
 2080 Fit      -0.000675
 2081 Fit       0.001254
 2082 Fit       0.001558
 2083 Fit      -0.000379
 2084 Fit       0.001800
 2085 Fit       0.000913
 2086 Fit       0.002501
 2087 Fit       0.001708
 2088 Fit       0.002174
 2089 Fit       0.002005
 2090 Fit       0.001417
 2091 Fit       0.000450
 2092 Fit       0.000810
 2093 Fit       0.001103
 2094 Fit       0.000820
 2095 Fit       0.000047
 2096 Fit      -0.000832
 2097 Fit      -0.000419
 2098 Fit      -0.000610
 2099 Fit      -0.001242
 2100 Fit       0.000347
 2101 Fit      -0.000576
 2102 Fit      -0.001453
 2103 Fit       0.002498
 2104 Fit       0.001684
 2105 Fit       0.000720
 2106 Fit      -0.000327
 2107 Fit      -0.001263
 2108 Fit      -0.000270
 2109 Fit       0.000283
 2110 Fit       0.001730
 2111 Fit       0.001888
 2112 Fit       0.001027
 2113 Fit      -0.000033
 2114 Fit       0.000959
 2115 Fit      -0.000999
 2116 Fit      -0.000422
 2117 Fit      -0.000470
 2118 Fit      -0.001343
 2119 Fit      -0.001839
 2120 Fit      -0.002107
 2121 Fit      -0.002159
 2122 Fit      -0.002299
 2123 Fit      -0.001952
 2124 Fit      -0.001694
 2125 Fit      -0.001728
 2126 Fit      -0.001499
 2127 Fit      -0.001916
 2128 Fit      -0.000523
 2129 Fit       0.000630
 2130 Fit       0.000763
 2131 Fit      -0.000580
 2132 Fit       0.001887
 2133 Fit       0.001276
 2134 Fit      -0.000134
 2135 Fit       0.002168
 2136 Fit       0.001237
 2137 Fit      -0.000114
 2138 Fit       0.000231
 2139 Fit      -0.001088
 2140 Fit      -0.000036
 2141 Fit       0.000265
 2142 Fit      -0.000480
 2143 Fit       0.000965
 2144 Fit       0.001300
 2145 Fit      -0.000510
 2146 Fit       0.000916
 2147 Fit       0.001894
 2148 Fit       0.002242
 2149 Fit       0.001659
 2150 Fit      -0.000908
 2151 Fit       0.000389
 2152 Fit       0.001438
 2153 Fit       0.002521
 2154 Fit      -0.000907
 2155 Fit       0.000039
 2156 Fit      -0.001708
 2157 Fit      -0.001723
 2158 Fit      -0.001256
 2159 Fit      -0.000524
 2160 Fit      -0.000104
 2161 Fit      -0.000134
 2162 Fit      -0.000608
 2163 Fit      -0.001486
 2164 Fit       0.000198
 2165 Fit       0.000947
 2166 Fit       0.001188
 2167 Fit       0.000900
 2168 Fit       0.001955
 2169 Fit       0.002112
 -----------------------------------------------------------------
 Leave Link  602 at Tue Mar 21 12:12:20 2017, MaxMem=    33554432 cpu:         3.2
 (Enter /home/michal/g09/l9999.exe)

 Test job not archived.
 1\1\GINC-LINUX\SP\RHF\6-31G(d)\C27H46O1\MICHAL\21-Mar-2017\0\\#P HF/6-
 31G* SCF(Conver=6) NoSymm Test Pop=mk IOp(6/33=2) GFInput GFPrint\\MEP
  - Input generated by R.E.D.-III.x MOLECULE\\0,1\O,0,4.20528956,6.5551
 7643,4.12442783\H,0,4.98713997,6.90271878,3.67513117\C,0,0.,0.,0.\C,0,
 1.34555457,0.61930991,-0.47202098\H,0,2.12801123,0.,0.\C,0,1.61278969,
 2.05455867,0.\H,0,0.85012596,2.72251441,-0.42486022\C,0,1.54255399,2.1
 2236234,1.54806824\H,0,2.40450164,1.53615245,1.90770183\C,0,0.09049801
 ,-1.40681024,-0.68798852\H,0,0.82580354,-1.9847242,-0.10536597\C,0,0.0
 3082797,0.01514465,1.54238941\H,0,0.83383896,-0.65431098,1.88359974\H,
 0,-0.89895203,-0.37170772,1.97133566\C,0,1.7570641,3.57507754,2.101276
 81\C,0,1.3978106,0.31058777,-1.9755273\H,0,2.41940877,0.31051254,-2.36
 851421\H,0,0.84050153,1.0645789,-2.54516175\C,0,0.27294898,1.43330922,
 2.09956618\H,0,-0.60744818,2.04766286,1.882807\H,0,0.3328486,1.3697843
 3,3.19195195\C,0,0.72623711,-1.08572564,-2.0856913\H,0,-0.04358577,-1.
 09134541,-2.86638314\H,0,1.4567041,-1.84906874,-2.36945636\C,0,2.98784
 138,2.54468654,-0.48216562\H,0,2.95626405,2.75740713,-1.55905521\H,0,3
 .72740724,1.7347148,-0.36735612\C,0,-1.18016444,-2.2875207,-0.80686374
 \H,0,-1.89288045,-1.74697612,-1.44721034\C,0,-1.22560658,0.77927489,-0
 .53093653\H,0,-2.15485578,0.35596132,-0.13587537\H,0,-1.20415859,1.833
 07016,-0.24259791\H,0,-1.29194241,0.74516595,-1.62262377\C,0,2.9364080
 6,4.24607892,1.38306994\C,0,2.10213341,3.48295156,3.62050032\H,0,2.874
 13026,2.7116441,3.75022742\H,0,1.22212246,3.13759548,4.17392058\C,0,3.
 47246746,3.76206254,0.25295851\H,0,4.32613009,4.28236684,-0.18293844\C
 ,0,0.49155019,4.4534785,1.91016764\H,0,-0.33012873,4.11603649,2.549730
 23\H,0,0.68662301,5.49854179,2.16328065\H,0,0.14881427,4.43208336,0.87
 102101\C,0,3.48785191,5.50983428,2.01664997\H,0,4.37860528,5.83694929,
 1.46489574\H,0,2.75779798,6.32912276,1.95256726\C,0,2.60683512,4.78933
 602,4.25041698\H,0,1.82772045,5.56176,4.2402805\H,0,2.86846759,4.62164
 452,5.30136969\C,0,-0.85371537,-3.64022216,-1.51215709\H,0,0.13283284,
 -3.5841689,-1.98339191\H,0,-0.76649488,-4.42867174,-0.75235671\C,0,3.8
 2263887,5.32175148,3.50338397\H,0,4.64586199,4.59402238,3.59548388\C,0
 ,-1.86769053,-2.54911529,0.54593441\H,0,-1.15923362,-2.97463381,1.2675
 2087\H,0,-2.68890068,-3.26321879,0.43459294\H,0,-2.28608436,-1.6402989
 9,0.98548587\C,0,-1.84861945,-4.07291145,-2.60939643\H,0,-1.90799787,-
 3.26524632,-3.35216817\H,0,-1.42341758,-4.93214678,-3.14391077\C,0,-3.
 28225198,-4.41494648,-2.1622518\H,0,-3.89607658,-4.56595737,-3.0627048
 9\H,0,-3.71908389,-3.5468945,-1.65036425\C,0,-3.44755071,-5.65792164,-
 1.26120222\H,0,-2.81024226,-5.5317346,-0.37435899\C,0,-3.01581276,-6.9
 5468905,-1.96518175\H,0,-1.96110311,-6.9359503,-2.25750006\H,0,-3.1597
 392,-7.821301,-1.30993312\H,0,-3.61131691,-7.12162895,-2.87226886\C,0,
 -4.90104574,-5.77059031,-0.77354226\H,0,-5.21110588,-4.87228875,-0.227
 2229\H,0,-5.03250165,-6.63058529,-0.10697805\H,0,-5.58805851,-5.898140
 63,-1.62004127\\Version=EM64L-G09RevD.01\HF=-1124.0737506\RMSD=4.564e-
 07\Dipole=0.2417691,-0.3585915,-0.530778\Quadrupole=8.3396393,-4.29929
 52,-4.0403441,0.6260094,-3.1891089,-9.0208204\PG=C01 [X(C27H46O1)]\\@


 Spring appears, and we are once more children.
                                  -- Anonymous
 Job cpu time:       0 days  0 hours 11 minutes  4.2 seconds.
 File lengths (MBytes):  RWF=    142 Int=      0 D2E=      0 Chk=     10 Scr=      1
 Normal termination of Gaussian 09 at Tue Mar 21 12:12:20 2017.
