 Entering Gaussian System, Link 0=/home/michal/g09/g09
 Input=JOB2-gau_m1-6-3.com
 Output=JOB2-gau_m1-6-3.log
 Initial command:
 /home/michal/g09/l1.exe "/home/michal/gauss_scratch/Gau-14613.inp" -scrdir="/home/michal/gauss_scratch/"
 Entering Link 1 = /home/michal/g09/l1.exe PID=     14614.
  
 Copyright (c) 1988,1990,1992,1993,1995,1998,2003,2009,2013,
            Gaussian, Inc.  All Rights Reserved.
  
 This is part of the Gaussian(R) 09 program.  It is based on
 the Gaussian(R) 03 system (copyright 2003, Gaussian, Inc.),
 the Gaussian(R) 98 system (copyright 1998, Gaussian, Inc.),
 the Gaussian(R) 94 system (copyright 1995, Gaussian, Inc.),
 the Gaussian 92(TM) system (copyright 1992, Gaussian, Inc.),
 the Gaussian 90(TM) system (copyright 1990, Gaussian, Inc.),
 the Gaussian 88(TM) system (copyright 1988, Gaussian, Inc.),
 the Gaussian 86(TM) system (copyright 1986, Carnegie Mellon
 University), and the Gaussian 82(TM) system (copyright 1983,
 Carnegie Mellon University). Gaussian is a federally registered
 trademark of Gaussian, Inc.
  
 This software contains proprietary and confidential information,
 including trade secrets, belonging to Gaussian, Inc.
  
 This software is provided under written license and may be
 used, copied, transmitted, or stored only in accord with that
 written license.
  
 The following legend is applicable only to US Government
 contracts under FAR:
  
                    RESTRICTED RIGHTS LEGEND
  
 Use, reproduction and disclosure by the US Government is
 subject to restrictions as set forth in subparagraphs (a)
 and (c) of the Commercial Computer Software - Restricted
 Rights clause in FAR 52.227-19.
  
 Gaussian, Inc.
 340 Quinnipiac St., Bldg. 40, Wallingford CT 06492
  
  
 ---------------------------------------------------------------
 Warning -- This program may not be used in any manner that
 competes with the business of Gaussian, Inc. or will provide
 assistance to any competitor of Gaussian, Inc.  The licensee
 of this program is prohibited from giving any competitor of
 Gaussian, Inc. access to this program.  By using this program,
 the user acknowledges that Gaussian, Inc. is engaged in the
 business of creating and licensing software in the field of
 computational chemistry and represents and warrants to the
 licensee that it is not a competitor of Gaussian, Inc. and that
 it will not use this program in any manner prohibited above.
 ---------------------------------------------------------------
  

 Cite this work as:
 Gaussian 09, Revision D.01,
 M. J. Frisch, G. W. Trucks, H. B. Schlegel, G. E. Scuseria, 
 M. A. Robb, J. R. Cheeseman, G. Scalmani, V. Barone, B. Mennucci, 
 G. A. Petersson, H. Nakatsuji, M. Caricato, X. Li, H. P. Hratchian, 
 A. F. Izmaylov, J. Bloino, G. Zheng, J. L. Sonnenberg, M. Hada, 
 M. Ehara, K. Toyota, R. Fukuda, J. Hasegawa, M. Ishida, T. Nakajima, 
 Y. Honda, O. Kitao, H. Nakai, T. Vreven, J. A. Montgomery, Jr., 
 J. E. Peralta, F. Ogliaro, M. Bearpark, J. J. Heyd, E. Brothers, 
 K. N. Kudin, V. N. Staroverov, T. Keith, R. Kobayashi, J. Normand, 
 K. Raghavachari, A. Rendell, J. C. Burant, S. S. Iyengar, J. Tomasi, 
 M. Cossi, N. Rega, J. M. Millam, M. Klene, J. E. Knox, J. B. Cross, 
 V. Bakken, C. Adamo, J. Jaramillo, R. Gomperts, R. E. Stratmann, 
 O. Yazyev, A. J. Austin, R. Cammi, C. Pomelli, J. W. Ochterski, 
 R. L. Martin, K. Morokuma, V. G. Zakrzewski, G. A. Voth, 
 P. Salvador, J. J. Dannenberg, S. Dapprich, A. D. Daniels, 
 O. Farkas, J. B. Foresman, J. V. Ortiz, J. Cioslowski, 
 and D. J. Fox, Gaussian, Inc., Wallingford CT, 2013.
 
 ******************************************
 Gaussian 09:  EM64L-G09RevD.01 24-Apr-2013
                21-Mar-2017 
 ******************************************
 %Mem=256MB
 %NProc=12
 Will use up to   12 processors via shared memory.
 ----------------------------------------------------------------------
 #P HF/6-31G* SCF(Conver=6) NoSymm Test Pop=mk IOp(6/33=2) GFInput GFPr
 int
 ----------------------------------------------------------------------
 1/38=1/1;
 2/12=2,15=1,17=6,18=5,40=1/2;
 3/5=1,6=6,7=1,11=9,16=1,24=110,25=1,30=1/1,2,3;
 4//1;
 5/5=2,6=6,38=5/2;
 6/7=2,8=2,9=2,10=2,15=8,20=1,28=1,33=2/1,2;
 99/5=1,9=1/99;
 Leave Link    1 at Tue Mar 21 12:06:54 2017, MaxMem=    33554432 cpu:         0.6
 (Enter /home/michal/g09/l101.exe)
 ----------------------------------------------
 MEP - Input generated by R.E.D.-III.x MOLECULE
 ----------------------------------------------
 Symbolic Z-matrix:
 Charge =  0 Multiplicity = 1
 O                    -3.74639  -3.60218  -4.11964 
 H                    -3.89611  -4.4441   -3.66942 
 C                     1.60049   2.06381   0. 
 C                     1.32737   0.60815   0.47204 
 H                     2.1185    0.        0. 
 C                     0.        0.        0. 
 H                    -0.8332    0.57732   0.42521 
 C                    -0.08327   0.05203  -1.54808 
 H                     0.69434  -0.64201  -1.90803 
 C                     2.98638   2.31898   0.68816 
 H                     3.72631   1.74623   0.10632 
 C                     1.59408   2.03015  -1.5423 
 H                     2.43865   1.4137   -1.88311 
 H                     1.74403   3.0262   -1.97081 
 C                    -1.44105  -0.50794  -2.10088 
 C                     1.63965   0.63257   1.97564 
 H                     1.88989  -0.35806   2.3682 
 H                     0.77204   0.98803   2.54533 
 C                     0.27731   1.45097  -2.0997 
 H                    -0.53216   2.15608  -1.88291 
 H                     0.35344   1.40821  -3.1921 
 C                     2.82891   1.62591   2.0864 
 H                     2.64403   2.3749    2.86546 
 H                     3.74785   1.1059    2.3727 
 C                    -0.14149  -1.45296   0.48165 
 H                    -0.35332  -1.47442   1.55896 
 H                     0.82313  -1.97445   0.36444 
 C                     3.53045   3.76554   0.80671 
 H                     2.83057   4.32491   1.44488 
 C                     0.54592   3.06293   0.53027 
 H                     0.73002   4.0669    0.13407 
 H                    -0.47099   2.78502   0.24254 
 H                     0.56322   3.13658   1.62192 
 C                    -1.80763  -1.81347  -1.38116 
 C                    -1.2679   -0.82322  -3.61944 
 H                    -0.334    -1.38812  -3.74766 
 H                    -1.14304   0.1131   -4.17416 
 C                    -1.20714  -2.21696  -0.25182 
 H                    -1.506    -3.17066   0.18476 
 C                    -2.5989    0.50857  -1.91177 
 H                    -2.47042   1.38555  -2.554 
 H                    -3.56626   0.06639  -2.16257 
 H                    -2.65981   0.84941  -0.8736 
 C                    -2.90221  -2.65322  -2.01316 
 H                    -3.00514  -3.59599  -1.46049 
 H                    -3.87295  -2.14153  -1.94874 
 C                    -2.41503  -1.62726  -4.24849 
 H                    -3.35176  -1.05612  -4.23906 
 H                    -2.18948  -1.84236  -5.29917 
 C                     4.92144   3.78129   1.51366 
 H                     5.13174   2.79792   1.94684 
 H                     5.70435   3.9433    0.75904 
 C                    -2.64028  -2.93443  -3.49987 
 H                    -1.73651  -3.55931  -3.59185 
 C                     3.62244   4.49741  -0.54524 
 H                     4.20647   3.91169  -1.26601 
 H                     4.12171   5.46428  -0.42927 
 H                     2.64113   4.68809  -0.9871 
 C                     5.08398   4.8229    2.63884 
 H                     4.31663   4.63341   3.40145 
 H                     6.05033   4.64349   3.12754 
 C                     5.01108   6.28902   2.18297 
 H                     4.02953   6.48011   1.72909 
 H                     5.75217   6.44641   1.38566 
 C                     5.24432   7.3579    3.27771 
 H                     5.14624   8.33047   2.77299 
 C                     6.66106   7.30194   3.87319 
 H                     7.42559   7.33838   3.08817 
 H                     6.83348   8.14942   4.54647 
 H                     6.82151   6.38665   4.45439 
 C                     4.17777   7.31537   4.38477 
 H                     3.16559   7.36327   3.96599 
 H                     4.2951    8.16157   5.07135 
 H                     4.24996   6.3987    4.98131 
 
 NAtoms=     74 NQM=       74 NQMF=       0 NMMI=      0 NMMIF=      0
                NMic=       0 NMicF=      0.
                    Isotopes and Nuclear Properties:
 (Nuclear quadrupole moments (NQMom) in fm**2, nuclear magnetic moments (NMagM)
  in nuclear magnetons)

  Atom         1           2           3           4           5           6           7           8           9          10
 IAtWgt=          16           1          12          12           1          12           1          12           1          12
 AtmWgt=  15.9949146   1.0078250  12.0000000  12.0000000   1.0078250  12.0000000   1.0078250  12.0000000   1.0078250  12.0000000
 NucSpn=           0           1           0           0           1           0           1           0           1           0
 AtZEff=   0.0000000   0.0000000   0.0000000   0.0000000   0.0000000   0.0000000   0.0000000   0.0000000   0.0000000   0.0000000
 NQMom=    0.0000000   0.0000000   0.0000000   0.0000000   0.0000000   0.0000000   0.0000000   0.0000000   0.0000000   0.0000000
 NMagM=    0.0000000   2.7928460   0.0000000   0.0000000   2.7928460   0.0000000   2.7928460   0.0000000   2.7928460   0.0000000
 AtZNuc=   8.0000000   1.0000000   6.0000000   6.0000000   1.0000000   6.0000000   1.0000000   6.0000000   1.0000000   6.0000000

  Atom        11          12          13          14          15          16          17          18          19          20
 IAtWgt=           1          12           1           1          12          12           1           1          12           1
 AtmWgt=   1.0078250  12.0000000   1.0078250   1.0078250  12.0000000  12.0000000   1.0078250   1.0078250  12.0000000   1.0078250
 NucSpn=           1           0           1           1           0           0           1           1           0           1
 AtZEff=   0.0000000   0.0000000   0.0000000   0.0000000   0.0000000   0.0000000   0.0000000   0.0000000   0.0000000   0.0000000
 NQMom=    0.0000000   0.0000000   0.0000000   0.0000000   0.0000000   0.0000000   0.0000000   0.0000000   0.0000000   0.0000000
 NMagM=    2.7928460   0.0000000   2.7928460   2.7928460   0.0000000   0.0000000   2.7928460   2.7928460   0.0000000   2.7928460
 AtZNuc=   1.0000000   6.0000000   1.0000000   1.0000000   6.0000000   6.0000000   1.0000000   1.0000000   6.0000000   1.0000000

  Atom        21          22          23          24          25          26          27          28          29          30
 IAtWgt=           1          12           1           1          12           1           1          12           1          12
 AtmWgt=   1.0078250  12.0000000   1.0078250   1.0078250  12.0000000   1.0078250   1.0078250  12.0000000   1.0078250  12.0000000
 NucSpn=           1           0           1           1           0           1           1           0           1           0
 AtZEff=   0.0000000   0.0000000   0.0000000   0.0000000   0.0000000   0.0000000   0.0000000   0.0000000   0.0000000   0.0000000
 NQMom=    0.0000000   0.0000000   0.0000000   0.0000000   0.0000000   0.0000000   0.0000000   0.0000000   0.0000000   0.0000000
 NMagM=    2.7928460   0.0000000   2.7928460   2.7928460   0.0000000   2.7928460   2.7928460   0.0000000   2.7928460   0.0000000
 AtZNuc=   1.0000000   6.0000000   1.0000000   1.0000000   6.0000000   1.0000000   1.0000000   6.0000000   1.0000000   6.0000000

  Atom        31          32          33          34          35          36          37          38          39          40
 IAtWgt=           1           1           1          12          12           1           1          12           1          12
 AtmWgt=   1.0078250   1.0078250   1.0078250  12.0000000  12.0000000   1.0078250   1.0078250  12.0000000   1.0078250  12.0000000
 NucSpn=           1           1           1           0           0           1           1           0           1           0
 AtZEff=   0.0000000   0.0000000   0.0000000   0.0000000   0.0000000   0.0000000   0.0000000   0.0000000   0.0000000   0.0000000
 NQMom=    0.0000000   0.0000000   0.0000000   0.0000000   0.0000000   0.0000000   0.0000000   0.0000000   0.0000000   0.0000000
 NMagM=    2.7928460   2.7928460   2.7928460   0.0000000   0.0000000   2.7928460   2.7928460   0.0000000   2.7928460   0.0000000
 AtZNuc=   1.0000000   1.0000000   1.0000000   6.0000000   6.0000000   1.0000000   1.0000000   6.0000000   1.0000000   6.0000000

  Atom        41          42          43          44          45          46          47          48          49          50
 IAtWgt=           1           1           1          12           1           1          12           1           1          12
 AtmWgt=   1.0078250   1.0078250   1.0078250  12.0000000   1.0078250   1.0078250  12.0000000   1.0078250   1.0078250  12.0000000
 NucSpn=           1           1           1           0           1           1           0           1           1           0
 AtZEff=   0.0000000   0.0000000   0.0000000   0.0000000   0.0000000   0.0000000   0.0000000   0.0000000   0.0000000   0.0000000
 NQMom=    0.0000000   0.0000000   0.0000000   0.0000000   0.0000000   0.0000000   0.0000000   0.0000000   0.0000000   0.0000000
 NMagM=    2.7928460   2.7928460   2.7928460   0.0000000   2.7928460   2.7928460   0.0000000   2.7928460   2.7928460   0.0000000
 AtZNuc=   1.0000000   1.0000000   1.0000000   6.0000000   1.0000000   1.0000000   6.0000000   1.0000000   1.0000000   6.0000000

  Atom        51          52          53          54          55          56          57          58          59          60
 IAtWgt=           1           1          12           1          12           1           1           1          12           1
 AtmWgt=   1.0078250   1.0078250  12.0000000   1.0078250  12.0000000   1.0078250   1.0078250   1.0078250  12.0000000   1.0078250
 NucSpn=           1           1           0           1           0           1           1           1           0           1
 AtZEff=   0.0000000   0.0000000   0.0000000   0.0000000   0.0000000   0.0000000   0.0000000   0.0000000   0.0000000   0.0000000
 NQMom=    0.0000000   0.0000000   0.0000000   0.0000000   0.0000000   0.0000000   0.0000000   0.0000000   0.0000000   0.0000000
 NMagM=    2.7928460   2.7928460   0.0000000   2.7928460   0.0000000   2.7928460   2.7928460   2.7928460   0.0000000   2.7928460
 AtZNuc=   1.0000000   1.0000000   6.0000000   1.0000000   6.0000000   1.0000000   1.0000000   1.0000000   6.0000000   1.0000000

  Atom        61          62          63          64          65          66          67          68          69          70
 IAtWgt=           1          12           1           1          12           1          12           1           1           1
 AtmWgt=   1.0078250  12.0000000   1.0078250   1.0078250  12.0000000   1.0078250  12.0000000   1.0078250   1.0078250   1.0078250
 NucSpn=           1           0           1           1           0           1           0           1           1           1
 AtZEff=   0.0000000   0.0000000   0.0000000   0.0000000   0.0000000   0.0000000   0.0000000   0.0000000   0.0000000   0.0000000
 NQMom=    0.0000000   0.0000000   0.0000000   0.0000000   0.0000000   0.0000000   0.0000000   0.0000000   0.0000000   0.0000000
 NMagM=    2.7928460   0.0000000   2.7928460   2.7928460   0.0000000   2.7928460   0.0000000   2.7928460   2.7928460   2.7928460
 AtZNuc=   1.0000000   6.0000000   1.0000000   1.0000000   6.0000000   1.0000000   6.0000000   1.0000000   1.0000000   1.0000000

  Atom        71          72          73          74
 IAtWgt=          12           1           1           1
 AtmWgt=  12.0000000   1.0078250   1.0078250   1.0078250
 NucSpn=           0           1           1           1
 AtZEff=   0.0000000   0.0000000   0.0000000   0.0000000
 NQMom=    0.0000000   0.0000000   0.0000000   0.0000000
 NMagM=    0.0000000   2.7928460   2.7928460   2.7928460
 AtZNuc=   6.0000000   1.0000000   1.0000000   1.0000000
 Leave Link  101 at Tue Mar 21 12:06:54 2017, MaxMem=    33554432 cpu:         1.0
 (Enter /home/michal/g09/l202.exe)
 Symmetry turned off by external request.
 Stoichiometry    C27H46O
 Framework group  C1[X(C27H46O)]
 Deg. of freedom   216
 Full point group                 C1      NOp   1
                          Input orientation:                          
 ---------------------------------------------------------------------
 Center     Atomic      Atomic             Coordinates (Angstroms)
 Number     Number       Type             X           Y           Z
 ---------------------------------------------------------------------
      1          8           0       -3.746387   -3.602185   -4.119638
      2          1           0       -3.896109   -4.444103   -3.669418
      3          6           0        1.600490    2.063813    0.000000
      4          6           0        1.327366    0.608154    0.472043
      5          1           0        2.118497    0.000000    0.000000
      6          6           0        0.000000    0.000000    0.000000
      7          1           0       -0.833203    0.577323    0.425214
      8          6           0       -0.083269    0.052031   -1.548083
      9          1           0        0.694340   -0.642007   -1.908026
     10          6           0        2.986377    2.318976    0.688160
     11          1           0        3.726306    1.746231    0.106325
     12          6           0        1.594080    2.030151   -1.542297
     13          1           0        2.438648    1.413703   -1.883109
     14          1           0        1.744031    3.026200   -1.970809
     15          6           0       -1.441052   -0.507939   -2.100877
     16          6           0        1.639647    0.632573    1.975643
     17          1           0        1.889890   -0.358062    2.368204
     18          1           0        0.772044    0.988034    2.545332
     19          6           0        0.277311    1.450969   -2.099701
     20          1           0       -0.532165    2.156080   -1.882914
     21          1           0        0.353444    1.408208   -3.192097
     22          6           0        2.828908    1.625913    2.086398
     23          1           0        2.644026    2.374895    2.865456
     24          1           0        3.747848    1.105898    2.372698
     25          6           0       -0.141494   -1.452960    0.481647
     26          1           0       -0.353318   -1.474415    1.558955
     27          1           0        0.823133   -1.974445    0.364435
     28          6           0        3.530455    3.765544    0.806708
     29          1           0        2.830566    4.324911    1.444877
     30          6           0        0.545921    3.062932    0.530271
     31          1           0        0.730021    4.066899    0.134075
     32          1           0       -0.470987    2.785016    0.242544
     33          1           0        0.563224    3.136581    1.621916
     34          6           0       -1.807631   -1.813467   -1.381162
     35          6           0       -1.267904   -0.823220   -3.619438
     36          1           0       -0.333996   -1.388117   -3.747656
     37          1           0       -1.143044    0.113096   -4.174160
     38          6           0       -1.207140   -2.216960   -0.251820
     39          1           0       -1.506001   -3.170664    0.184760
     40          6           0       -2.598896    0.508571   -1.911771
     41          1           0       -2.470419    1.385552   -2.554000
     42          1           0       -3.566263    0.066395   -2.162569
     43          1           0       -2.659806    0.849411   -0.873596
     44          6           0       -2.902215   -2.653216   -2.013164
     45          1           0       -3.005140   -3.595993   -1.460486
     46          1           0       -3.872945   -2.141534   -1.948740
     47          6           0       -2.415031   -1.627257   -4.248485
     48          1           0       -3.351764   -1.056116   -4.239065
     49          1           0       -2.189478   -1.842361   -5.299167
     50          6           0        4.921442    3.781286    1.513656
     51          1           0        5.131742    2.797920    1.946843
     52          1           0        5.704349    3.943298    0.759044
     53          6           0       -2.640282   -2.934427   -3.499867
     54          1           0       -1.736513   -3.559307   -3.591846
     55          6           0        3.622444    4.497410   -0.545239
     56          1           0        4.206474    3.911689   -1.266013
     57          1           0        4.121711    5.464283   -0.429268
     58          1           0        2.641127    4.688086   -0.987104
     59          6           0        5.083982    4.822898    2.638835
     60          1           0        4.316626    4.633413    3.401448
     61          1           0        6.050330    4.643492    3.127538
     62          6           0        5.011084    6.289019    2.182975
     63          1           0        4.029534    6.480109    1.729089
     64          1           0        5.752166    6.446414    1.385658
     65          6           0        5.244316    7.357899    3.277709
     66          1           0        5.146237    8.330472    2.772993
     67          6           0        6.661062    7.301942    3.873188
     68          1           0        7.425592    7.338383    3.088167
     69          1           0        6.833481    8.149421    4.546468
     70          1           0        6.821507    6.386645    4.454387
     71          6           0        4.177766    7.315374    4.384768
     72          1           0        3.165593    7.363268    3.965987
     73          1           0        4.295104    8.161570    5.071349
     74          1           0        4.249961    6.398697    4.981308
 ---------------------------------------------------------------------
 Rotational constants (GHZ):      0.5975874      0.0556085      0.0538210
 Leave Link  202 at Tue Mar 21 12:06:54 2017, MaxMem=    33554432 cpu:         0.0
 (Enter /home/michal/g09/l301.exe)
 Standard basis: 6-31G(d) (6D, 7F)
 Ernie: Thresh=  0.10000D-02 Tol=  0.10000D-05 Strict=F.
 AO basis set in the form of general basis input (Overlap normalization):
      1 0
 S   6 1.00       0.000000000000
      0.5484671660D+04  0.1831074430D-02
      0.8252349460D+03  0.1395017220D-01
      0.1880469580D+03  0.6844507810D-01
      0.5296450000D+02  0.2327143360D+00
      0.1689757040D+02  0.4701928980D+00
      0.5799635340D+01  0.3585208530D+00
 SP   3 1.00       0.000000000000
      0.1553961625D+02 -0.1107775495D+00  0.7087426823D-01
      0.3599933586D+01 -0.1480262627D+00  0.3397528391D+00
      0.1013761750D+01  0.1130767015D+01  0.7271585773D+00
 SP   1 1.00       0.000000000000
      0.2700058226D+00  0.1000000000D+01  0.1000000000D+01
 D   1 1.00       0.000000000000
      0.8000000000D+00  0.1000000000D+01
 ****
      2 0
 S   3 1.00       0.000000000000
      0.1873113696D+02  0.3349460434D-01
      0.2825394365D+01  0.2347269535D+00
      0.6401216923D+00  0.8137573261D+00
 S   1 1.00       0.000000000000
      0.1612777588D+00  0.1000000000D+01
 ****
      3 0
 S   6 1.00       0.000000000000
      0.3047524880D+04  0.1834737132D-02
      0.4573695180D+03  0.1403732281D-01
      0.1039486850D+03  0.6884262226D-01
      0.2921015530D+02  0.2321844432D+00
      0.9286662960D+01  0.4679413484D+00
      0.3163926960D+01  0.3623119853D+00
 SP   3 1.00       0.000000000000
      0.7868272350D+01 -0.1193324198D+00  0.6899906659D-01
      0.1881288540D+01 -0.1608541517D+00  0.3164239610D+00
      0.5442492580D+00  0.1143456438D+01  0.7443082909D+00
 SP   1 1.00       0.000000000000
      0.1687144782D+00  0.1000000000D+01  0.1000000000D+01
 D   1 1.00       0.000000000000
      0.8000000000D+00  0.1000000000D+01
 ****
      4 0
 S   6 1.00       0.000000000000
      0.3047524880D+04  0.1834737132D-02
      0.4573695180D+03  0.1403732281D-01
      0.1039486850D+03  0.6884262226D-01
      0.2921015530D+02  0.2321844432D+00
      0.9286662960D+01  0.4679413484D+00
      0.3163926960D+01  0.3623119853D+00
 SP   3 1.00       0.000000000000
      0.7868272350D+01 -0.1193324198D+00  0.6899906659D-01
      0.1881288540D+01 -0.1608541517D+00  0.3164239610D+00
      0.5442492580D+00  0.1143456438D+01  0.7443082909D+00
 SP   1 1.00       0.000000000000
      0.1687144782D+00  0.1000000000D+01  0.1000000000D+01
 D   1 1.00       0.000000000000
      0.8000000000D+00  0.1000000000D+01
 ****
      5 0
 S   3 1.00       0.000000000000
      0.1873113696D+02  0.3349460434D-01
      0.2825394365D+01  0.2347269535D+00
      0.6401216923D+00  0.8137573261D+00
 S   1 1.00       0.000000000000
      0.1612777588D+00  0.1000000000D+01
 ****
      6 0
 S   6 1.00       0.000000000000
      0.3047524880D+04  0.1834737132D-02
      0.4573695180D+03  0.1403732281D-01
      0.1039486850D+03  0.6884262226D-01
      0.2921015530D+02  0.2321844432D+00
      0.9286662960D+01  0.4679413484D+00
      0.3163926960D+01  0.3623119853D+00
 SP   3 1.00       0.000000000000
      0.7868272350D+01 -0.1193324198D+00  0.6899906659D-01
      0.1881288540D+01 -0.1608541517D+00  0.3164239610D+00
      0.5442492580D+00  0.1143456438D+01  0.7443082909D+00
 SP   1 1.00       0.000000000000
      0.1687144782D+00  0.1000000000D+01  0.1000000000D+01
 D   1 1.00       0.000000000000
      0.8000000000D+00  0.1000000000D+01
 ****
      7 0
 S   3 1.00       0.000000000000
      0.1873113696D+02  0.3349460434D-01
      0.2825394365D+01  0.2347269535D+00
      0.6401216923D+00  0.8137573261D+00
 S   1 1.00       0.000000000000
      0.1612777588D+00  0.1000000000D+01
 ****
      8 0
 S   6 1.00       0.000000000000
      0.3047524880D+04  0.1834737132D-02
      0.4573695180D+03  0.1403732281D-01
      0.1039486850D+03  0.6884262226D-01
      0.2921015530D+02  0.2321844432D+00
      0.9286662960D+01  0.4679413484D+00
      0.3163926960D+01  0.3623119853D+00
 SP   3 1.00       0.000000000000
      0.7868272350D+01 -0.1193324198D+00  0.6899906659D-01
      0.1881288540D+01 -0.1608541517D+00  0.3164239610D+00
      0.5442492580D+00  0.1143456438D+01  0.7443082909D+00
 SP   1 1.00       0.000000000000
      0.1687144782D+00  0.1000000000D+01  0.1000000000D+01
 D   1 1.00       0.000000000000
      0.8000000000D+00  0.1000000000D+01
 ****
      9 0
 S   3 1.00       0.000000000000
      0.1873113696D+02  0.3349460434D-01
      0.2825394365D+01  0.2347269535D+00
      0.6401216923D+00  0.8137573261D+00
 S   1 1.00       0.000000000000
      0.1612777588D+00  0.1000000000D+01
 ****
     10 0
 S   6 1.00       0.000000000000
      0.3047524880D+04  0.1834737132D-02
      0.4573695180D+03  0.1403732281D-01
      0.1039486850D+03  0.6884262226D-01
      0.2921015530D+02  0.2321844432D+00
      0.9286662960D+01  0.4679413484D+00
      0.3163926960D+01  0.3623119853D+00
 SP   3 1.00       0.000000000000
      0.7868272350D+01 -0.1193324198D+00  0.6899906659D-01
      0.1881288540D+01 -0.1608541517D+00  0.3164239610D+00
      0.5442492580D+00  0.1143456438D+01  0.7443082909D+00
 SP   1 1.00       0.000000000000
      0.1687144782D+00  0.1000000000D+01  0.1000000000D+01
 D   1 1.00       0.000000000000
      0.8000000000D+00  0.1000000000D+01
 ****
     11 0
 S   3 1.00       0.000000000000
      0.1873113696D+02  0.3349460434D-01
      0.2825394365D+01  0.2347269535D+00
      0.6401216923D+00  0.8137573261D+00
 S   1 1.00       0.000000000000
      0.1612777588D+00  0.1000000000D+01
 ****
     12 0
 S   6 1.00       0.000000000000
      0.3047524880D+04  0.1834737132D-02
      0.4573695180D+03  0.1403732281D-01
      0.1039486850D+03  0.6884262226D-01
      0.2921015530D+02  0.2321844432D+00
      0.9286662960D+01  0.4679413484D+00
      0.3163926960D+01  0.3623119853D+00
 SP   3 1.00       0.000000000000
      0.7868272350D+01 -0.1193324198D+00  0.6899906659D-01
      0.1881288540D+01 -0.1608541517D+00  0.3164239610D+00
      0.5442492580D+00  0.1143456438D+01  0.7443082909D+00
 SP   1 1.00       0.000000000000
      0.1687144782D+00  0.1000000000D+01  0.1000000000D+01
 D   1 1.00       0.000000000000
      0.8000000000D+00  0.1000000000D+01
 ****
     13 0
 S   3 1.00       0.000000000000
      0.1873113696D+02  0.3349460434D-01
      0.2825394365D+01  0.2347269535D+00
      0.6401216923D+00  0.8137573261D+00
 S   1 1.00       0.000000000000
      0.1612777588D+00  0.1000000000D+01
 ****
     14 0
 S   3 1.00       0.000000000000
      0.1873113696D+02  0.3349460434D-01
      0.2825394365D+01  0.2347269535D+00
      0.6401216923D+00  0.8137573261D+00
 S   1 1.00       0.000000000000
      0.1612777588D+00  0.1000000000D+01
 ****
     15 0
 S   6 1.00       0.000000000000
      0.3047524880D+04  0.1834737132D-02
      0.4573695180D+03  0.1403732281D-01
      0.1039486850D+03  0.6884262226D-01
      0.2921015530D+02  0.2321844432D+00
      0.9286662960D+01  0.4679413484D+00
      0.3163926960D+01  0.3623119853D+00
 SP   3 1.00       0.000000000000
      0.7868272350D+01 -0.1193324198D+00  0.6899906659D-01
      0.1881288540D+01 -0.1608541517D+00  0.3164239610D+00
      0.5442492580D+00  0.1143456438D+01  0.7443082909D+00
 SP   1 1.00       0.000000000000
      0.1687144782D+00  0.1000000000D+01  0.1000000000D+01
 D   1 1.00       0.000000000000
      0.8000000000D+00  0.1000000000D+01
 ****
     16 0
 S   6 1.00       0.000000000000
      0.3047524880D+04  0.1834737132D-02
      0.4573695180D+03  0.1403732281D-01
      0.1039486850D+03  0.6884262226D-01
      0.2921015530D+02  0.2321844432D+00
      0.9286662960D+01  0.4679413484D+00
      0.3163926960D+01  0.3623119853D+00
 SP   3 1.00       0.000000000000
      0.7868272350D+01 -0.1193324198D+00  0.6899906659D-01
      0.1881288540D+01 -0.1608541517D+00  0.3164239610D+00
      0.5442492580D+00  0.1143456438D+01  0.7443082909D+00
 SP   1 1.00       0.000000000000
      0.1687144782D+00  0.1000000000D+01  0.1000000000D+01
 D   1 1.00       0.000000000000
      0.8000000000D+00  0.1000000000D+01
 ****
     17 0
 S   3 1.00       0.000000000000
      0.1873113696D+02  0.3349460434D-01
      0.2825394365D+01  0.2347269535D+00
      0.6401216923D+00  0.8137573261D+00
 S   1 1.00       0.000000000000
      0.1612777588D+00  0.1000000000D+01
 ****
     18 0
 S   3 1.00       0.000000000000
      0.1873113696D+02  0.3349460434D-01
      0.2825394365D+01  0.2347269535D+00
      0.6401216923D+00  0.8137573261D+00
 S   1 1.00       0.000000000000
      0.1612777588D+00  0.1000000000D+01
 ****
     19 0
 S   6 1.00       0.000000000000
      0.3047524880D+04  0.1834737132D-02
      0.4573695180D+03  0.1403732281D-01
      0.1039486850D+03  0.6884262226D-01
      0.2921015530D+02  0.2321844432D+00
      0.9286662960D+01  0.4679413484D+00
      0.3163926960D+01  0.3623119853D+00
 SP   3 1.00       0.000000000000
      0.7868272350D+01 -0.1193324198D+00  0.6899906659D-01
      0.1881288540D+01 -0.1608541517D+00  0.3164239610D+00
      0.5442492580D+00  0.1143456438D+01  0.7443082909D+00
 SP   1 1.00       0.000000000000
      0.1687144782D+00  0.1000000000D+01  0.1000000000D+01
 D   1 1.00       0.000000000000
      0.8000000000D+00  0.1000000000D+01
 ****
     20 0
 S   3 1.00       0.000000000000
      0.1873113696D+02  0.3349460434D-01
      0.2825394365D+01  0.2347269535D+00
      0.6401216923D+00  0.8137573261D+00
 S   1 1.00       0.000000000000
      0.1612777588D+00  0.1000000000D+01
 ****
     21 0
 S   3 1.00       0.000000000000
      0.1873113696D+02  0.3349460434D-01
      0.2825394365D+01  0.2347269535D+00
      0.6401216923D+00  0.8137573261D+00
 S   1 1.00       0.000000000000
      0.1612777588D+00  0.1000000000D+01
 ****
     22 0
 S   6 1.00       0.000000000000
      0.3047524880D+04  0.1834737132D-02
      0.4573695180D+03  0.1403732281D-01
      0.1039486850D+03  0.6884262226D-01
      0.2921015530D+02  0.2321844432D+00
      0.9286662960D+01  0.4679413484D+00
      0.3163926960D+01  0.3623119853D+00
 SP   3 1.00       0.000000000000
      0.7868272350D+01 -0.1193324198D+00  0.6899906659D-01
      0.1881288540D+01 -0.1608541517D+00  0.3164239610D+00
      0.5442492580D+00  0.1143456438D+01  0.7443082909D+00
 SP   1 1.00       0.000000000000
      0.1687144782D+00  0.1000000000D+01  0.1000000000D+01
 D   1 1.00       0.000000000000
      0.8000000000D+00  0.1000000000D+01
 ****
     23 0
 S   3 1.00       0.000000000000
      0.1873113696D+02  0.3349460434D-01
      0.2825394365D+01  0.2347269535D+00
      0.6401216923D+00  0.8137573261D+00
 S   1 1.00       0.000000000000
      0.1612777588D+00  0.1000000000D+01
 ****
     24 0
 S   3 1.00       0.000000000000
      0.1873113696D+02  0.3349460434D-01
      0.2825394365D+01  0.2347269535D+00
      0.6401216923D+00  0.8137573261D+00
 S   1 1.00       0.000000000000
      0.1612777588D+00  0.1000000000D+01
 ****
     25 0
 S   6 1.00       0.000000000000
      0.3047524880D+04  0.1834737132D-02
      0.4573695180D+03  0.1403732281D-01
      0.1039486850D+03  0.6884262226D-01
      0.2921015530D+02  0.2321844432D+00
      0.9286662960D+01  0.4679413484D+00
      0.3163926960D+01  0.3623119853D+00
 SP   3 1.00       0.000000000000
      0.7868272350D+01 -0.1193324198D+00  0.6899906659D-01
      0.1881288540D+01 -0.1608541517D+00  0.3164239610D+00
      0.5442492580D+00  0.1143456438D+01  0.7443082909D+00
 SP   1 1.00       0.000000000000
      0.1687144782D+00  0.1000000000D+01  0.1000000000D+01
 D   1 1.00       0.000000000000
      0.8000000000D+00  0.1000000000D+01
 ****
     26 0
 S   3 1.00       0.000000000000
      0.1873113696D+02  0.3349460434D-01
      0.2825394365D+01  0.2347269535D+00
      0.6401216923D+00  0.8137573261D+00
 S   1 1.00       0.000000000000
      0.1612777588D+00  0.1000000000D+01
 ****
     27 0
 S   3 1.00       0.000000000000
      0.1873113696D+02  0.3349460434D-01
      0.2825394365D+01  0.2347269535D+00
      0.6401216923D+00  0.8137573261D+00
 S   1 1.00       0.000000000000
      0.1612777588D+00  0.1000000000D+01
 ****
     28 0
 S   6 1.00       0.000000000000
      0.3047524880D+04  0.1834737132D-02
      0.4573695180D+03  0.1403732281D-01
      0.1039486850D+03  0.6884262226D-01
      0.2921015530D+02  0.2321844432D+00
      0.9286662960D+01  0.4679413484D+00
      0.3163926960D+01  0.3623119853D+00
 SP   3 1.00       0.000000000000
      0.7868272350D+01 -0.1193324198D+00  0.6899906659D-01
      0.1881288540D+01 -0.1608541517D+00  0.3164239610D+00
      0.5442492580D+00  0.1143456438D+01  0.7443082909D+00
 SP   1 1.00       0.000000000000
      0.1687144782D+00  0.1000000000D+01  0.1000000000D+01
 D   1 1.00       0.000000000000
      0.8000000000D+00  0.1000000000D+01
 ****
     29 0
 S   3 1.00       0.000000000000
      0.1873113696D+02  0.3349460434D-01
      0.2825394365D+01  0.2347269535D+00
      0.6401216923D+00  0.8137573261D+00
 S   1 1.00       0.000000000000
      0.1612777588D+00  0.1000000000D+01
 ****
     30 0
 S   6 1.00       0.000000000000
      0.3047524880D+04  0.1834737132D-02
      0.4573695180D+03  0.1403732281D-01
      0.1039486850D+03  0.6884262226D-01
      0.2921015530D+02  0.2321844432D+00
      0.9286662960D+01  0.4679413484D+00
      0.3163926960D+01  0.3623119853D+00
 SP   3 1.00       0.000000000000
      0.7868272350D+01 -0.1193324198D+00  0.6899906659D-01
      0.1881288540D+01 -0.1608541517D+00  0.3164239610D+00
      0.5442492580D+00  0.1143456438D+01  0.7443082909D+00
 SP   1 1.00       0.000000000000
      0.1687144782D+00  0.1000000000D+01  0.1000000000D+01
 D   1 1.00       0.000000000000
      0.8000000000D+00  0.1000000000D+01
 ****
     31 0
 S   3 1.00       0.000000000000
      0.1873113696D+02  0.3349460434D-01
      0.2825394365D+01  0.2347269535D+00
      0.6401216923D+00  0.8137573261D+00
 S   1 1.00       0.000000000000
      0.1612777588D+00  0.1000000000D+01
 ****
     32 0
 S   3 1.00       0.000000000000
      0.1873113696D+02  0.3349460434D-01
      0.2825394365D+01  0.2347269535D+00
      0.6401216923D+00  0.8137573261D+00
 S   1 1.00       0.000000000000
      0.1612777588D+00  0.1000000000D+01
 ****
     33 0
 S   3 1.00       0.000000000000
      0.1873113696D+02  0.3349460434D-01
      0.2825394365D+01  0.2347269535D+00
      0.6401216923D+00  0.8137573261D+00
 S   1 1.00       0.000000000000
      0.1612777588D+00  0.1000000000D+01
 ****
     34 0
 S   6 1.00       0.000000000000
      0.3047524880D+04  0.1834737132D-02
      0.4573695180D+03  0.1403732281D-01
      0.1039486850D+03  0.6884262226D-01
      0.2921015530D+02  0.2321844432D+00
      0.9286662960D+01  0.4679413484D+00
      0.3163926960D+01  0.3623119853D+00
 SP   3 1.00       0.000000000000
      0.7868272350D+01 -0.1193324198D+00  0.6899906659D-01
      0.1881288540D+01 -0.1608541517D+00  0.3164239610D+00
      0.5442492580D+00  0.1143456438D+01  0.7443082909D+00
 SP   1 1.00       0.000000000000
      0.1687144782D+00  0.1000000000D+01  0.1000000000D+01
 D   1 1.00       0.000000000000
      0.8000000000D+00  0.1000000000D+01
 ****
     35 0
 S   6 1.00       0.000000000000
      0.3047524880D+04  0.1834737132D-02
      0.4573695180D+03  0.1403732281D-01
      0.1039486850D+03  0.6884262226D-01
      0.2921015530D+02  0.2321844432D+00
      0.9286662960D+01  0.4679413484D+00
      0.3163926960D+01  0.3623119853D+00
 SP   3 1.00       0.000000000000
      0.7868272350D+01 -0.1193324198D+00  0.6899906659D-01
      0.1881288540D+01 -0.1608541517D+00  0.3164239610D+00
      0.5442492580D+00  0.1143456438D+01  0.7443082909D+00
 SP   1 1.00       0.000000000000
      0.1687144782D+00  0.1000000000D+01  0.1000000000D+01
 D   1 1.00       0.000000000000
      0.8000000000D+00  0.1000000000D+01
 ****
     36 0
 S   3 1.00       0.000000000000
      0.1873113696D+02  0.3349460434D-01
      0.2825394365D+01  0.2347269535D+00
      0.6401216923D+00  0.8137573261D+00
 S   1 1.00       0.000000000000
      0.1612777588D+00  0.1000000000D+01
 ****
     37 0
 S   3 1.00       0.000000000000
      0.1873113696D+02  0.3349460434D-01
      0.2825394365D+01  0.2347269535D+00
      0.6401216923D+00  0.8137573261D+00
 S   1 1.00       0.000000000000
      0.1612777588D+00  0.1000000000D+01
 ****
     38 0
 S   6 1.00       0.000000000000
      0.3047524880D+04  0.1834737132D-02
      0.4573695180D+03  0.1403732281D-01
      0.1039486850D+03  0.6884262226D-01
      0.2921015530D+02  0.2321844432D+00
      0.9286662960D+01  0.4679413484D+00
      0.3163926960D+01  0.3623119853D+00
 SP   3 1.00       0.000000000000
      0.7868272350D+01 -0.1193324198D+00  0.6899906659D-01
      0.1881288540D+01 -0.1608541517D+00  0.3164239610D+00
      0.5442492580D+00  0.1143456438D+01  0.7443082909D+00
 SP   1 1.00       0.000000000000
      0.1687144782D+00  0.1000000000D+01  0.1000000000D+01
 D   1 1.00       0.000000000000
      0.8000000000D+00  0.1000000000D+01
 ****
     39 0
 S   3 1.00       0.000000000000
      0.1873113696D+02  0.3349460434D-01
      0.2825394365D+01  0.2347269535D+00
      0.6401216923D+00  0.8137573261D+00
 S   1 1.00       0.000000000000
      0.1612777588D+00  0.1000000000D+01
 ****
     40 0
 S   6 1.00       0.000000000000
      0.3047524880D+04  0.1834737132D-02
      0.4573695180D+03  0.1403732281D-01
      0.1039486850D+03  0.6884262226D-01
      0.2921015530D+02  0.2321844432D+00
      0.9286662960D+01  0.4679413484D+00
      0.3163926960D+01  0.3623119853D+00
 SP   3 1.00       0.000000000000
      0.7868272350D+01 -0.1193324198D+00  0.6899906659D-01
      0.1881288540D+01 -0.1608541517D+00  0.3164239610D+00
      0.5442492580D+00  0.1143456438D+01  0.7443082909D+00
 SP   1 1.00       0.000000000000
      0.1687144782D+00  0.1000000000D+01  0.1000000000D+01
 D   1 1.00       0.000000000000
      0.8000000000D+00  0.1000000000D+01
 ****
     41 0
 S   3 1.00       0.000000000000
      0.1873113696D+02  0.3349460434D-01
      0.2825394365D+01  0.2347269535D+00
      0.6401216923D+00  0.8137573261D+00
 S   1 1.00       0.000000000000
      0.1612777588D+00  0.1000000000D+01
 ****
     42 0
 S   3 1.00       0.000000000000
      0.1873113696D+02  0.3349460434D-01
      0.2825394365D+01  0.2347269535D+00
      0.6401216923D+00  0.8137573261D+00
 S   1 1.00       0.000000000000
      0.1612777588D+00  0.1000000000D+01
 ****
     43 0
 S   3 1.00       0.000000000000
      0.1873113696D+02  0.3349460434D-01
      0.2825394365D+01  0.2347269535D+00
      0.6401216923D+00  0.8137573261D+00
 S   1 1.00       0.000000000000
      0.1612777588D+00  0.1000000000D+01
 ****
     44 0
 S   6 1.00       0.000000000000
      0.3047524880D+04  0.1834737132D-02
      0.4573695180D+03  0.1403732281D-01
      0.1039486850D+03  0.6884262226D-01
      0.2921015530D+02  0.2321844432D+00
      0.9286662960D+01  0.4679413484D+00
      0.3163926960D+01  0.3623119853D+00
 SP   3 1.00       0.000000000000
      0.7868272350D+01 -0.1193324198D+00  0.6899906659D-01
      0.1881288540D+01 -0.1608541517D+00  0.3164239610D+00
      0.5442492580D+00  0.1143456438D+01  0.7443082909D+00
 SP   1 1.00       0.000000000000
      0.1687144782D+00  0.1000000000D+01  0.1000000000D+01
 D   1 1.00       0.000000000000
      0.8000000000D+00  0.1000000000D+01
 ****
     45 0
 S   3 1.00       0.000000000000
      0.1873113696D+02  0.3349460434D-01
      0.2825394365D+01  0.2347269535D+00
      0.6401216923D+00  0.8137573261D+00
 S   1 1.00       0.000000000000
      0.1612777588D+00  0.1000000000D+01
 ****
     46 0
 S   3 1.00       0.000000000000
      0.1873113696D+02  0.3349460434D-01
      0.2825394365D+01  0.2347269535D+00
      0.6401216923D+00  0.8137573261D+00
 S   1 1.00       0.000000000000
      0.1612777588D+00  0.1000000000D+01
 ****
     47 0
 S   6 1.00       0.000000000000
      0.3047524880D+04  0.1834737132D-02
      0.4573695180D+03  0.1403732281D-01
      0.1039486850D+03  0.6884262226D-01
      0.2921015530D+02  0.2321844432D+00
      0.9286662960D+01  0.4679413484D+00
      0.3163926960D+01  0.3623119853D+00
 SP   3 1.00       0.000000000000
      0.7868272350D+01 -0.1193324198D+00  0.6899906659D-01
      0.1881288540D+01 -0.1608541517D+00  0.3164239610D+00
      0.5442492580D+00  0.1143456438D+01  0.7443082909D+00
 SP   1 1.00       0.000000000000
      0.1687144782D+00  0.1000000000D+01  0.1000000000D+01
 D   1 1.00       0.000000000000
      0.8000000000D+00  0.1000000000D+01
 ****
     48 0
 S   3 1.00       0.000000000000
      0.1873113696D+02  0.3349460434D-01
      0.2825394365D+01  0.2347269535D+00
      0.6401216923D+00  0.8137573261D+00
 S   1 1.00       0.000000000000
      0.1612777588D+00  0.1000000000D+01
 ****
     49 0
 S   3 1.00       0.000000000000
      0.1873113696D+02  0.3349460434D-01
      0.2825394365D+01  0.2347269535D+00
      0.6401216923D+00  0.8137573261D+00
 S   1 1.00       0.000000000000
      0.1612777588D+00  0.1000000000D+01
 ****
     50 0
 S   6 1.00       0.000000000000
      0.3047524880D+04  0.1834737132D-02
      0.4573695180D+03  0.1403732281D-01
      0.1039486850D+03  0.6884262226D-01
      0.2921015530D+02  0.2321844432D+00
      0.9286662960D+01  0.4679413484D+00
      0.3163926960D+01  0.3623119853D+00
 SP   3 1.00       0.000000000000
      0.7868272350D+01 -0.1193324198D+00  0.6899906659D-01
      0.1881288540D+01 -0.1608541517D+00  0.3164239610D+00
      0.5442492580D+00  0.1143456438D+01  0.7443082909D+00
 SP   1 1.00       0.000000000000
      0.1687144782D+00  0.1000000000D+01  0.1000000000D+01
 D   1 1.00       0.000000000000
      0.8000000000D+00  0.1000000000D+01
 ****
     51 0
 S   3 1.00       0.000000000000
      0.1873113696D+02  0.3349460434D-01
      0.2825394365D+01  0.2347269535D+00
      0.6401216923D+00  0.8137573261D+00
 S   1 1.00       0.000000000000
      0.1612777588D+00  0.1000000000D+01
 ****
     52 0
 S   3 1.00       0.000000000000
      0.1873113696D+02  0.3349460434D-01
      0.2825394365D+01  0.2347269535D+00
      0.6401216923D+00  0.8137573261D+00
 S   1 1.00       0.000000000000
      0.1612777588D+00  0.1000000000D+01
 ****
     53 0
 S   6 1.00       0.000000000000
      0.3047524880D+04  0.1834737132D-02
      0.4573695180D+03  0.1403732281D-01
      0.1039486850D+03  0.6884262226D-01
      0.2921015530D+02  0.2321844432D+00
      0.9286662960D+01  0.4679413484D+00
      0.3163926960D+01  0.3623119853D+00
 SP   3 1.00       0.000000000000
      0.7868272350D+01 -0.1193324198D+00  0.6899906659D-01
      0.1881288540D+01 -0.1608541517D+00  0.3164239610D+00
      0.5442492580D+00  0.1143456438D+01  0.7443082909D+00
 SP   1 1.00       0.000000000000
      0.1687144782D+00  0.1000000000D+01  0.1000000000D+01
 D   1 1.00       0.000000000000
      0.8000000000D+00  0.1000000000D+01
 ****
     54 0
 S   3 1.00       0.000000000000
      0.1873113696D+02  0.3349460434D-01
      0.2825394365D+01  0.2347269535D+00
      0.6401216923D+00  0.8137573261D+00
 S   1 1.00       0.000000000000
      0.1612777588D+00  0.1000000000D+01
 ****
     55 0
 S   6 1.00       0.000000000000
      0.3047524880D+04  0.1834737132D-02
      0.4573695180D+03  0.1403732281D-01
      0.1039486850D+03  0.6884262226D-01
      0.2921015530D+02  0.2321844432D+00
      0.9286662960D+01  0.4679413484D+00
      0.3163926960D+01  0.3623119853D+00
 SP   3 1.00       0.000000000000
      0.7868272350D+01 -0.1193324198D+00  0.6899906659D-01
      0.1881288540D+01 -0.1608541517D+00  0.3164239610D+00
      0.5442492580D+00  0.1143456438D+01  0.7443082909D+00
 SP   1 1.00       0.000000000000
      0.1687144782D+00  0.1000000000D+01  0.1000000000D+01
 D   1 1.00       0.000000000000
      0.8000000000D+00  0.1000000000D+01
 ****
     56 0
 S   3 1.00       0.000000000000
      0.1873113696D+02  0.3349460434D-01
      0.2825394365D+01  0.2347269535D+00
      0.6401216923D+00  0.8137573261D+00
 S   1 1.00       0.000000000000
      0.1612777588D+00  0.1000000000D+01
 ****
     57 0
 S   3 1.00       0.000000000000
      0.1873113696D+02  0.3349460434D-01
      0.2825394365D+01  0.2347269535D+00
      0.6401216923D+00  0.8137573261D+00
 S   1 1.00       0.000000000000
      0.1612777588D+00  0.1000000000D+01
 ****
     58 0
 S   3 1.00       0.000000000000
      0.1873113696D+02  0.3349460434D-01
      0.2825394365D+01  0.2347269535D+00
      0.6401216923D+00  0.8137573261D+00
 S   1 1.00       0.000000000000
      0.1612777588D+00  0.1000000000D+01
 ****
     59 0
 S   6 1.00       0.000000000000
      0.3047524880D+04  0.1834737132D-02
      0.4573695180D+03  0.1403732281D-01
      0.1039486850D+03  0.6884262226D-01
      0.2921015530D+02  0.2321844432D+00
      0.9286662960D+01  0.4679413484D+00
      0.3163926960D+01  0.3623119853D+00
 SP   3 1.00       0.000000000000
      0.7868272350D+01 -0.1193324198D+00  0.6899906659D-01
      0.1881288540D+01 -0.1608541517D+00  0.3164239610D+00
      0.5442492580D+00  0.1143456438D+01  0.7443082909D+00
 SP   1 1.00       0.000000000000
      0.1687144782D+00  0.1000000000D+01  0.1000000000D+01
 D   1 1.00       0.000000000000
      0.8000000000D+00  0.1000000000D+01
 ****
     60 0
 S   3 1.00       0.000000000000
      0.1873113696D+02  0.3349460434D-01
      0.2825394365D+01  0.2347269535D+00
      0.6401216923D+00  0.8137573261D+00
 S   1 1.00       0.000000000000
      0.1612777588D+00  0.1000000000D+01
 ****
     61 0
 S   3 1.00       0.000000000000
      0.1873113696D+02  0.3349460434D-01
      0.2825394365D+01  0.2347269535D+00
      0.6401216923D+00  0.8137573261D+00
 S   1 1.00       0.000000000000
      0.1612777588D+00  0.1000000000D+01
 ****
     62 0
 S   6 1.00       0.000000000000
      0.3047524880D+04  0.1834737132D-02
      0.4573695180D+03  0.1403732281D-01
      0.1039486850D+03  0.6884262226D-01
      0.2921015530D+02  0.2321844432D+00
      0.9286662960D+01  0.4679413484D+00
      0.3163926960D+01  0.3623119853D+00
 SP   3 1.00       0.000000000000
      0.7868272350D+01 -0.1193324198D+00  0.6899906659D-01
      0.1881288540D+01 -0.1608541517D+00  0.3164239610D+00
      0.5442492580D+00  0.1143456438D+01  0.7443082909D+00
 SP   1 1.00       0.000000000000
      0.1687144782D+00  0.1000000000D+01  0.1000000000D+01
 D   1 1.00       0.000000000000
      0.8000000000D+00  0.1000000000D+01
 ****
     63 0
 S   3 1.00       0.000000000000
      0.1873113696D+02  0.3349460434D-01
      0.2825394365D+01  0.2347269535D+00
      0.6401216923D+00  0.8137573261D+00
 S   1 1.00       0.000000000000
      0.1612777588D+00  0.1000000000D+01
 ****
     64 0
 S   3 1.00       0.000000000000
      0.1873113696D+02  0.3349460434D-01
      0.2825394365D+01  0.2347269535D+00
      0.6401216923D+00  0.8137573261D+00
 S   1 1.00       0.000000000000
      0.1612777588D+00  0.1000000000D+01
 ****
     65 0
 S   6 1.00       0.000000000000
      0.3047524880D+04  0.1834737132D-02
      0.4573695180D+03  0.1403732281D-01
      0.1039486850D+03  0.6884262226D-01
      0.2921015530D+02  0.2321844432D+00
      0.9286662960D+01  0.4679413484D+00
      0.3163926960D+01  0.3623119853D+00
 SP   3 1.00       0.000000000000
      0.7868272350D+01 -0.1193324198D+00  0.6899906659D-01
      0.1881288540D+01 -0.1608541517D+00  0.3164239610D+00
      0.5442492580D+00  0.1143456438D+01  0.7443082909D+00
 SP   1 1.00       0.000000000000
      0.1687144782D+00  0.1000000000D+01  0.1000000000D+01
 D   1 1.00       0.000000000000
      0.8000000000D+00  0.1000000000D+01
 ****
     66 0
 S   3 1.00       0.000000000000
      0.1873113696D+02  0.3349460434D-01
      0.2825394365D+01  0.2347269535D+00
      0.6401216923D+00  0.8137573261D+00
 S   1 1.00       0.000000000000
      0.1612777588D+00  0.1000000000D+01
 ****
     67 0
 S   6 1.00       0.000000000000
      0.3047524880D+04  0.1834737132D-02
      0.4573695180D+03  0.1403732281D-01
      0.1039486850D+03  0.6884262226D-01
      0.2921015530D+02  0.2321844432D+00
      0.9286662960D+01  0.4679413484D+00
      0.3163926960D+01  0.3623119853D+00
 SP   3 1.00       0.000000000000
      0.7868272350D+01 -0.1193324198D+00  0.6899906659D-01
      0.1881288540D+01 -0.1608541517D+00  0.3164239610D+00
      0.5442492580D+00  0.1143456438D+01  0.7443082909D+00
 SP   1 1.00       0.000000000000
      0.1687144782D+00  0.1000000000D+01  0.1000000000D+01
 D   1 1.00       0.000000000000
      0.8000000000D+00  0.1000000000D+01
 ****
     68 0
 S   3 1.00       0.000000000000
      0.1873113696D+02  0.3349460434D-01
      0.2825394365D+01  0.2347269535D+00
      0.6401216923D+00  0.8137573261D+00
 S   1 1.00       0.000000000000
      0.1612777588D+00  0.1000000000D+01
 ****
     69 0
 S   3 1.00       0.000000000000
      0.1873113696D+02  0.3349460434D-01
      0.2825394365D+01  0.2347269535D+00
      0.6401216923D+00  0.8137573261D+00
 S   1 1.00       0.000000000000
      0.1612777588D+00  0.1000000000D+01
 ****
     70 0
 S   3 1.00       0.000000000000
      0.1873113696D+02  0.3349460434D-01
      0.2825394365D+01  0.2347269535D+00
      0.6401216923D+00  0.8137573261D+00
 S   1 1.00       0.000000000000
      0.1612777588D+00  0.1000000000D+01
 ****
     71 0
 S   6 1.00       0.000000000000
      0.3047524880D+04  0.1834737132D-02
      0.4573695180D+03  0.1403732281D-01
      0.1039486850D+03  0.6884262226D-01
      0.2921015530D+02  0.2321844432D+00
      0.9286662960D+01  0.4679413484D+00
      0.3163926960D+01  0.3623119853D+00
 SP   3 1.00       0.000000000000
      0.7868272350D+01 -0.1193324198D+00  0.6899906659D-01
      0.1881288540D+01 -0.1608541517D+00  0.3164239610D+00
      0.5442492580D+00  0.1143456438D+01  0.7443082909D+00
 SP   1 1.00       0.000000000000
      0.1687144782D+00  0.1000000000D+01  0.1000000000D+01
 D   1 1.00       0.000000000000
      0.8000000000D+00  0.1000000000D+01
 ****
     72 0
 S   3 1.00       0.000000000000
      0.1873113696D+02  0.3349460434D-01
      0.2825394365D+01  0.2347269535D+00
      0.6401216923D+00  0.8137573261D+00
 S   1 1.00       0.000000000000
      0.1612777588D+00  0.1000000000D+01
 ****
     73 0
 S   3 1.00       0.000000000000
      0.1873113696D+02  0.3349460434D-01
      0.2825394365D+01  0.2347269535D+00
      0.6401216923D+00  0.8137573261D+00
 S   1 1.00       0.000000000000
      0.1612777588D+00  0.1000000000D+01
 ****
     74 0
 S   3 1.00       0.000000000000
      0.1873113696D+02  0.3349460434D-01
      0.2825394365D+01  0.2347269535D+00
      0.6401216923D+00  0.8137573261D+00
 S   1 1.00       0.000000000000
      0.1612777588D+00  0.1000000000D+01
 ****

 AO basis set (Overlap normalization):
 Atom O1       Shell     1 S   6     bf    1 -     1         -7.079645946926         -6.807142449687         -7.784987000814
      0.5484671660D+04  0.1831074430D-02
      0.8252349460D+03  0.1395017220D-01
      0.1880469580D+03  0.6844507810D-01
      0.5296450000D+02  0.2327143360D+00
      0.1689757040D+02  0.4701928980D+00
      0.5799635340D+01  0.3585208530D+00
 Atom O1       Shell     2 SP   3    bf    2 -     5         -7.079645946926         -6.807142449687         -7.784987000814
      0.1553961625D+02 -0.1107775495D+00  0.7087426823D-01
      0.3599933586D+01 -0.1480262627D+00  0.3397528391D+00
      0.1013761750D+01  0.1130767015D+01  0.7271585773D+00
 Atom O1       Shell     3 SP   1    bf    6 -     9         -7.079645946926         -6.807142449687         -7.784987000814
      0.2700058226D+00  0.1000000000D+01  0.1000000000D+01
 Atom O1       Shell     4 D   1     bf   10 -    15         -7.079645946926         -6.807142449687         -7.784987000814
      0.8000000000D+00  0.1000000000D+01
 Atom H2       Shell     5 S   3     bf   16 -    16         -7.362578445850         -8.398138029870         -6.934194539060
      0.1873113696D+02  0.3349460434D-01
      0.2825394365D+01  0.2347269535D+00
      0.6401216923D+00  0.8137573261D+00
 Atom H2       Shell     6 S   1     bf   17 -    17         -7.362578445850         -8.398138029870         -6.934194539060
      0.1612777588D+00  0.1000000000D+01
 Atom C3       Shell     7 S   6     bf   18 -    18          3.024486852456          3.900041416181          0.000000000000
      0.3047524880D+04  0.1834737132D-02
      0.4573695180D+03  0.1403732281D-01
      0.1039486850D+03  0.6884262226D-01
      0.2921015530D+02  0.2321844432D+00
      0.9286662960D+01  0.4679413484D+00
      0.3163926960D+01  0.3623119853D+00
 Atom C3       Shell     8 SP   3    bf   19 -    22          3.024486852456          3.900041416181          0.000000000000
      0.7868272350D+01 -0.1193324198D+00  0.6899906659D-01
      0.1881288540D+01 -0.1608541517D+00  0.3164239610D+00
      0.5442492580D+00  0.1143456438D+01  0.7443082909D+00
 Atom C3       Shell     9 SP   1    bf   23 -    26          3.024486852456          3.900041416181          0.000000000000
      0.1687144782D+00  0.1000000000D+01  0.1000000000D+01
 Atom C3       Shell    10 D   1     bf   27 -    32          3.024486852456          3.900041416181          0.000000000000
      0.8000000000D+00  0.1000000000D+01
 Atom C4       Shell    11 S   6     bf   33 -    33          2.508357311035          1.149244884564          0.892031463822
      0.3047524880D+04  0.1834737132D-02
      0.4573695180D+03  0.1403732281D-01
      0.1039486850D+03  0.6884262226D-01
      0.2921015530D+02  0.2321844432D+00
      0.9286662960D+01  0.4679413484D+00
      0.3163926960D+01  0.3623119853D+00
 Atom C4       Shell    12 SP   3    bf   34 -    37          2.508357311035          1.149244884564          0.892031463822
      0.7868272350D+01 -0.1193324198D+00  0.6899906659D-01
      0.1881288540D+01 -0.1608541517D+00  0.3164239610D+00
      0.5442492580D+00  0.1143456438D+01  0.7443082909D+00
 Atom C4       Shell    13 SP   1    bf   38 -    41          2.508357311035          1.149244884564          0.892031463822
      0.1687144782D+00  0.1000000000D+01  0.1000000000D+01
 Atom C4       Shell    14 D   1     bf   42 -    47          2.508357311035          1.149244884564          0.892031463822
      0.8000000000D+00  0.1000000000D+01
 Atom H5       Shell    15 S   3     bf   48 -    48          4.003378878778          0.000000000000          0.000000000000
      0.1873113696D+02  0.3349460434D-01
      0.2825394365D+01  0.2347269535D+00
      0.6401216923D+00  0.8137573261D+00
 Atom H5       Shell    16 S   1     bf   49 -    49          4.003378878778          0.000000000000          0.000000000000
      0.1612777588D+00  0.1000000000D+01
 Atom C6       Shell    17 S   6     bf   50 -    50          0.000000000000          0.000000000000          0.000000000000
      0.3047524880D+04  0.1834737132D-02
      0.4573695180D+03  0.1403732281D-01
      0.1039486850D+03  0.6884262226D-01
      0.2921015530D+02  0.2321844432D+00
      0.9286662960D+01  0.4679413484D+00
      0.3163926960D+01  0.3623119853D+00
 Atom C6       Shell    18 SP   3    bf   51 -    54          0.000000000000          0.000000000000          0.000000000000
      0.7868272350D+01 -0.1193324198D+00  0.6899906659D-01
      0.1881288540D+01 -0.1608541517D+00  0.3164239610D+00
      0.5442492580D+00  0.1143456438D+01  0.7443082909D+00
 Atom C6       Shell    19 SP   1    bf   55 -    58          0.000000000000          0.000000000000          0.000000000000
      0.1687144782D+00  0.1000000000D+01  0.1000000000D+01
 Atom C6       Shell    20 D   1     bf   59 -    64          0.000000000000          0.000000000000          0.000000000000
      0.8000000000D+00  0.1000000000D+01
 Atom H7       Shell    21 S   3     bf   65 -    65         -1.574524576030          1.090981887784          0.803538461403
      0.1873113696D+02  0.3349460434D-01
      0.2825394365D+01  0.2347269535D+00
      0.6401216923D+00  0.8137573261D+00
 Atom H7       Shell    22 S   1     bf   66 -    66         -1.574524576030          1.090981887784          0.803538461403
      0.1612777588D+00  0.1000000000D+01
 Atom C8       Shell    23 S   6     bf   67 -    67         -0.157355491976          0.098323849091         -2.925453203332
      0.3047524880D+04  0.1834737132D-02
      0.4573695180D+03  0.1403732281D-01
      0.1039486850D+03  0.6884262226D-01
      0.2921015530D+02  0.2321844432D+00
      0.9286662960D+01  0.4679413484D+00
      0.3163926960D+01  0.3623119853D+00
 Atom C8       Shell    24 SP   3    bf   68 -    71         -0.157355491976          0.098323849091         -2.925453203332
      0.7868272350D+01 -0.1193324198D+00  0.6899906659D-01
      0.1881288540D+01 -0.1608541517D+00  0.3164239610D+00
      0.5442492580D+00  0.1143456438D+01  0.7443082909D+00
 Atom C8       Shell    25 SP   1    bf   72 -    75         -0.157355491976          0.098323849091         -2.925453203332
      0.1687144782D+00  0.1000000000D+01  0.1000000000D+01
 Atom C8       Shell    26 D   1     bf   76 -    81         -0.157355491976          0.098323849091         -2.925453203332
      0.8000000000D+00  0.1000000000D+01
 Atom H9       Shell    27 S   3     bf   82 -    82          1.312112121854         -1.213216857375         -3.605645819638
      0.1873113696D+02  0.3349460434D-01
      0.2825394365D+01  0.2347269535D+00
      0.6401216923D+00  0.8137573261D+00
 Atom H9       Shell    28 S   1     bf   83 -    83          1.312112121854         -1.213216857375         -3.605645819638
      0.1612777588D+00  0.1000000000D+01
 Atom C10      Shell    29 S   6     bf   84 -    84          5.643434943008          4.382230229036          1.300433047435
      0.3047524880D+04  0.1834737132D-02
      0.4573695180D+03  0.1403732281D-01
      0.1039486850D+03  0.6884262226D-01
      0.2921015530D+02  0.2321844432D+00
      0.9286662960D+01  0.4679413484D+00
      0.3163926960D+01  0.3623119853D+00
 Atom C10      Shell    30 SP   3    bf   85 -    88          5.643434943008          4.382230229036          1.300433047435
      0.7868272350D+01 -0.1193324198D+00  0.6899906659D-01
      0.1881288540D+01 -0.1608541517D+00  0.3164239610D+00
      0.5442492580D+00  0.1143456438D+01  0.7443082909D+00
 Atom C10      Shell    31 SP   1    bf   89 -    92          5.643434943008          4.382230229036          1.300433047435
      0.1687144782D+00  0.1000000000D+01  0.1000000000D+01
 Atom C10      Shell    32 D   1     bf   93 -    98          5.643434943008          4.382230229036          1.300433047435
      0.8000000000D+00  0.1000000000D+01
 Atom H11      Shell    33 S   3     bf   99 -    99          7.041698167479          3.299898562625          0.200924412983
      0.1873113696D+02  0.3349460434D-01
      0.2825394365D+01  0.2347269535D+00
      0.6401216923D+00  0.8137573261D+00
 Atom H11      Shell    34 S   1     bf  100 -   100          7.041698167479          3.299898562625          0.200924412983
      0.1612777588D+00  0.1000000000D+01
 Atom C12      Shell    35 S   6     bf  101 -   101          3.012375559876          3.836429058253         -2.914519323516
      0.3047524880D+04  0.1834737132D-02
      0.4573695180D+03  0.1403732281D-01
      0.1039486850D+03  0.6884262226D-01
      0.2921015530D+02  0.2321844432D+00
      0.9286662960D+01  0.4679413484D+00
      0.3163926960D+01  0.3623119853D+00
 Atom C12      Shell    36 SP   3    bf  102 -   105          3.012375559876          3.836429058253         -2.914519323516
      0.7868272350D+01 -0.1193324198D+00  0.6899906659D-01
      0.1881288540D+01 -0.1608541517D+00  0.3164239610D+00
      0.5442492580D+00  0.1143456438D+01  0.7443082909D+00
 Atom C12      Shell    37 SP   1    bf  106 -   109          3.012375559876          3.836429058253         -2.914519323516
      0.1687144782D+00  0.1000000000D+01  0.1000000000D+01
 Atom C12      Shell    38 D   1     bf  110 -   115          3.012375559876          3.836429058253         -2.914519323516
      0.8000000000D+00  0.1000000000D+01
 Atom H13      Shell    39 S   3     bf  116 -   116          4.608376117516          2.671512164643         -3.558559778146
      0.1873113696D+02  0.3349460434D-01
      0.2825394365D+01  0.2347269535D+00
      0.6401216923D+00  0.8137573261D+00
 Atom H13      Shell    40 S   1     bf  117 -   117          4.608376117516          2.671512164643         -3.558559778146
      0.1612777588D+00  0.1000000000D+01
 Atom H14      Shell    41 S   3     bf  118 -   118          3.295741391900          5.718690092613         -3.724289553685
      0.1873113696D+02  0.3349460434D-01
      0.2825394365D+01  0.2347269535D+00
      0.6401216923D+00  0.8137573261D+00
 Atom H14      Shell    42 S   1     bf  119 -   119          3.295741391900          5.718690092613         -3.724289553685
      0.1612777588D+00  0.1000000000D+01
 Atom C15      Shell    43 S   6     bf  120 -   120         -2.723194303549         -0.959864676246         -3.970082527926
      0.3047524880D+04  0.1834737132D-02
      0.4573695180D+03  0.1403732281D-01
      0.1039486850D+03  0.6884262226D-01
      0.2921015530D+02  0.2321844432D+00
      0.9286662960D+01  0.4679413484D+00
      0.3163926960D+01  0.3623119853D+00
 Atom C15      Shell    44 SP   3    bf  121 -   124         -2.723194303549         -0.959864676246         -3.970082527926
      0.7868272350D+01 -0.1193324198D+00  0.6899906659D-01
      0.1881288540D+01 -0.1608541517D+00  0.3164239610D+00
      0.5442492580D+00  0.1143456438D+01  0.7443082909D+00
 Atom C15      Shell    45 SP   1    bf  125 -   128         -2.723194303549         -0.959864676246         -3.970082527926
      0.1687144782D+00  0.1000000000D+01  0.1000000000D+01
 Atom C15      Shell    46 D   1     bf  129 -   134         -2.723194303549         -0.959864676246         -3.970082527926
      0.8000000000D+00  0.1000000000D+01
 Atom C16      Shell    47 S   6     bf  135 -   135          3.098484634984          1.195390050311          3.733424017380
      0.3047524880D+04  0.1834737132D-02
      0.4573695180D+03  0.1403732281D-01
      0.1039486850D+03  0.6884262226D-01
      0.2921015530D+02  0.2321844432D+00
      0.9286662960D+01  0.4679413484D+00
      0.3163926960D+01  0.3623119853D+00
 Atom C16      Shell    48 SP   3    bf  136 -   139          3.098484634984          1.195390050311          3.733424017380
      0.7868272350D+01 -0.1193324198D+00  0.6899906659D-01
      0.1881288540D+01 -0.1608541517D+00  0.3164239610D+00
      0.5442492580D+00  0.1143456438D+01  0.7443082909D+00
 Atom C16      Shell    49 SP   1    bf  140 -   143          3.098484634984          1.195390050311          3.733424017380
      0.1687144782D+00  0.1000000000D+01  0.1000000000D+01
 Atom C16      Shell    50 D   1     bf  144 -   149          3.098484634984          1.195390050311          3.733424017380
      0.8000000000D+00  0.1000000000D+01
 Atom H17      Shell    51 S   3     bf  150 -   150          3.571373576416         -0.676638551675          4.475256079736
      0.1873113696D+02  0.3349460434D-01
      0.2825394365D+01  0.2347269535D+00
      0.6401216923D+00  0.8137573261D+00
 Atom H17      Shell    52 S   1     bf  151 -   151          3.571373576416         -0.676638551675          4.475256079736
      0.1612777588D+00  0.1000000000D+01
 Atom H18      Shell    53 S   3     bf  152 -   152          1.458951779229          1.867113613288          4.809979452407
      0.1873113696D+02  0.3349460434D-01
      0.2825394365D+01  0.2347269535D+00
      0.6401216923D+00  0.8137573261D+00
 Atom H18      Shell    54 S   1     bf  153 -   153          1.458951779229          1.867113613288          4.809979452407
      0.1612777588D+00  0.1000000000D+01
 Atom C19      Shell    55 S   6     bf  154 -   154          0.524041257822          2.741933621567         -3.967860701323
      0.3047524880D+04  0.1834737132D-02
      0.4573695180D+03  0.1403732281D-01
      0.1039486850D+03  0.6884262226D-01
      0.2921015530D+02  0.2321844432D+00
      0.9286662960D+01  0.4679413484D+00
      0.3163926960D+01  0.3623119853D+00
 Atom C19      Shell    56 SP   3    bf  155 -   158          0.524041257822          2.741933621567         -3.967860701323
      0.7868272350D+01 -0.1193324198D+00  0.6899906659D-01
      0.1881288540D+01 -0.1608541517D+00  0.3164239610D+00
      0.5442492580D+00  0.1143456438D+01  0.7443082909D+00
 Atom C19      Shell    57 SP   1    bf  159 -   162          0.524041257822          2.741933621567         -3.967860701323
      0.1687144782D+00  0.1000000000D+01  0.1000000000D+01
 Atom C19      Shell    58 D   1     bf  163 -   168          0.524041257822          2.741933621567         -3.967860701323
      0.8000000000D+00  0.1000000000D+01
 Atom H20      Shell    59 S   3     bf  169 -   169         -1.005645332719          4.074399832421         -3.558190865810
      0.1873113696D+02  0.3349460434D-01
      0.2825394365D+01  0.2347269535D+00
      0.6401216923D+00  0.8137573261D+00
 Atom H20      Shell    60 S   1     bf  170 -   170         -1.005645332719          4.074399832421         -3.558190865810
      0.1612777588D+00  0.1000000000D+01
 Atom H21      Shell    61 S   3     bf  171 -   171          0.667912420003          2.661127306961         -6.032188344818
      0.1873113696D+02  0.3349460434D-01
      0.2825394365D+01  0.2347269535D+00
      0.6401216923D+00  0.8137573261D+00
 Atom H21      Shell    62 S   1     bf  172 -   172          0.667912420003          2.661127306961         -6.032188344818
      0.1612777588D+00  0.1000000000D+01
 Atom C22      Shell    63 S   6     bf  173 -   173          5.345862187711          3.072529359933          3.942720049413
      0.3047524880D+04  0.1834737132D-02
      0.4573695180D+03  0.1403732281D-01
      0.1039486850D+03  0.6884262226D-01
      0.2921015530D+02  0.2321844432D+00
      0.9286662960D+01  0.4679413484D+00
      0.3163926960D+01  0.3623119853D+00
 Atom C22      Shell    64 SP   3    bf  174 -   177          5.345862187711          3.072529359933          3.942720049413
      0.7868272350D+01 -0.1193324198D+00  0.6899906659D-01
      0.1881288540D+01 -0.1608541517D+00  0.3164239610D+00
      0.5442492580D+00  0.1143456438D+01  0.7443082909D+00
 Atom C22      Shell    65 SP   1    bf  178 -   181          5.345862187711          3.072529359933          3.942720049413
      0.1687144782D+00  0.1000000000D+01  0.1000000000D+01
 Atom C22      Shell    66 D   1     bf  182 -   187          5.345862187711          3.072529359933          3.942720049413
      0.8000000000D+00  0.1000000000D+01
 Atom H23      Shell    67 S   3     bf  188 -   188          4.996484895948          4.487901881353          5.414926292149
      0.1873113696D+02  0.3349460434D-01
      0.2825394365D+01  0.2347269535D+00
      0.6401216923D+00  0.8137573261D+00
 Atom H23      Shell    68 S   1     bf  189 -   189          4.996484895948          4.487901881353          5.414926292149
      0.1612777588D+00  0.1000000000D+01
 Atom H24      Shell    69 S   3     bf  190 -   190          7.082405797457          2.089843481632          4.483749850683
      0.1873113696D+02  0.3349460434D-01
      0.2825394365D+01  0.2347269535D+00
      0.6401216923D+00  0.8137573261D+00
 Atom H24      Shell    70 S   1     bf  191 -   191          7.082405797457          2.089843481632          4.483749850683
      0.1612777588D+00  0.1000000000D+01
 Atom C25      Shell    71 S   6     bf  192 -   192         -0.267385722029         -2.745695688353          0.910181168390
      0.3047524880D+04  0.1834737132D-02
      0.4573695180D+03  0.1403732281D-01
      0.1039486850D+03  0.6884262226D-01
      0.2921015530D+02  0.2321844432D+00
      0.9286662960D+01  0.4679413484D+00
      0.3163926960D+01  0.3623119853D+00
 Atom C25      Shell    72 SP   3    bf  193 -   196         -0.267385722029         -2.745695688353          0.910181168390
      0.7868272350D+01 -0.1193324198D+00  0.6899906659D-01
      0.1881288540D+01 -0.1608541517D+00  0.3164239610D+00
      0.5442492580D+00  0.1143456438D+01  0.7443082909D+00
 Atom C25      Shell    73 SP   1    bf  197 -   200         -0.267385722029         -2.745695688353          0.910181168390
      0.1687144782D+00  0.1000000000D+01  0.1000000000D+01
 Atom C25      Shell    74 D   1     bf  201 -   206         -0.267385722029         -2.745695688353          0.910181168390
      0.8000000000D+00  0.1000000000D+01
 Atom H26      Shell    75 S   3     bf  207 -   207         -0.667674975915         -2.786241160931          2.945998910561
      0.1873113696D+02  0.3349460434D-01
      0.2825394365D+01  0.2347269535D+00
      0.6401216923D+00  0.8137573261D+00
 Atom H26      Shell    76 S   1     bf  208 -   208         -0.667674975915         -2.786241160931          2.945998910561
      0.1612777588D+00  0.1000000000D+01
 Atom H27      Shell    77 S   3     bf  209 -   209          1.555496507858         -3.731160408932          0.688683099129
      0.1873113696D+02  0.3349460434D-01
      0.2825394365D+01  0.2347269535D+00
      0.6401216923D+00  0.8137573261D+00
 Atom H27      Shell    78 S   1     bf  210 -   210          1.555496507858         -3.731160408932          0.688683099129
      0.1612777588D+00  0.1000000000D+01
 Atom C28      Shell    79 S   6     bf  211 -   211          6.671592866607          7.115847732810          1.524457397078
      0.3047524880D+04  0.1834737132D-02
      0.4573695180D+03  0.1403732281D-01
      0.1039486850D+03  0.6884262226D-01
      0.2921015530D+02  0.2321844432D+00
      0.9286662960D+01  0.4679413484D+00
      0.3163926960D+01  0.3623119853D+00
 Atom C28      Shell    80 SP   3    bf  212 -   215          6.671592866607          7.115847732810          1.524457397078
      0.7868272350D+01 -0.1193324198D+00  0.6899906659D-01
      0.1881288540D+01 -0.1608541517D+00  0.3164239610D+00
      0.5442492580D+00  0.1143456438D+01  0.7443082909D+00
 Atom C28      Shell    81 SP   1    bf  216 -   219          6.671592866607          7.115847732810          1.524457397078
      0.1687144782D+00  0.1000000000D+01  0.1000000000D+01
 Atom C28      Shell    82 D   1     bf  220 -   225          6.671592866607          7.115847732810          1.524457397078
      0.8000000000D+00  0.1000000000D+01
 Atom H29      Shell    83 S   3     bf  226 -   226          5.348994163112          8.172898170584          2.730420994226
      0.1873113696D+02  0.3349460434D-01
      0.2825394365D+01  0.2347269535D+00
      0.6401216923D+00  0.8137573261D+00
 Atom H29      Shell    84 S   1     bf  227 -   227          5.348994163112          8.172898170584          2.730420994226
      0.1612777588D+00  0.1000000000D+01
 Atom C30      Shell    85 S   6     bf  228 -   228          1.031641123499          5.788102171220          1.002067155184
      0.3047524880D+04  0.1834737132D-02
      0.4573695180D+03  0.1403732281D-01
      0.1039486850D+03  0.6884262226D-01
      0.2921015530D+02  0.2321844432D+00
      0.9286662960D+01  0.4679413484D+00
      0.3163926960D+01  0.3623119853D+00
 Atom C30      Shell    86 SP   3    bf  229 -   232          1.031641123499          5.788102171220          1.002067155184
      0.7868272350D+01 -0.1193324198D+00  0.6899906659D-01
      0.1881288540D+01 -0.1608541517D+00  0.3164239610D+00
      0.5442492580D+00  0.1143456438D+01  0.7443082909D+00
 Atom C30      Shell    87 SP   1    bf  233 -   236          1.031641123499          5.788102171220          1.002067155184
      0.1687144782D+00  0.1000000000D+01  0.1000000000D+01
 Atom C30      Shell    88 D   1     bf  237 -   242          1.031641123499          5.788102171220          1.002067155184
      0.8000000000D+00  0.1000000000D+01
 Atom H31      Shell    89 S   3     bf  243 -   243          1.379539836844          7.685326000408          0.253364275376
      0.1873113696D+02  0.3349460434D-01
      0.2825394365D+01  0.2347269535D+00
      0.6401216923D+00  0.8137573261D+00
 Atom H31      Shell    90 S   1     bf  244 -   244          1.379539836844          7.685326000408          0.253364275376
      0.1612777588D+00  0.1000000000D+01
 Atom H32      Shell    91 S   3     bf  245 -   245         -0.890036914581          5.262917591294          0.458341886353
      0.1873113696D+02  0.3349460434D-01
      0.2825394365D+01  0.2347269535D+00
      0.6401216923D+00  0.8137573261D+00
 Atom H32      Shell    92 S   1     bf  246 -   246         -0.890036914581          5.262917591294          0.458341886353
      0.1612777588D+00  0.1000000000D+01
 Atom H33      Shell    93 S   3     bf  247 -   247          1.064338846907          5.927279272585          3.064976313552
      0.1873113696D+02  0.3349460434D-01
      0.2825394365D+01  0.2347269535D+00
      0.6401216923D+00  0.8137573261D+00
 Atom H33      Shell    94 S   1     bf  248 -   248          1.064338846907          5.927279272585          3.064976313552
      0.1612777588D+00  0.1000000000D+01
 Atom C34      Shell    95 S   6     bf  249 -   249         -3.415927104677         -3.426955621978         -2.610017055875
      0.3047524880D+04  0.1834737132D-02
      0.4573695180D+03  0.1403732281D-01
      0.1039486850D+03  0.6884262226D-01
      0.2921015530D+02  0.2321844432D+00
      0.9286662960D+01  0.4679413484D+00
      0.3163926960D+01  0.3623119853D+00
 Atom C34      Shell    96 SP   3    bf  250 -   253         -3.415927104677         -3.426955621978         -2.610017055875
      0.7868272350D+01 -0.1193324198D+00  0.6899906659D-01
      0.1881288540D+01 -0.1608541517D+00  0.3164239610D+00
      0.5442492580D+00  0.1143456438D+01  0.7443082909D+00
 Atom C34      Shell    97 SP   1    bf  254 -   257         -3.415927104677         -3.426955621978         -2.610017055875
      0.1687144782D+00  0.1000000000D+01  0.1000000000D+01
 Atom C34      Shell    98 D   1     bf  258 -   263         -3.415927104677         -3.426955621978         -2.610017055875
      0.8000000000D+00  0.1000000000D+01
 Atom C35      Shell    99 S   6     bf  264 -   264         -2.395990642489         -1.555660347114         -6.839746537165
      0.3047524880D+04  0.1834737132D-02
      0.4573695180D+03  0.1403732281D-01
      0.1039486850D+03  0.6884262226D-01
      0.2921015530D+02  0.2321844432D+00
      0.9286662960D+01  0.4679413484D+00
      0.3163926960D+01  0.3623119853D+00
 Atom C35      Shell   100 SP   3    bf  265 -   268         -2.395990642489         -1.555660347114         -6.839746537165
      0.7868272350D+01 -0.1193324198D+00  0.6899906659D-01
      0.1881288540D+01 -0.1608541517D+00  0.3164239610D+00
      0.5442492580D+00  0.1143456438D+01  0.7443082909D+00
 Atom C35      Shell   101 SP   1    bf  269 -   272         -2.395990642489         -1.555660347114         -6.839746537165
      0.1687144782D+00  0.1000000000D+01  0.1000000000D+01
 Atom C35      Shell   102 D   1     bf  273 -   278         -2.395990642489         -1.555660347114         -6.839746537165
      0.8000000000D+00  0.1000000000D+01
 Atom H36      Shell   103 S   3     bf  279 -   279         -0.631161423014         -2.623160781430         -7.082042535403
      0.1873113696D+02  0.3349460434D-01
      0.2825394365D+01  0.2347269535D+00
      0.6401216923D+00  0.8137573261D+00
 Atom H36      Shell   104 S   1     bf  280 -   280         -0.631161423014         -2.623160781430         -7.082042535403
      0.1612777588D+00  0.1000000000D+01
 Atom H37      Shell   105 S   3     bf  281 -   281         -2.160040646961          0.213721373793         -7.888019650586
      0.1873113696D+02  0.3349460434D-01
      0.2825394365D+01  0.2347269535D+00
      0.6401216923D+00  0.8137573261D+00
 Atom H37      Shell   106 S   1     bf  282 -   282         -2.160040646961          0.213721373793         -7.888019650586
      0.1612777588D+00  0.1000000000D+01
 Atom C38      Shell   107 S   6     bf  283 -   283         -2.281163380442         -4.189446888514         -0.475870173379
      0.3047524880D+04  0.1834737132D-02
      0.4573695180D+03  0.1403732281D-01
      0.1039486850D+03  0.6884262226D-01
      0.2921015530D+02  0.2321844432D+00
      0.9286662960D+01  0.4679413484D+00
      0.3163926960D+01  0.3623119853D+00
 Atom C38      Shell   108 SP   3    bf  284 -   287         -2.281163380442         -4.189446888514         -0.475870173379
      0.7868272350D+01 -0.1193324198D+00  0.6899906659D-01
      0.1881288540D+01 -0.1608541517D+00  0.3164239610D+00
      0.5442492580D+00  0.1143456438D+01  0.7443082909D+00
 Atom C38      Shell   109 SP   1    bf  288 -   291         -2.281163380442         -4.189446888514         -0.475870173379
      0.1687144782D+00  0.1000000000D+01  0.1000000000D+01
 Atom C38      Shell   110 D   1     bf  292 -   297         -2.281163380442         -4.189446888514         -0.475870173379
      0.8000000000D+00  0.1000000000D+01
 Atom H39      Shell   111 S   3     bf  298 -   298         -2.845929578133         -5.991686600502          0.349145743620
      0.1873113696D+02  0.3349460434D-01
      0.2825394365D+01  0.2347269535D+00
      0.6401216923D+00  0.8137573261D+00
 Atom H39      Shell   112 S   1     bf  299 -   299         -2.845929578133         -5.991686600502          0.349145743620
      0.1612777588D+00  0.1000000000D+01
 Atom C40      Shell   113 S   6     bf  300 -   300         -4.911201404393          0.961059606772         -3.612724412478
      0.3047524880D+04  0.1834737132D-02
      0.4573695180D+03  0.1403732281D-01
      0.1039486850D+03  0.6884262226D-01
      0.2921015530D+02  0.2321844432D+00
      0.9286662960D+01  0.4679413484D+00
      0.3163926960D+01  0.3623119853D+00
 Atom C40      Shell   114 SP   3    bf  301 -   304         -4.911201404393          0.961059606772         -3.612724412478
      0.7868272350D+01 -0.1193324198D+00  0.6899906659D-01
      0.1881288540D+01 -0.1608541517D+00  0.3164239610D+00
      0.5442492580D+00  0.1143456438D+01  0.7443082909D+00
[...]
 1547 Fit      -0.000162
 1548 Fit      -0.000499
 1549 Fit       0.001604
 1550 Fit       0.002083
 1551 Fit      -0.001559
 1552 Fit       0.000536
 1553 Fit       0.002085
 1554 Fit       0.002831
 1555 Fit      -0.001139
 1556 Fit       0.000486
 1557 Fit       0.001536
 1558 Fit       0.002021
 1559 Fit      -0.001042
 1560 Fit       0.000153
 1561 Fit      -0.000759
 1562 Fit      -0.000925
 1563 Fit       0.001482
 1564 Fit       0.001314
 1565 Fit      -0.001706
 1566 Fit       0.002670
 1567 Fit       0.002531
 1568 Fit       0.000751
 1569 Fit       0.002186
 1570 Fit      -0.000329
 1571 Fit      -0.002065
 1572 Fit      -0.002025
 1573 Fit      -0.002392
 1574 Fit      -0.002473
 1575 Fit      -0.002291
 1576 Fit      -0.001982
 1577 Fit      -0.001331
 1578 Fit       0.000774
 1579 Fit      -0.001575
 1580 Fit      -0.000261
 1581 Fit      -0.000011
 1582 Fit      -0.000685
 1583 Fit      -0.001015
 1584 Fit       0.000750
 1585 Fit       0.001985
 1586 Fit       0.002281
 1587 Fit       0.001879
 1588 Fit       0.000154
 1589 Fit       0.001693
 1590 Fit       0.003048
 1591 Fit       0.003453
 1592 Fit       0.003286
 1593 Fit       0.002289
 1594 Fit       0.003887
 1595 Fit      -0.000275
 1596 Fit      -0.000119
 1597 Fit       0.001799
 1598 Fit       0.001097
 1599 Fit      -0.001147
 1600 Fit       0.002879
 1601 Fit       0.002179
 1602 Fit       0.000570
 1603 Fit      -0.001518
 1604 Fit       0.002866
 1605 Fit       0.001989
 1606 Fit       0.000713
 1607 Fit      -0.001098
 1608 Fit       0.000079
 1609 Fit      -0.000730
 1610 Fit      -0.000806
 1611 Fit      -0.001243
 1612 Fit       0.001159
 1613 Fit       0.001399
 1614 Fit      -0.000770
 1615 Fit       0.001723
 1616 Fit       0.002813
 1617 Fit       0.002460
 1618 Fit       0.001821
 1619 Fit      -0.013362
 1620 Fit      -0.005451
 1621 Fit      -0.020655
 1622 Fit      -0.019293
 1623 Fit      -0.012744
 1624 Fit      -0.024322
 1625 Fit      -0.023698
 1626 Fit      -0.018295
 1627 Fit      -0.010228
 1628 Fit      -0.001343
 1629 Fit      -0.004329
 1630 Fit      -0.026484
 1631 Fit      -0.024733
 1632 Fit      -0.019819
 1633 Fit      -0.014946
 1634 Fit      -0.012967
 1635 Fit      -0.013513
 1636 Fit      -0.013464
 1637 Fit      -0.025053
 1638 Fit      -0.025867
 1639 Fit      -0.022411
 1640 Fit      -0.020528
 1641 Fit      -0.024053
 1642 Fit       0.008448
 1643 Fit       0.015051
 1644 Fit       0.018481
 1645 Fit       0.019104
 1646 Fit      -0.002696
 1647 Fit       0.006811
 1648 Fit       0.012854
 1649 Fit       0.015955
 1650 Fit       0.016579
 1651 Fit       0.015196
 1652 Fit       0.000507
 1653 Fit       0.007340
 1654 Fit       0.010549
 1655 Fit       0.010781
 1656 Fit       0.008566
 1657 Fit      -0.002534
 1658 Fit       0.001170
 1659 Fit      -0.000310
 1660 Fit       0.003467
 1661 Fit       0.003172
 1662 Fit       0.003608
 1663 Fit       0.003495
 1664 Fit       0.003558
 1665 Fit       0.003671
 1666 Fit       0.001907
 1667 Fit       0.002765
 1668 Fit       0.002219
 1669 Fit      -0.000509
 1670 Fit      -0.000504
 1671 Fit       0.002125
 1672 Fit       0.003038
 1673 Fit       0.002495
 1674 Fit       0.002829
 1675 Fit       0.002805
 1676 Fit       0.001934
 1677 Fit       0.000782
 1678 Fit       0.002918
 1679 Fit       0.002110
 1680 Fit       0.002126
 1681 Fit       0.003556
 1682 Fit       0.002713
 1683 Fit       0.000027
 1684 Fit       0.000230
 1685 Fit       0.002147
 1686 Fit       0.003266
 1687 Fit       0.002882
 1688 Fit       0.001298
 1689 Fit      -0.000210
 1690 Fit       0.002478
 1691 Fit       0.002206
 1692 Fit       0.000593
 1693 Fit       0.001413
 1694 Fit       0.002881
 1695 Fit       0.000576
 1696 Fit       0.002147
 1697 Fit       0.001879
 1698 Fit      -0.000497
 1699 Fit       0.000584
 1700 Fit       0.001262
 1701 Fit       0.000645
 1702 Fit      -0.000445
 1703 Fit      -0.000152
 1704 Fit      -0.000231
 1705 Fit       0.000783
 1706 Fit       0.000174
 1707 Fit       0.001211
 1708 Fit       0.001503
 1709 Fit       0.002397
 1710 Fit       0.002765
 1711 Fit       0.002848
 1712 Fit       0.002318
 1713 Fit       0.002878
 1714 Fit       0.003388
 1715 Fit       0.003301
 1716 Fit       0.002990
 1717 Fit       0.003416
 1718 Fit       0.003062
 1719 Fit       0.000699
 1720 Fit       0.002348
 1721 Fit       0.001890
 1722 Fit       0.000662
 1723 Fit       0.004288
 1724 Fit       0.003462
 1725 Fit       0.002813
 1726 Fit       0.002199
 1727 Fit       0.001635
 1728 Fit       0.002796
 1729 Fit       0.002523
 1730 Fit       0.001164
 1731 Fit       0.002408
 1732 Fit       0.002002
 1733 Fit       0.002609
 1734 Fit       0.001404
 1735 Fit       0.002682
 1736 Fit       0.001161
 1737 Fit       0.000917
 1738 Fit       0.001321
 1739 Fit       0.001566
 1740 Fit       0.002420
 1741 Fit       0.001522
 1742 Fit       0.002166
 1743 Fit       0.002298
 1744 Fit       0.003037
 1745 Fit       0.003174
 1746 Fit      -0.000422
 1747 Fit      -0.000823
 1748 Fit      -0.000573
 1749 Fit       0.001285
 1750 Fit       0.000471
 1751 Fit       0.002535
 1752 Fit       0.002874
 1753 Fit       0.001919
 1754 Fit       0.000035
 1755 Fit       0.003834
 1756 Fit       0.003631
 1757 Fit       0.000839
 1758 Fit       0.000933
 1759 Fit       0.002452
 1760 Fit       0.002299
 1761 Fit       0.002672
 1762 Fit       0.002990
 1763 Fit       0.003273
 1764 Fit       0.003485
 1765 Fit       0.003070
 1766 Fit       0.003272
 1767 Fit       0.003339
 1768 Fit       0.002990
 1769 Fit       0.002835
 1770 Fit       0.002765
 1771 Fit       0.002681
 1772 Fit       0.002339
 1773 Fit       0.002678
 1774 Fit       0.003231
 1775 Fit       0.003056
 1776 Fit       0.001972
 1777 Fit       0.001141
 1778 Fit       0.001553
 1779 Fit       0.003093
 1780 Fit       0.003586
 1781 Fit       0.002915
 1782 Fit       0.002590
 1783 Fit       0.003231
 1784 Fit       0.003668
 1785 Fit       0.002480
 1786 Fit       0.003009
 1787 Fit       0.003547
 1788 Fit       0.001237
 1789 Fit       0.002542
 1790 Fit       0.003410
 1791 Fit       0.000039
 1792 Fit       0.002289
 1793 Fit       0.003011
 1794 Fit       0.002765
 1795 Fit       0.000732
 1796 Fit      -0.000223
 1797 Fit      -0.000375
 1798 Fit       0.000335
 1799 Fit      -0.000515
 1800 Fit      -0.000350
 1801 Fit       0.000941
 1802 Fit       0.001159
 1803 Fit       0.002402
 1804 Fit       0.001762
 1805 Fit       0.000441
 1806 Fit       0.002533
 1807 Fit       0.001327
 1808 Fit       0.003505
 1809 Fit       0.002042
 1810 Fit       0.003263
 1811 Fit       0.001002
 1812 Fit       0.002711
 1813 Fit       0.001278
 1814 Fit       0.003120
 1815 Fit       0.000482
 1816 Fit       0.001855
 1817 Fit       0.001941
 1818 Fit       0.004391
 1819 Fit       0.004397
 1820 Fit       0.003302
 1821 Fit       0.003453
 1822 Fit       0.002157
 1823 Fit       0.001536
 1824 Fit       0.001611
 1825 Fit       0.002468
 1826 Fit       0.000066
 1827 Fit      -0.000212
 1828 Fit       0.001537
 1829 Fit       0.002641
 1830 Fit       0.002305
 1831 Fit       0.001549
 1832 Fit       0.002496
 1833 Fit       0.002558
 1834 Fit       0.001349
 1835 Fit       0.000739
 1836 Fit       0.001469
 1837 Fit       0.001708
 1838 Fit       0.000301
 1839 Fit       0.000381
 1840 Fit       0.003400
 1841 Fit       0.000882
 1842 Fit       0.002744
 1843 Fit       0.003227
 1844 Fit       0.002574
 1845 Fit       0.000956
 1846 Fit       0.000560
 1847 Fit       0.001592
 1848 Fit       0.000631
 1849 Fit      -0.000085
 1850 Fit      -0.003514
 1851 Fit      -0.000930
 1852 Fit      -0.006335
 1853 Fit      -0.006554
 1854 Fit      -0.003053
 1855 Fit       0.000260
 1856 Fit      -0.000907
 1857 Fit      -0.000037
 1858 Fit      -0.003048
 1859 Fit      -0.002692
 1860 Fit       0.001746
 1861 Fit       0.004426
 1862 Fit       0.004742
 1863 Fit       0.002187
 1864 Fit       0.005379
 1865 Fit       0.006131
 1866 Fit       0.005264
 1867 Fit       0.007718
 1868 Fit       0.007541
 1869 Fit       0.005877
 1870 Fit       0.003819
 1871 Fit       0.005429
 1872 Fit       0.001793
 1873 Fit      -0.001096
 1874 Fit      -0.001759
 1875 Fit       0.000286
 1876 Fit      -0.001167
 1877 Fit      -0.001821
 1878 Fit      -0.001029
 1879 Fit      -0.001846
 1880 Fit      -0.001584
 1881 Fit       0.001457
 1882 Fit      -0.000368
 1883 Fit       0.001924
 1884 Fit       0.000335
 1885 Fit       0.002758
 1886 Fit       0.002245
 1887 Fit       0.000674
 1888 Fit      -0.001077
 1889 Fit       0.001411
 1890 Fit      -0.000457
 1891 Fit      -0.001571
 1892 Fit      -0.000866
 1893 Fit      -0.001262
 1894 Fit      -0.000493
 1895 Fit      -0.001289
 1896 Fit      -0.001193
 1897 Fit      -0.001686
 1898 Fit       0.002800
 1899 Fit       0.000492
 1900 Fit      -0.002680
 1901 Fit       0.003204
 1902 Fit       0.001421
 1903 Fit      -0.000080
 1904 Fit      -0.001944
 1905 Fit      -0.006109
 1906 Fit       0.001521
 1907 Fit      -0.000032
 1908 Fit      -0.001163
 1909 Fit      -0.003182
 1910 Fit      -0.000457
 1911 Fit       0.004213
 1912 Fit       0.001203
 1913 Fit       0.006018
 1914 Fit       0.003277
 1915 Fit       0.007176
 1916 Fit       0.009156
 1917 Fit       0.006465
 1918 Fit       0.011280
 1919 Fit       0.012621
 1920 Fit       0.011063
 1921 Fit       0.007746
 1922 Fit       0.015792
 1923 Fit       0.009412
 1924 Fit      -0.005302
 1925 Fit      -0.002589
 1926 Fit      -0.001401
 1927 Fit      -0.000941
 1928 Fit      -0.000793
 1929 Fit      -0.000626
 1930 Fit      -0.002001
 1931 Fit      -0.001689
 1932 Fit      -0.003060
 1933 Fit      -0.007044
 1934 Fit      -0.008762
 1935 Fit      -0.013389
 1936 Fit      -0.000702
 1937 Fit      -0.003036
 1938 Fit      -0.006659
 1939 Fit      -0.012749
 1940 Fit      -0.022694
 1941 Fit      -0.002592
 1942 Fit      -0.009040
 1943 Fit      -0.001172
 1944 Fit      -0.002585
 1945 Fit      -0.005641
 1946 Fit      -0.013099
 1947 Fit      -0.002770
 1948 Fit      -0.004984
 1949 Fit      -0.009827
 1950 Fit      -0.020758
 1951 Fit      -0.002564
 1952 Fit       0.000051
 1953 Fit      -0.000510
 1954 Fit      -0.000382
 1955 Fit      -0.000845
 1956 Fit      -0.002993
 1957 Fit      -0.012734
 1958 Fit      -0.020793
 1959 Fit      -0.015329
 1960 Fit      -0.006246
 1961 Fit      -0.001895
 1962 Fit      -0.001947
 1963 Fit      -0.002164
 1964 Fit      -0.005003
 1965 Fit      -0.009445
 1966 Fit      -0.010042
 1967 Fit      -0.004908
 1968 Fit      -0.004732
 1969 Fit      -0.000228
 1970 Fit      -0.000385
 1971 Fit      -0.000154
 1972 Fit       0.001303
 1973 Fit       0.003117
 1974 Fit       0.001758
 1975 Fit       0.002535
 1976 Fit       0.001005
 1977 Fit       0.001589
 1978 Fit      -0.000056
 1979 Fit       0.000321
 1980 Fit       0.000881
 1981 Fit      -0.000429
 1982 Fit       0.001019
 1983 Fit       0.001597
 1984 Fit      -0.000285
 1985 Fit       0.000346
 1986 Fit       0.001351
 1987 Fit       0.001467
 1988 Fit       0.000728
 1989 Fit       0.000933
 1990 Fit       0.001059
 1991 Fit       0.005675
 1992 Fit      -0.000057
 1993 Fit       0.000794
 1994 Fit       0.007681
 1995 Fit       0.004184
 1996 Fit       0.002125
 1997 Fit       0.004342
 1998 Fit       0.002988
 1999 Fit       0.002493
 2000 Fit       0.001373
 2001 Fit      -0.000752
 2002 Fit       0.000535
 2003 Fit      -0.005724
 2004 Fit       0.001208
 2005 Fit      -0.000989
 2006 Fit      -0.000999
 2007 Fit      -0.001586
 2008 Fit      -0.001712
 2009 Fit      -0.001377
 2010 Fit      -0.001686
 2011 Fit      -0.000947
 2012 Fit      -0.001150
 2013 Fit       0.000865
 2014 Fit      -0.000443
 2015 Fit       0.002110
 2016 Fit       0.001589
 2017 Fit       0.000755
 2018 Fit      -0.000688
 2019 Fit       0.001676
 2020 Fit       0.001636
 2021 Fit       0.000388
 2022 Fit      -0.001025
 2023 Fit       0.000721
 2024 Fit      -0.000417
 2025 Fit       0.000567
 2026 Fit       0.001136
 2027 Fit       0.000692
 2028 Fit       0.000317
 2029 Fit      -0.000230
 2030 Fit      -0.000013
 2031 Fit      -0.000481
 2032 Fit       0.002386
 2033 Fit       0.000166
 2034 Fit       0.002218
 2035 Fit      -0.000043
 2036 Fit       0.002097
 2037 Fit       0.003700
 2038 Fit       0.001053
 2039 Fit       0.000731
 2040 Fit       0.000216
 2041 Fit       0.002136
 2042 Fit       0.001069
 2043 Fit       0.003201
 2044 Fit       0.000636
 2045 Fit       0.003492
 2046 Fit       0.001487
 2047 Fit       0.001225
 2048 Fit       0.002023
 2049 Fit       0.001028
 2050 Fit       0.001374
 2051 Fit       0.001609
 2052 Fit       0.000654
 2053 Fit       0.000808
 2054 Fit       0.000500
 2055 Fit       0.000150
 2056 Fit       0.003423
 2057 Fit       0.001866
 2058 Fit       0.002573
 2059 Fit       0.002782
 2060 Fit       0.000570
 2061 Fit       0.001301
 2062 Fit       0.002444
 2063 Fit       0.001803
 2064 Fit       0.001615
 2065 Fit       0.002215
 2066 Fit       0.002106
 2067 Fit       0.001380
 2068 Fit       0.000516
 2069 Fit       0.001686
 2070 Fit       0.001442
 2071 Fit       0.001065
 2072 Fit       0.001033
 2073 Fit       0.000270
 2074 Fit       0.000538
 2075 Fit       0.001250
 2076 Fit       0.001377
 2077 Fit       0.001062
 2078 Fit       0.000857
 2079 Fit       0.000798
 2080 Fit       0.001189
 2081 Fit       0.001428
 2082 Fit       0.001252
 2083 Fit       0.001171
 2084 Fit       0.000945
 2085 Fit       0.000908
 2086 Fit      -0.001358
 2087 Fit      -0.001392
 2088 Fit      -0.001696
 2089 Fit      -0.001985
 2090 Fit      -0.001363
 2091 Fit      -0.001797
 2092 Fit      -0.001736
 2093 Fit      -0.001502
 2094 Fit      -0.001176
 2095 Fit      -0.000849
 2096 Fit       0.000018
 2097 Fit      -0.000378
 2098 Fit      -0.000409
 2099 Fit      -0.000815
 2100 Fit      -0.001062
 2101 Fit      -0.000898
 2102 Fit       0.000815
 2103 Fit       0.000529
 2104 Fit      -0.000102
 2105 Fit       0.000309
 2106 Fit       0.000667
 2107 Fit       0.001914
 2108 Fit       0.001568
 2109 Fit       0.000896
 2110 Fit       0.000518
 2111 Fit       0.001244
 2112 Fit       0.001737
 2113 Fit       0.002465
 2114 Fit       0.001986
 2115 Fit      -0.000160
 2116 Fit      -0.000379
 2117 Fit       0.001070
 2118 Fit       0.001453
 2119 Fit      -0.001018
 2120 Fit       0.000477
 2121 Fit       0.001630
 2122 Fit       0.002263
 2123 Fit      -0.000542
 2124 Fit       0.000686
 2125 Fit       0.001548
 2126 Fit       0.002053
 2127 Fit      -0.000396
 2128 Fit       0.000496
 2129 Fit       0.001090
 2130 Fit      -0.000605
 2131 Fit      -0.000701
 2132 Fit       0.000965
 2133 Fit       0.000812
 2134 Fit      -0.001173
 2135 Fit       0.002042
 2136 Fit       0.001817
 2137 Fit       0.000559
 2138 Fit       0.001575
 2139 Fit      -0.000089
 2140 Fit      -0.001330
 2141 Fit      -0.001287
 2142 Fit      -0.001587
 2143 Fit      -0.001686
 2144 Fit      -0.001550
 2145 Fit      -0.001348
 2146 Fit      -0.001431
 2147 Fit      -0.001180
 2148 Fit      -0.000478
 2149 Fit      -0.000966
 2150 Fit      -0.000281
 2151 Fit      -0.000596
 2152 Fit       0.000186
 2153 Fit      -0.000795
 2154 Fit      -0.000559
 2155 Fit      -0.000441
 2156 Fit       0.000583
 2157 Fit       0.001141
 2158 Fit       0.001194
 2159 Fit       0.001095
 2160 Fit       0.000704
 2161 Fit       0.001751
 2162 Fit       0.002324
 2163 Fit       0.002451
 2164 Fit       0.002631
 2165 Fit       0.001677
 2166 Fit       0.002653
 2167 Fit       0.003119
 2168 Fit      -0.000260
 2169 Fit      -0.000110
 2170 Fit       0.001175
 2171 Fit       0.000686
 2172 Fit      -0.000824
 2173 Fit       0.001910
 2174 Fit       0.002157
 2175 Fit       0.001661
 2176 Fit       0.000513
 2177 Fit      -0.000966
 2178 Fit       0.002077
 2179 Fit       0.001285
 2180 Fit       0.000106
 2181 Fit       0.001411
 2182 Fit       0.000524
 2183 Fit      -0.000574
 2184 Fit      -0.000600
 2185 Fit      -0.000899
 2186 Fit       0.000720
 2187 Fit       0.000880
 2188 Fit      -0.000455
 2189 Fit       0.001276
 2190 Fit       0.002054
 2191 Fit       0.001894
 2192 Fit       0.001306
 2193 Fit       0.000304
 2194 Fit       0.002200
 -----------------------------------------------------------------
 Leave Link  602 at Tue Mar 21 12:07:47 2017, MaxMem=    33554432 cpu:         3.2
 (Enter /home/michal/g09/l9999.exe)

 Test job not archived.
 1\1\GINC-LINUX\SP\RHF\6-31G(d)\C27H46O1\MICHAL\21-Mar-2017\0\\#P HF/6-
 31G* SCF(Conver=6) NoSymm Test Pop=mk IOp(6/33=2) GFInput GFPrint\\MEP
  - Input generated by R.E.D.-III.x MOLECULE\\0,1\O,0,-3.74638728,-3.60
 218464,-4.11963769\H,0,-3.89610871,-4.44410324,-3.66941771\C,0,1.60048
 951,2.06381303,0.\C,0,1.32736552,0.6081542,0.47204272\H,0,2.11849686,0
 .,0.\C,0,0.,0.,0.\H,0,-0.83320252,0.57732275,0.42521424\C,0,-0.0832689
 4,0.05203074,-1.54808316\H,0,0.69433983,-0.64200671,-1.90802559\C,0,2.
 98637715,2.31897636,0.68815953\H,0,3.72630618,1.74623111,0.10632462\C,
 0,1.59408049,2.03015082,-1.5422972\H,0,2.43864761,1.41370335,-1.883108
 73\H,0,1.74403123,3.02620046,-1.97080915\C,0,-1.44105236,-0.50793851,-
 2.10087719\C,0,1.63964745,0.63257317,1.9756429\H,0,1.8898895,-0.358061
 7,2.36820352\H,0,0.77204403,0.98803397,2.5453315\C,0,0.27731069,1.4509
 6878,-2.09970145\H,0,-0.53216459,2.15607953,-1.88291351\H,0,0.35344403
 ,1.40820792,-3.19209659\C,0,2.82890843,1.62591251,2.08639759\H,0,2.644
 02593,2.37489539,2.86545558\H,0,3.74784773,1.10589754,2.37269823\C,0,-
 0.14149443,-1.45295958,0.48164713\H,0,-0.35331838,-1.47441532,1.558955
 48\H,0,0.8231333,-1.97444505,0.3644354\C,0,3.53045489,3.76554444,0.806
 70811\H,0,2.8305658,4.32491144,1.44487656\C,0,0.54592097,3.06293175,0.
 5302711\H,0,0.73002104,4.06689936,0.1340746\H,0,-0.47098725,2.78501604
 ,0.24254408\H,0,0.56322386,3.1365811,1.62191561\C,0,-1.80763077,-1.813
 46681,-1.38116154\C,0,-1.26790364,-0.82322,-3.61943798\H,0,-0.33399624
 ,-1.3881169,-3.7476555\H,0,-1.14304428,0.11309648,-4.17416022\C,0,-1.2
 0713967,-2.21695981,-0.25181965\H,0,-1.50600107,-3.17066399,0.18475997
 \C,0,-2.59889585,0.50857084,-1.91177142\H,0,-2.47041935,1.3855523,-2.5
 5399965\H,0,-3.56626306,0.06639491,-2.16256873\H,0,-2.65980577,0.84941
 061,-0.87359631\C,0,-2.90221488,-2.65321614,-2.01316383\H,0,-3.0051404
 1,-3.59599333,-1.46048605\H,0,-3.87294515,-2.14153371,-1.94873977\C,0,
 -2.41503135,-1.62725704,-4.24848547\H,0,-3.35176358,-1.05611569,-4.239
 06488\H,0,-2.1894779,-1.84236053,-5.29916734\C,0,4.92144209,3.78128618
 ,1.51365628\H,0,5.13174228,2.79791972,1.94684271\H,0,5.70434933,3.9432
 9778,0.75904437\C,0,-2.64028186,-2.93442738,-3.49986718\H,0,-1.7365131
 3,-3.55930742,-3.59184649\C,0,3.62244392,4.49741042,-0.54523874\H,0,4.
 20647444,3.91168941,-1.26601325\H,0,4.12171108,5.46428296,-0.42926782\
 H,0,2.6411269,4.68808578,-0.98710378\C,0,5.08398241,4.82289805,2.63883
 5\H,0,4.31662571,4.63341269,3.40144799\H,0,6.05032997,4.64349228,3.127
 5384\C,0,5.01108426,6.28901945,2.18297481\H,0,4.02953392,6.48010869,1.
 72908913\H,0,5.752166,6.44641402,1.38565763\C,0,5.24431609,7.35789911,
 3.27770872\H,0,5.14623727,8.33047176,2.77299305\C,0,6.66106151,7.30194
 181,3.87318802\H,0,7.42559231,7.33838314,3.0881674\H,0,6.83348145,8.14
 942091,4.54646776\H,0,6.82150687,6.3866454,4.45438662\C,0,4.17776592,7
 .3153744,4.38476789\H,0,3.16559272,7.36326805,3.96598715\H,0,4.2951043
 ,8.16157001,5.07134909\H,0,4.24996077,6.39869744,4.98130805\\Version=E
 M64L-G09RevD.01\HF=-1124.074068\RMSD=4.651e-07\Dipole=0.4190944,-0.091
 9074,0.5274175\Quadrupole=-2.129839,7.5156758,-5.3858367,-0.6164985,-6
 .2913359,-3.3365245\PG=C01 [X(C27H46O1)]\\@


 IN SO FAR AS QUANTUM MECHANICS IS CORRECT, CHEMICAL 
 QUESTIONS ARE PROBLEMS IN APPLIED MATHEMATICS.

                    -- EYRING, WALTER, & KIMBALL, 1944
 Job cpu time:       0 days  0 hours 10 minutes 31.2 seconds.
 File lengths (MBytes):  RWF=    142 Int=      0 D2E=      0 Chk=     10 Scr=      1
 Normal termination of Gaussian 09 at Tue Mar 21 12:07:47 2017.
