 Entering Gaussian System, Link 0=/home/michal/g09/g09
 Input=JOB2-gau_m1-8-4.com
 Output=JOB2-gau_m1-8-4.log
 Initial command:
 /home/michal/g09/l1.exe "/home/michal/gauss_scratch/Gau-15781.inp" -scrdir="/home/michal/gauss_scratch/"
 Entering Link 1 = /home/michal/g09/l1.exe PID=     15782.
  
 Copyright (c) 1988,1990,1992,1993,1995,1998,2003,2009,2013,
            Gaussian, Inc.  All Rights Reserved.
  
 This is part of the Gaussian(R) 09 program.  It is based on
 the Gaussian(R) 03 system (copyright 2003, Gaussian, Inc.),
 the Gaussian(R) 98 system (copyright 1998, Gaussian, Inc.),
 the Gaussian(R) 94 system (copyright 1995, Gaussian, Inc.),
 the Gaussian 92(TM) system (copyright 1992, Gaussian, Inc.),
 the Gaussian 90(TM) system (copyright 1990, Gaussian, Inc.),
 the Gaussian 88(TM) system (copyright 1988, Gaussian, Inc.),
 the Gaussian 86(TM) system (copyright 1986, Carnegie Mellon
 University), and the Gaussian 82(TM) system (copyright 1983,
 Carnegie Mellon University). Gaussian is a federally registered
 trademark of Gaussian, Inc.
  
 This software contains proprietary and confidential information,
 including trade secrets, belonging to Gaussian, Inc.
  
 This software is provided under written license and may be
 used, copied, transmitted, or stored only in accord with that
 written license.
  
 The following legend is applicable only to US Government
 contracts under FAR:
  
                    RESTRICTED RIGHTS LEGEND
  
 Use, reproduction and disclosure by the US Government is
 subject to restrictions as set forth in subparagraphs (a)
 and (c) of the Commercial Computer Software - Restricted
 Rights clause in FAR 52.227-19.
  
 Gaussian, Inc.
 340 Quinnipiac St., Bldg. 40, Wallingford CT 06492
  
  
 ---------------------------------------------------------------
 Warning -- This program may not be used in any manner that
 competes with the business of Gaussian, Inc. or will provide
 assistance to any competitor of Gaussian, Inc.  The licensee
 of this program is prohibited from giving any competitor of
 Gaussian, Inc. access to this program.  By using this program,
 the user acknowledges that Gaussian, Inc. is engaged in the
 business of creating and licensing software in the field of
 computational chemistry and represents and warrants to the
 licensee that it is not a competitor of Gaussian, Inc. and that
 it will not use this program in any manner prohibited above.
 ---------------------------------------------------------------
  

 Cite this work as:
 Gaussian 09, Revision D.01,
 M. J. Frisch, G. W. Trucks, H. B. Schlegel, G. E. Scuseria, 
 M. A. Robb, J. R. Cheeseman, G. Scalmani, V. Barone, B. Mennucci, 
 G. A. Petersson, H. Nakatsuji, M. Caricato, X. Li, H. P. Hratchian, 
 A. F. Izmaylov, J. Bloino, G. Zheng, J. L. Sonnenberg, M. Hada, 
 M. Ehara, K. Toyota, R. Fukuda, J. Hasegawa, M. Ishida, T. Nakajima, 
 Y. Honda, O. Kitao, H. Nakai, T. Vreven, J. A. Montgomery, Jr., 
 J. E. Peralta, F. Ogliaro, M. Bearpark, J. J. Heyd, E. Brothers, 
 K. N. Kudin, V. N. Staroverov, T. Keith, R. Kobayashi, J. Normand, 
 K. Raghavachari, A. Rendell, J. C. Burant, S. S. Iyengar, J. Tomasi, 
 M. Cossi, N. Rega, J. M. Millam, M. Klene, J. E. Knox, J. B. Cross, 
 V. Bakken, C. Adamo, J. Jaramillo, R. Gomperts, R. E. Stratmann, 
 O. Yazyev, A. J. Austin, R. Cammi, C. Pomelli, J. W. Ochterski, 
 R. L. Martin, K. Morokuma, V. G. Zakrzewski, G. A. Voth, 
 P. Salvador, J. J. Dannenberg, S. Dapprich, A. D. Daniels, 
 O. Farkas, J. B. Foresman, J. V. Ortiz, J. Cioslowski, 
 and D. J. Fox, Gaussian, Inc., Wallingford CT, 2013.
 
 ******************************************
 Gaussian 09:  EM64L-G09RevD.01 24-Apr-2013
                21-Mar-2017 
 ******************************************
 %Mem=256MB
 %NProc=12
 Will use up to   12 processors via shared memory.
 ----------------------------------------------------------------------
 #P HF/6-31G* SCF(Conver=6) NoSymm Test Pop=mk IOp(6/33=2) GFInput GFPr
 int
 ----------------------------------------------------------------------
 1/38=1/1;
 2/12=2,15=1,17=6,18=5,40=1/2;
 3/5=1,6=6,7=1,11=9,16=1,24=110,25=1,30=1/1,2,3;
 4//1;
 5/5=2,6=6,38=5/2;
 6/7=2,8=2,9=2,10=2,15=8,20=1,28=1,33=2/1,2;
 99/5=1,9=1/99;
 Leave Link    1 at Tue Mar 21 12:15:07 2017, MaxMem=    33554432 cpu:         0.6
 (Enter /home/michal/g09/l101.exe)
 ----------------------------------------------
 MEP - Input generated by R.E.D.-III.x MOLECULE
 ----------------------------------------------
 Symbolic Z-matrix:
 Charge =  0 Multiplicity = 1
 O                     4.21092   6.55029   4.12472 
 H                     4.98992   6.90112   3.67303 
 C                     0.        0.        0. 
 C                     1.34509   0.61901  -0.47338 
 H                     2.12678   0.        0. 
 C                     1.6123    2.05369   0. 
 H                     0.84792   2.72189  -0.42146 
 C                     1.5465    2.11758   1.54853 
 H                     2.41022   1.53123   1.90371 
 C                     0.09281  -1.40302  -0.6949 
 H                     0.85129  -1.96367  -0.12808 
 C                     0.03408   0.00948   1.54203 
 H                     0.83644  -0.66242   1.88003 
 H                    -0.89642  -0.3769    1.9702 
 C                     1.7616    3.56917   2.10479 
 C                     1.40135   0.31024  -1.97789 
 H                     2.4268    0.28396  -2.35986 
 H                     0.87072   1.07989  -2.55213 
 C                     0.27952   1.42574   2.10307 
 H                    -0.60204   2.04057   1.89285 
 H                     0.34446   1.3584    3.19497 
 C                     0.6912   -1.06691  -2.10078 
 H                    -0.10604  -1.02484  -2.85222 
 H                     1.38191  -1.84904  -2.43101 
 C                     2.98569   2.54572  -0.48461 
 H                     2.95164   2.75917  -1.56128 
 H                     3.72642   1.73652  -0.37185 
 C                    -1.16845  -2.29721  -0.78394 
 H                    -1.91794  -1.74117  -1.36671 
 C                    -1.22878   0.77892  -0.52263 
 H                    -2.15533   0.34357  -0.13341 
 H                    -1.21467   1.82882  -0.22 
 H                    -1.29358   0.75919  -1.61476 
 C                     2.93678   4.2439    1.38342 
 C                     2.11435   3.47335   3.62201 
 H                     2.88925   2.70391   3.74529 
 H                     1.23811   3.12361   4.17864 
 C                     3.47016   3.76302   0.25071 
 H                     4.32124   4.2859   -0.18713 
 C                     0.49382   4.44609   1.92213 
 H                    -0.32439   4.10518   2.56427 
 H                     0.68827   5.49067   2.17763 
 H                     0.14654   4.42723   0.88446 
 C                     3.48755   5.50778   2.01748 
 H                     4.37505   5.83861   1.46272 
 H                     2.75491   6.32509   1.95835 
 C                     2.6184    4.77926   4.25343 
 H                     1.83706   5.54949   4.24918 
 H                     2.88535   4.60922   5.30267 
 C                    -0.91343  -3.58858  -1.61386 
 H                    -1.85544  -4.15448  -1.64894 
 H                    -0.71825  -3.28295  -2.6487 
 C                     3.82928   5.31722   3.50237 
 H                     4.65507   4.59173   3.58912 
 C                    -1.81099  -2.59913   0.58374 
 H                    -1.07797  -2.94566   1.31886 
 H                    -2.57718  -3.37657   0.48705 
 H                    -2.29851  -1.71431   1.00219 
 C                     0.22155  -4.55216  -1.19938 
 H                     0.41556  -5.19834  -2.06506 
 H                     1.14836  -3.98788  -1.04004 
 C                    -0.06216  -5.4466    0.02071 
 H                    -1.05529  -5.90293  -0.10095 
 H                    -0.12071  -4.83222   0.9264 
 C                     0.9606   -6.57896   0.2825 
 H                     0.61936  -7.08444   1.19809 
 C                     2.37533  -6.04489   0.56243 
 H                     2.36836  -5.2971    1.3643 
 H                     3.04541  -6.85626   0.86892 
 H                     2.81376  -5.57758  -0.32695 
 C                     0.98075  -7.63882  -0.83171 
 H                    -0.02444  -8.03031  -1.0276 
 H                     1.61933  -8.48442  -0.55158 
 H                     1.37164  -7.23467  -1.77257 
 
 NAtoms=     74 NQM=       74 NQMF=       0 NMMI=      0 NMMIF=      0
                NMic=       0 NMicF=      0.
                    Isotopes and Nuclear Properties:
 (Nuclear quadrupole moments (NQMom) in fm**2, nuclear magnetic moments (NMagM)
  in nuclear magnetons)

  Atom         1           2           3           4           5           6           7           8           9          10
 IAtWgt=          16           1          12          12           1          12           1          12           1          12
 AtmWgt=  15.9949146   1.0078250  12.0000000  12.0000000   1.0078250  12.0000000   1.0078250  12.0000000   1.0078250  12.0000000
 NucSpn=           0           1           0           0           1           0           1           0           1           0
 AtZEff=   0.0000000   0.0000000   0.0000000   0.0000000   0.0000000   0.0000000   0.0000000   0.0000000   0.0000000   0.0000000
 NQMom=    0.0000000   0.0000000   0.0000000   0.0000000   0.0000000   0.0000000   0.0000000   0.0000000   0.0000000   0.0000000
 NMagM=    0.0000000   2.7928460   0.0000000   0.0000000   2.7928460   0.0000000   2.7928460   0.0000000   2.7928460   0.0000000
 AtZNuc=   8.0000000   1.0000000   6.0000000   6.0000000   1.0000000   6.0000000   1.0000000   6.0000000   1.0000000   6.0000000

  Atom        11          12          13          14          15          16          17          18          19          20
 IAtWgt=           1          12           1           1          12          12           1           1          12           1
 AtmWgt=   1.0078250  12.0000000   1.0078250   1.0078250  12.0000000  12.0000000   1.0078250   1.0078250  12.0000000   1.0078250
 NucSpn=           1           0           1           1           0           0           1           1           0           1
 AtZEff=   0.0000000   0.0000000   0.0000000   0.0000000   0.0000000   0.0000000   0.0000000   0.0000000   0.0000000   0.0000000
 NQMom=    0.0000000   0.0000000   0.0000000   0.0000000   0.0000000   0.0000000   0.0000000   0.0000000   0.0000000   0.0000000
 NMagM=    2.7928460   0.0000000   2.7928460   2.7928460   0.0000000   0.0000000   2.7928460   2.7928460   0.0000000   2.7928460
 AtZNuc=   1.0000000   6.0000000   1.0000000   1.0000000   6.0000000   6.0000000   1.0000000   1.0000000   6.0000000   1.0000000

  Atom        21          22          23          24          25          26          27          28          29          30
 IAtWgt=           1          12           1           1          12           1           1          12           1          12
 AtmWgt=   1.0078250  12.0000000   1.0078250   1.0078250  12.0000000   1.0078250   1.0078250  12.0000000   1.0078250  12.0000000
 NucSpn=           1           0           1           1           0           1           1           0           1           0
 AtZEff=   0.0000000   0.0000000   0.0000000   0.0000000   0.0000000   0.0000000   0.0000000   0.0000000   0.0000000   0.0000000
 NQMom=    0.0000000   0.0000000   0.0000000   0.0000000   0.0000000   0.0000000   0.0000000   0.0000000   0.0000000   0.0000000
 NMagM=    2.7928460   0.0000000   2.7928460   2.7928460   0.0000000   2.7928460   2.7928460   0.0000000   2.7928460   0.0000000
 AtZNuc=   1.0000000   6.0000000   1.0000000   1.0000000   6.0000000   1.0000000   1.0000000   6.0000000   1.0000000   6.0000000

  Atom        31          32          33          34          35          36          37          38          39          40
 IAtWgt=           1           1           1          12          12           1           1          12           1          12
 AtmWgt=   1.0078250   1.0078250   1.0078250  12.0000000  12.0000000   1.0078250   1.0078250  12.0000000   1.0078250  12.0000000
 NucSpn=           1           1           1           0           0           1           1           0           1           0
 AtZEff=   0.0000000   0.0000000   0.0000000   0.0000000   0.0000000   0.0000000   0.0000000   0.0000000   0.0000000   0.0000000
 NQMom=    0.0000000   0.0000000   0.0000000   0.0000000   0.0000000   0.0000000   0.0000000   0.0000000   0.0000000   0.0000000
 NMagM=    2.7928460   2.7928460   2.7928460   0.0000000   0.0000000   2.7928460   2.7928460   0.0000000   2.7928460   0.0000000
 AtZNuc=   1.0000000   1.0000000   1.0000000   6.0000000   6.0000000   1.0000000   1.0000000   6.0000000   1.0000000   6.0000000

  Atom        41          42          43          44          45          46          47          48          49          50
 IAtWgt=           1           1           1          12           1           1          12           1           1          12
 AtmWgt=   1.0078250   1.0078250   1.0078250  12.0000000   1.0078250   1.0078250  12.0000000   1.0078250   1.0078250  12.0000000
 NucSpn=           1           1           1           0           1           1           0           1           1           0
 AtZEff=   0.0000000   0.0000000   0.0000000   0.0000000   0.0000000   0.0000000   0.0000000   0.0000000   0.0000000   0.0000000
 NQMom=    0.0000000   0.0000000   0.0000000   0.0000000   0.0000000   0.0000000   0.0000000   0.0000000   0.0000000   0.0000000
 NMagM=    2.7928460   2.7928460   2.7928460   0.0000000   2.7928460   2.7928460   0.0000000   2.7928460   2.7928460   0.0000000
 AtZNuc=   1.0000000   1.0000000   1.0000000   6.0000000   1.0000000   1.0000000   6.0000000   1.0000000   1.0000000   6.0000000

  Atom        51          52          53          54          55          56          57          58          59          60
 IAtWgt=           1           1          12           1          12           1           1           1          12           1
 AtmWgt=   1.0078250   1.0078250  12.0000000   1.0078250  12.0000000   1.0078250   1.0078250   1.0078250  12.0000000   1.0078250
 NucSpn=           1           1           0           1           0           1           1           1           0           1
 AtZEff=   0.0000000   0.0000000   0.0000000   0.0000000   0.0000000   0.0000000   0.0000000   0.0000000   0.0000000   0.0000000
 NQMom=    0.0000000   0.0000000   0.0000000   0.0000000   0.0000000   0.0000000   0.0000000   0.0000000   0.0000000   0.0000000
 NMagM=    2.7928460   2.7928460   0.0000000   2.7928460   0.0000000   2.7928460   2.7928460   2.7928460   0.0000000   2.7928460
 AtZNuc=   1.0000000   1.0000000   6.0000000   1.0000000   6.0000000   1.0000000   1.0000000   1.0000000   6.0000000   1.0000000

  Atom        61          62          63          64          65          66          67          68          69          70
 IAtWgt=           1          12           1           1          12           1          12           1           1           1
 AtmWgt=   1.0078250  12.0000000   1.0078250   1.0078250  12.0000000   1.0078250  12.0000000   1.0078250   1.0078250   1.0078250
 NucSpn=           1           0           1           1           0           1           0           1           1           1
 AtZEff=   0.0000000   0.0000000   0.0000000   0.0000000   0.0000000   0.0000000   0.0000000   0.0000000   0.0000000   0.0000000
 NQMom=    0.0000000   0.0000000   0.0000000   0.0000000   0.0000000   0.0000000   0.0000000   0.0000000   0.0000000   0.0000000
 NMagM=    2.7928460   0.0000000   2.7928460   2.7928460   0.0000000   2.7928460   0.0000000   2.7928460   2.7928460   2.7928460
 AtZNuc=   1.0000000   6.0000000   1.0000000   1.0000000   6.0000000   1.0000000   6.0000000   1.0000000   1.0000000   1.0000000

  Atom        71          72          73          74
 IAtWgt=          12           1           1           1
 AtmWgt=  12.0000000   1.0078250   1.0078250   1.0078250
 NucSpn=           0           1           1           1
 AtZEff=   0.0000000   0.0000000   0.0000000   0.0000000
 NQMom=    0.0000000   0.0000000   0.0000000   0.0000000
 NMagM=    0.0000000   2.7928460   2.7928460   2.7928460
 AtZNuc=   6.0000000   1.0000000   1.0000000   1.0000000
 Leave Link  101 at Tue Mar 21 12:15:07 2017, MaxMem=    33554432 cpu:         1.0
 (Enter /home/michal/g09/l202.exe)
 Symmetry turned off by external request.
 Stoichiometry    C27H46O
 Framework group  C1[X(C27H46O)]
 Deg. of freedom   216
 Full point group                 C1      NOp   1
                          Input orientation:                          
 ---------------------------------------------------------------------
 Center     Atomic      Atomic             Coordinates (Angstroms)
 Number     Number       Type             X           Y           Z
 ---------------------------------------------------------------------
      1          8           0        4.210920    6.550287    4.124718
      2          1           0        4.989921    6.901115    3.673035
      3          6           0        0.000000    0.000000    0.000000
      4          6           0        1.345085    0.619006   -0.473378
      5          1           0        2.126783    0.000000    0.000000
      6          6           0        1.612298    2.053687    0.000000
      7          1           0        0.847922    2.721891   -0.421464
      8          6           0        1.546501    2.117579    1.548527
      9          1           0        2.410215    1.531228    1.903708
     10          6           0        0.092807   -1.403018   -0.694899
     11          1           0        0.851288   -1.963668   -0.128079
     12          6           0        0.034081    0.009481    1.542032
     13          1           0        0.836439   -0.662424    1.880027
     14          1           0       -0.896418   -0.376899    1.970204
     15          6           0        1.761600    3.569174    2.104790
     16          6           0        1.401355    0.310241   -1.977886
     17          1           0        2.426800    0.283958   -2.359862
     18          1           0        0.870725    1.079887   -2.552134
     19          6           0        0.279521    1.425738    2.103067
     20          1           0       -0.602045    2.040569    1.892849
     21          1           0        0.344456    1.358396    3.194967
     22          6           0        0.691201   -1.066913   -2.100780
     23          1           0       -0.106035   -1.024839   -2.852215
     24          1           0        1.381913   -1.849040   -2.431013
     25          6           0        2.985687    2.545723   -0.484607
     26          1           0        2.951639    2.759165   -1.561282
     27          1           0        3.726420    1.736516   -0.371851
     28          6           0       -1.168451   -2.297209   -0.783943
     29          1           0       -1.917940   -1.741165   -1.366707
     30          6           0       -1.228775    0.778923   -0.522628
     31          1           0       -2.155331    0.343574   -0.133414
     32          1           0       -1.214675    1.828821   -0.219999
     33          1           0       -1.293583    0.759188   -1.614759
     34          6           0        2.936785    4.243904    1.383425
     35          6           0        2.114346    3.473346    3.622008
     36          1           0        2.889253    2.703913    3.745292
     37          1           0        1.238109    3.123606    4.178639
     38          6           0        3.470157    3.763017    0.250706
     39          1           0        4.321239    4.285905   -0.187133
     40          6           0        0.493825    4.446087    1.922131
     41          1           0       -0.324390    4.105181    2.564274
     42          1           0        0.688270    5.490670    2.177630
     43          1           0        0.146537    4.427231    0.884458
     44          6           0        3.487545    5.507776    2.017480
     45          1           0        4.375047    5.838610    1.462716
     46          1           0        2.754907    6.325087    1.958347
     47          6           0        2.618398    4.779260    4.253427
     48          1           0        1.837059    5.549489    4.249184
     49          1           0        2.885354    4.609215    5.302665
     50          6           0       -0.913430   -3.588575   -1.613865
     51          1           0       -1.855442   -4.154478   -1.648936
     52          1           0       -0.718251   -3.282951   -2.648696
     53          6           0        3.829283    5.317220    3.502367
     54          1           0        4.655071    4.591732    3.589125
     55          6           0       -1.810988   -2.599125    0.583740
     56          1           0       -1.077969   -2.945664    1.318864
     57          1           0       -2.577182   -3.376573    0.487050
     58          1           0       -2.298508   -1.714312    1.002187
     59          6           0        0.221553   -4.552164   -1.199379
     60          1           0        0.415560   -5.198336   -2.065064
     61          1           0        1.148361   -3.987878   -1.040038
     62          6           0       -0.062161   -5.446600    0.020709
     63          1           0       -1.055293   -5.902927   -0.100945
     64          1           0       -0.120714   -4.832222    0.926403
     65          6           0        0.960599   -6.578965    0.282500
     66          1           0        0.619362   -7.084436    1.198094
     67          6           0        2.375327   -6.044888    0.562426
     68          1           0        2.368365   -5.297095    1.364303
     69          1           0        3.045408   -6.856260    0.868923
     70          1           0        2.813762   -5.577585   -0.326952
     71          6           0        0.980751   -7.638820   -0.831711
     72          1           0       -0.024440   -8.030308   -1.027596
     73          1           0        1.619328   -8.484418   -0.551579
     74          1           0        1.371636   -7.234670   -1.772566
 ---------------------------------------------------------------------
 Rotational constants (GHZ):      0.3741968      0.0651394      0.0632813
 Leave Link  202 at Tue Mar 21 12:15:07 2017, MaxMem=    33554432 cpu:         0.0
 (Enter /home/michal/g09/l301.exe)
 Standard basis: 6-31G(d) (6D, 7F)
 Ernie: Thresh=  0.10000D-02 Tol=  0.10000D-05 Strict=F.
 AO basis set in the form of general basis input (Overlap normalization):
      1 0
 S   6 1.00       0.000000000000
      0.5484671660D+04  0.1831074430D-02
      0.8252349460D+03  0.1395017220D-01
      0.1880469580D+03  0.6844507810D-01
      0.5296450000D+02  0.2327143360D+00
      0.1689757040D+02  0.4701928980D+00
      0.5799635340D+01  0.3585208530D+00
 SP   3 1.00       0.000000000000
      0.1553961625D+02 -0.1107775495D+00  0.7087426823D-01
      0.3599933586D+01 -0.1480262627D+00  0.3397528391D+00
      0.1013761750D+01  0.1130767015D+01  0.7271585773D+00
 SP   1 1.00       0.000000000000
      0.2700058226D+00  0.1000000000D+01  0.1000000000D+01
 D   1 1.00       0.000000000000
      0.8000000000D+00  0.1000000000D+01
 ****
      2 0
 S   3 1.00       0.000000000000
      0.1873113696D+02  0.3349460434D-01
      0.2825394365D+01  0.2347269535D+00
      0.6401216923D+00  0.8137573261D+00
 S   1 1.00       0.000000000000
      0.1612777588D+00  0.1000000000D+01
 ****
      3 0
 S   6 1.00       0.000000000000
      0.3047524880D+04  0.1834737132D-02
      0.4573695180D+03  0.1403732281D-01
      0.1039486850D+03  0.6884262226D-01
      0.2921015530D+02  0.2321844432D+00
      0.9286662960D+01  0.4679413484D+00
      0.3163926960D+01  0.3623119853D+00
 SP   3 1.00       0.000000000000
      0.7868272350D+01 -0.1193324198D+00  0.6899906659D-01
      0.1881288540D+01 -0.1608541517D+00  0.3164239610D+00
      0.5442492580D+00  0.1143456438D+01  0.7443082909D+00
 SP   1 1.00       0.000000000000
      0.1687144782D+00  0.1000000000D+01  0.1000000000D+01
 D   1 1.00       0.000000000000
      0.8000000000D+00  0.1000000000D+01
 ****
      4 0
 S   6 1.00       0.000000000000
      0.3047524880D+04  0.1834737132D-02
      0.4573695180D+03  0.1403732281D-01
      0.1039486850D+03  0.6884262226D-01
      0.2921015530D+02  0.2321844432D+00
      0.9286662960D+01  0.4679413484D+00
      0.3163926960D+01  0.3623119853D+00
 SP   3 1.00       0.000000000000
      0.7868272350D+01 -0.1193324198D+00  0.6899906659D-01
      0.1881288540D+01 -0.1608541517D+00  0.3164239610D+00
      0.5442492580D+00  0.1143456438D+01  0.7443082909D+00
 SP   1 1.00       0.000000000000
      0.1687144782D+00  0.1000000000D+01  0.1000000000D+01
 D   1 1.00       0.000000000000
      0.8000000000D+00  0.1000000000D+01
 ****
      5 0
 S   3 1.00       0.000000000000
      0.1873113696D+02  0.3349460434D-01
      0.2825394365D+01  0.2347269535D+00
      0.6401216923D+00  0.8137573261D+00
 S   1 1.00       0.000000000000
      0.1612777588D+00  0.1000000000D+01
 ****
      6 0
 S   6 1.00       0.000000000000
      0.3047524880D+04  0.1834737132D-02
      0.4573695180D+03  0.1403732281D-01
      0.1039486850D+03  0.6884262226D-01
      0.2921015530D+02  0.2321844432D+00
      0.9286662960D+01  0.4679413484D+00
      0.3163926960D+01  0.3623119853D+00
 SP   3 1.00       0.000000000000
      0.7868272350D+01 -0.1193324198D+00  0.6899906659D-01
      0.1881288540D+01 -0.1608541517D+00  0.3164239610D+00
      0.5442492580D+00  0.1143456438D+01  0.7443082909D+00
 SP   1 1.00       0.000000000000
      0.1687144782D+00  0.1000000000D+01  0.1000000000D+01
 D   1 1.00       0.000000000000
      0.8000000000D+00  0.1000000000D+01
 ****
      7 0
 S   3 1.00       0.000000000000
      0.1873113696D+02  0.3349460434D-01
      0.2825394365D+01  0.2347269535D+00
      0.6401216923D+00  0.8137573261D+00
 S   1 1.00       0.000000000000
      0.1612777588D+00  0.1000000000D+01
 ****
      8 0
 S   6 1.00       0.000000000000
      0.3047524880D+04  0.1834737132D-02
      0.4573695180D+03  0.1403732281D-01
      0.1039486850D+03  0.6884262226D-01
      0.2921015530D+02  0.2321844432D+00
      0.9286662960D+01  0.4679413484D+00
      0.3163926960D+01  0.3623119853D+00
 SP   3 1.00       0.000000000000
      0.7868272350D+01 -0.1193324198D+00  0.6899906659D-01
      0.1881288540D+01 -0.1608541517D+00  0.3164239610D+00
      0.5442492580D+00  0.1143456438D+01  0.7443082909D+00
 SP   1 1.00       0.000000000000
      0.1687144782D+00  0.1000000000D+01  0.1000000000D+01
 D   1 1.00       0.000000000000
      0.8000000000D+00  0.1000000000D+01
 ****
      9 0
 S   3 1.00       0.000000000000
      0.1873113696D+02  0.3349460434D-01
      0.2825394365D+01  0.2347269535D+00
      0.6401216923D+00  0.8137573261D+00
 S   1 1.00       0.000000000000
      0.1612777588D+00  0.1000000000D+01
 ****
     10 0
 S   6 1.00       0.000000000000
      0.3047524880D+04  0.1834737132D-02
      0.4573695180D+03  0.1403732281D-01
      0.1039486850D+03  0.6884262226D-01
      0.2921015530D+02  0.2321844432D+00
      0.9286662960D+01  0.4679413484D+00
      0.3163926960D+01  0.3623119853D+00
 SP   3 1.00       0.000000000000
      0.7868272350D+01 -0.1193324198D+00  0.6899906659D-01
      0.1881288540D+01 -0.1608541517D+00  0.3164239610D+00
      0.5442492580D+00  0.1143456438D+01  0.7443082909D+00
 SP   1 1.00       0.000000000000
      0.1687144782D+00  0.1000000000D+01  0.1000000000D+01
 D   1 1.00       0.000000000000
      0.8000000000D+00  0.1000000000D+01
 ****
     11 0
 S   3 1.00       0.000000000000
      0.1873113696D+02  0.3349460434D-01
      0.2825394365D+01  0.2347269535D+00
      0.6401216923D+00  0.8137573261D+00
 S   1 1.00       0.000000000000
      0.1612777588D+00  0.1000000000D+01
 ****
     12 0
 S   6 1.00       0.000000000000
      0.3047524880D+04  0.1834737132D-02
      0.4573695180D+03  0.1403732281D-01
      0.1039486850D+03  0.6884262226D-01
      0.2921015530D+02  0.2321844432D+00
      0.9286662960D+01  0.4679413484D+00
      0.3163926960D+01  0.3623119853D+00
 SP   3 1.00       0.000000000000
      0.7868272350D+01 -0.1193324198D+00  0.6899906659D-01
      0.1881288540D+01 -0.1608541517D+00  0.3164239610D+00
      0.5442492580D+00  0.1143456438D+01  0.7443082909D+00
 SP   1 1.00       0.000000000000
      0.1687144782D+00  0.1000000000D+01  0.1000000000D+01
 D   1 1.00       0.000000000000
      0.8000000000D+00  0.1000000000D+01
 ****
     13 0
 S   3 1.00       0.000000000000
      0.1873113696D+02  0.3349460434D-01
      0.2825394365D+01  0.2347269535D+00
      0.6401216923D+00  0.8137573261D+00
 S   1 1.00       0.000000000000
      0.1612777588D+00  0.1000000000D+01
 ****
     14 0
 S   3 1.00       0.000000000000
      0.1873113696D+02  0.3349460434D-01
      0.2825394365D+01  0.2347269535D+00
      0.6401216923D+00  0.8137573261D+00
 S   1 1.00       0.000000000000
      0.1612777588D+00  0.1000000000D+01
 ****
     15 0
 S   6 1.00       0.000000000000
      0.3047524880D+04  0.1834737132D-02
      0.4573695180D+03  0.1403732281D-01
      0.1039486850D+03  0.6884262226D-01
      0.2921015530D+02  0.2321844432D+00
      0.9286662960D+01  0.4679413484D+00
      0.3163926960D+01  0.3623119853D+00
 SP   3 1.00       0.000000000000
      0.7868272350D+01 -0.1193324198D+00  0.6899906659D-01
      0.1881288540D+01 -0.1608541517D+00  0.3164239610D+00
      0.5442492580D+00  0.1143456438D+01  0.7443082909D+00
 SP   1 1.00       0.000000000000
      0.1687144782D+00  0.1000000000D+01  0.1000000000D+01
 D   1 1.00       0.000000000000
      0.8000000000D+00  0.1000000000D+01
 ****
     16 0
 S   6 1.00       0.000000000000
      0.3047524880D+04  0.1834737132D-02
      0.4573695180D+03  0.1403732281D-01
      0.1039486850D+03  0.6884262226D-01
      0.2921015530D+02  0.2321844432D+00
      0.9286662960D+01  0.4679413484D+00
      0.3163926960D+01  0.3623119853D+00
 SP   3 1.00       0.000000000000
      0.7868272350D+01 -0.1193324198D+00  0.6899906659D-01
      0.1881288540D+01 -0.1608541517D+00  0.3164239610D+00
      0.5442492580D+00  0.1143456438D+01  0.7443082909D+00
 SP   1 1.00       0.000000000000
      0.1687144782D+00  0.1000000000D+01  0.1000000000D+01
 D   1 1.00       0.000000000000
      0.8000000000D+00  0.1000000000D+01
 ****
     17 0
 S   3 1.00       0.000000000000
      0.1873113696D+02  0.3349460434D-01
      0.2825394365D+01  0.2347269535D+00
      0.6401216923D+00  0.8137573261D+00
 S   1 1.00       0.000000000000
      0.1612777588D+00  0.1000000000D+01
 ****
     18 0
 S   3 1.00       0.000000000000
      0.1873113696D+02  0.3349460434D-01
      0.2825394365D+01  0.2347269535D+00
      0.6401216923D+00  0.8137573261D+00
 S   1 1.00       0.000000000000
      0.1612777588D+00  0.1000000000D+01
 ****
     19 0
 S   6 1.00       0.000000000000
      0.3047524880D+04  0.1834737132D-02
      0.4573695180D+03  0.1403732281D-01
      0.1039486850D+03  0.6884262226D-01
      0.2921015530D+02  0.2321844432D+00
      0.9286662960D+01  0.4679413484D+00
      0.3163926960D+01  0.3623119853D+00
 SP   3 1.00       0.000000000000
      0.7868272350D+01 -0.1193324198D+00  0.6899906659D-01
      0.1881288540D+01 -0.1608541517D+00  0.3164239610D+00
      0.5442492580D+00  0.1143456438D+01  0.7443082909D+00
 SP   1 1.00       0.000000000000
      0.1687144782D+00  0.1000000000D+01  0.1000000000D+01
 D   1 1.00       0.000000000000
      0.8000000000D+00  0.1000000000D+01
 ****
     20 0
 S   3 1.00       0.000000000000
      0.1873113696D+02  0.3349460434D-01
      0.2825394365D+01  0.2347269535D+00
      0.6401216923D+00  0.8137573261D+00
 S   1 1.00       0.000000000000
      0.1612777588D+00  0.1000000000D+01
 ****
     21 0
 S   3 1.00       0.000000000000
      0.1873113696D+02  0.3349460434D-01
      0.2825394365D+01  0.2347269535D+00
      0.6401216923D+00  0.8137573261D+00
 S   1 1.00       0.000000000000
      0.1612777588D+00  0.1000000000D+01
 ****
     22 0
 S   6 1.00       0.000000000000
      0.3047524880D+04  0.1834737132D-02
      0.4573695180D+03  0.1403732281D-01
      0.1039486850D+03  0.6884262226D-01
      0.2921015530D+02  0.2321844432D+00
      0.9286662960D+01  0.4679413484D+00
      0.3163926960D+01  0.3623119853D+00
 SP   3 1.00       0.000000000000
      0.7868272350D+01 -0.1193324198D+00  0.6899906659D-01
      0.1881288540D+01 -0.1608541517D+00  0.3164239610D+00
      0.5442492580D+00  0.1143456438D+01  0.7443082909D+00
 SP   1 1.00       0.000000000000
      0.1687144782D+00  0.1000000000D+01  0.1000000000D+01
 D   1 1.00       0.000000000000
      0.8000000000D+00  0.1000000000D+01
 ****
     23 0
 S   3 1.00       0.000000000000
      0.1873113696D+02  0.3349460434D-01
      0.2825394365D+01  0.2347269535D+00
      0.6401216923D+00  0.8137573261D+00
 S   1 1.00       0.000000000000
      0.1612777588D+00  0.1000000000D+01
 ****
     24 0
 S   3 1.00       0.000000000000
      0.1873113696D+02  0.3349460434D-01
      0.2825394365D+01  0.2347269535D+00
      0.6401216923D+00  0.8137573261D+00
 S   1 1.00       0.000000000000
      0.1612777588D+00  0.1000000000D+01
 ****
     25 0
 S   6 1.00       0.000000000000
      0.3047524880D+04  0.1834737132D-02
      0.4573695180D+03  0.1403732281D-01
      0.1039486850D+03  0.6884262226D-01
      0.2921015530D+02  0.2321844432D+00
      0.9286662960D+01  0.4679413484D+00
      0.3163926960D+01  0.3623119853D+00
 SP   3 1.00       0.000000000000
      0.7868272350D+01 -0.1193324198D+00  0.6899906659D-01
      0.1881288540D+01 -0.1608541517D+00  0.3164239610D+00
      0.5442492580D+00  0.1143456438D+01  0.7443082909D+00
 SP   1 1.00       0.000000000000
      0.1687144782D+00  0.1000000000D+01  0.1000000000D+01
 D   1 1.00       0.000000000000
      0.8000000000D+00  0.1000000000D+01
 ****
     26 0
 S   3 1.00       0.000000000000
      0.1873113696D+02  0.3349460434D-01
      0.2825394365D+01  0.2347269535D+00
      0.6401216923D+00  0.8137573261D+00
 S   1 1.00       0.000000000000
      0.1612777588D+00  0.1000000000D+01
 ****
     27 0
 S   3 1.00       0.000000000000
      0.1873113696D+02  0.3349460434D-01
      0.2825394365D+01  0.2347269535D+00
      0.6401216923D+00  0.8137573261D+00
 S   1 1.00       0.000000000000
      0.1612777588D+00  0.1000000000D+01
 ****
     28 0
 S   6 1.00       0.000000000000
      0.3047524880D+04  0.1834737132D-02
      0.4573695180D+03  0.1403732281D-01
      0.1039486850D+03  0.6884262226D-01
      0.2921015530D+02  0.2321844432D+00
      0.9286662960D+01  0.4679413484D+00
      0.3163926960D+01  0.3623119853D+00
 SP   3 1.00       0.000000000000
      0.7868272350D+01 -0.1193324198D+00  0.6899906659D-01
      0.1881288540D+01 -0.1608541517D+00  0.3164239610D+00
      0.5442492580D+00  0.1143456438D+01  0.7443082909D+00
 SP   1 1.00       0.000000000000
      0.1687144782D+00  0.1000000000D+01  0.1000000000D+01
 D   1 1.00       0.000000000000
      0.8000000000D+00  0.1000000000D+01
 ****
     29 0
 S   3 1.00       0.000000000000
      0.1873113696D+02  0.3349460434D-01
      0.2825394365D+01  0.2347269535D+00
      0.6401216923D+00  0.8137573261D+00
 S   1 1.00       0.000000000000
      0.1612777588D+00  0.1000000000D+01
 ****
     30 0
 S   6 1.00       0.000000000000
      0.3047524880D+04  0.1834737132D-02
      0.4573695180D+03  0.1403732281D-01
      0.1039486850D+03  0.6884262226D-01
      0.2921015530D+02  0.2321844432D+00
      0.9286662960D+01  0.4679413484D+00
      0.3163926960D+01  0.3623119853D+00
 SP   3 1.00       0.000000000000
      0.7868272350D+01 -0.1193324198D+00  0.6899906659D-01
      0.1881288540D+01 -0.1608541517D+00  0.3164239610D+00
      0.5442492580D+00  0.1143456438D+01  0.7443082909D+00
 SP   1 1.00       0.000000000000
      0.1687144782D+00  0.1000000000D+01  0.1000000000D+01
 D   1 1.00       0.000000000000
      0.8000000000D+00  0.1000000000D+01
 ****
     31 0
 S   3 1.00       0.000000000000
      0.1873113696D+02  0.3349460434D-01
      0.2825394365D+01  0.2347269535D+00
      0.6401216923D+00  0.8137573261D+00
 S   1 1.00       0.000000000000
      0.1612777588D+00  0.1000000000D+01
 ****
     32 0
 S   3 1.00       0.000000000000
      0.1873113696D+02  0.3349460434D-01
      0.2825394365D+01  0.2347269535D+00
      0.6401216923D+00  0.8137573261D+00
 S   1 1.00       0.000000000000
      0.1612777588D+00  0.1000000000D+01
 ****
     33 0
 S   3 1.00       0.000000000000
      0.1873113696D+02  0.3349460434D-01
      0.2825394365D+01  0.2347269535D+00
      0.6401216923D+00  0.8137573261D+00
 S   1 1.00       0.000000000000
      0.1612777588D+00  0.1000000000D+01
 ****
     34 0
 S   6 1.00       0.000000000000
      0.3047524880D+04  0.1834737132D-02
      0.4573695180D+03  0.1403732281D-01
      0.1039486850D+03  0.6884262226D-01
      0.2921015530D+02  0.2321844432D+00
      0.9286662960D+01  0.4679413484D+00
      0.3163926960D+01  0.3623119853D+00
 SP   3 1.00       0.000000000000
      0.7868272350D+01 -0.1193324198D+00  0.6899906659D-01
      0.1881288540D+01 -0.1608541517D+00  0.3164239610D+00
      0.5442492580D+00  0.1143456438D+01  0.7443082909D+00
 SP   1 1.00       0.000000000000
      0.1687144782D+00  0.1000000000D+01  0.1000000000D+01
 D   1 1.00       0.000000000000
      0.8000000000D+00  0.1000000000D+01
 ****
     35 0
 S   6 1.00       0.000000000000
      0.3047524880D+04  0.1834737132D-02
      0.4573695180D+03  0.1403732281D-01
      0.1039486850D+03  0.6884262226D-01
      0.2921015530D+02  0.2321844432D+00
      0.9286662960D+01  0.4679413484D+00
      0.3163926960D+01  0.3623119853D+00
 SP   3 1.00       0.000000000000
      0.7868272350D+01 -0.1193324198D+00  0.6899906659D-01
      0.1881288540D+01 -0.1608541517D+00  0.3164239610D+00
      0.5442492580D+00  0.1143456438D+01  0.7443082909D+00
 SP   1 1.00       0.000000000000
      0.1687144782D+00  0.1000000000D+01  0.1000000000D+01
 D   1 1.00       0.000000000000
      0.8000000000D+00  0.1000000000D+01
 ****
     36 0
 S   3 1.00       0.000000000000
      0.1873113696D+02  0.3349460434D-01
      0.2825394365D+01  0.2347269535D+00
      0.6401216923D+00  0.8137573261D+00
 S   1 1.00       0.000000000000
      0.1612777588D+00  0.1000000000D+01
 ****
     37 0
 S   3 1.00       0.000000000000
      0.1873113696D+02  0.3349460434D-01
      0.2825394365D+01  0.2347269535D+00
      0.6401216923D+00  0.8137573261D+00
 S   1 1.00       0.000000000000
      0.1612777588D+00  0.1000000000D+01
 ****
     38 0
 S   6 1.00       0.000000000000
      0.3047524880D+04  0.1834737132D-02
      0.4573695180D+03  0.1403732281D-01
      0.1039486850D+03  0.6884262226D-01
      0.2921015530D+02  0.2321844432D+00
      0.9286662960D+01  0.4679413484D+00
      0.3163926960D+01  0.3623119853D+00
 SP   3 1.00       0.000000000000
      0.7868272350D+01 -0.1193324198D+00  0.6899906659D-01
      0.1881288540D+01 -0.1608541517D+00  0.3164239610D+00
      0.5442492580D+00  0.1143456438D+01  0.7443082909D+00
 SP   1 1.00       0.000000000000
      0.1687144782D+00  0.1000000000D+01  0.1000000000D+01
 D   1 1.00       0.000000000000
      0.8000000000D+00  0.1000000000D+01
 ****
     39 0
 S   3 1.00       0.000000000000
      0.1873113696D+02  0.3349460434D-01
      0.2825394365D+01  0.2347269535D+00
      0.6401216923D+00  0.8137573261D+00
 S   1 1.00       0.000000000000
      0.1612777588D+00  0.1000000000D+01
 ****
     40 0
 S   6 1.00       0.000000000000
      0.3047524880D+04  0.1834737132D-02
      0.4573695180D+03  0.1403732281D-01
      0.1039486850D+03  0.6884262226D-01
      0.2921015530D+02  0.2321844432D+00
      0.9286662960D+01  0.4679413484D+00
      0.3163926960D+01  0.3623119853D+00
 SP   3 1.00       0.000000000000
      0.7868272350D+01 -0.1193324198D+00  0.6899906659D-01
      0.1881288540D+01 -0.1608541517D+00  0.3164239610D+00
      0.5442492580D+00  0.1143456438D+01  0.7443082909D+00
 SP   1 1.00       0.000000000000
      0.1687144782D+00  0.1000000000D+01  0.1000000000D+01
 D   1 1.00       0.000000000000
      0.8000000000D+00  0.1000000000D+01
 ****
     41 0
 S   3 1.00       0.000000000000
      0.1873113696D+02  0.3349460434D-01
      0.2825394365D+01  0.2347269535D+00
      0.6401216923D+00  0.8137573261D+00
 S   1 1.00       0.000000000000
      0.1612777588D+00  0.1000000000D+01
 ****
     42 0
 S   3 1.00       0.000000000000
      0.1873113696D+02  0.3349460434D-01
      0.2825394365D+01  0.2347269535D+00
      0.6401216923D+00  0.8137573261D+00
 S   1 1.00       0.000000000000
      0.1612777588D+00  0.1000000000D+01
 ****
     43 0
 S   3 1.00       0.000000000000
      0.1873113696D+02  0.3349460434D-01
      0.2825394365D+01  0.2347269535D+00
      0.6401216923D+00  0.8137573261D+00
 S   1 1.00       0.000000000000
      0.1612777588D+00  0.1000000000D+01
 ****
     44 0
 S   6 1.00       0.000000000000
      0.3047524880D+04  0.1834737132D-02
      0.4573695180D+03  0.1403732281D-01
      0.1039486850D+03  0.6884262226D-01
      0.2921015530D+02  0.2321844432D+00
      0.9286662960D+01  0.4679413484D+00
      0.3163926960D+01  0.3623119853D+00
 SP   3 1.00       0.000000000000
      0.7868272350D+01 -0.1193324198D+00  0.6899906659D-01
      0.1881288540D+01 -0.1608541517D+00  0.3164239610D+00
      0.5442492580D+00  0.1143456438D+01  0.7443082909D+00
 SP   1 1.00       0.000000000000
      0.1687144782D+00  0.1000000000D+01  0.1000000000D+01
 D   1 1.00       0.000000000000
      0.8000000000D+00  0.1000000000D+01
 ****
     45 0
 S   3 1.00       0.000000000000
      0.1873113696D+02  0.3349460434D-01
      0.2825394365D+01  0.2347269535D+00
      0.6401216923D+00  0.8137573261D+00
 S   1 1.00       0.000000000000
      0.1612777588D+00  0.1000000000D+01
 ****
     46 0
 S   3 1.00       0.000000000000
      0.1873113696D+02  0.3349460434D-01
      0.2825394365D+01  0.2347269535D+00
      0.6401216923D+00  0.8137573261D+00
 S   1 1.00       0.000000000000
      0.1612777588D+00  0.1000000000D+01
 ****
     47 0
 S   6 1.00       0.000000000000
      0.3047524880D+04  0.1834737132D-02
      0.4573695180D+03  0.1403732281D-01
      0.1039486850D+03  0.6884262226D-01
      0.2921015530D+02  0.2321844432D+00
      0.9286662960D+01  0.4679413484D+00
      0.3163926960D+01  0.3623119853D+00
 SP   3 1.00       0.000000000000
      0.7868272350D+01 -0.1193324198D+00  0.6899906659D-01
      0.1881288540D+01 -0.1608541517D+00  0.3164239610D+00
      0.5442492580D+00  0.1143456438D+01  0.7443082909D+00
 SP   1 1.00       0.000000000000
      0.1687144782D+00  0.1000000000D+01  0.1000000000D+01
 D   1 1.00       0.000000000000
      0.8000000000D+00  0.1000000000D+01
 ****
     48 0
 S   3 1.00       0.000000000000
      0.1873113696D+02  0.3349460434D-01
      0.2825394365D+01  0.2347269535D+00
      0.6401216923D+00  0.8137573261D+00
 S   1 1.00       0.000000000000
      0.1612777588D+00  0.1000000000D+01
 ****
     49 0
 S   3 1.00       0.000000000000
      0.1873113696D+02  0.3349460434D-01
      0.2825394365D+01  0.2347269535D+00
      0.6401216923D+00  0.8137573261D+00
 S   1 1.00       0.000000000000
      0.1612777588D+00  0.1000000000D+01
 ****
     50 0
 S   6 1.00       0.000000000000
      0.3047524880D+04  0.1834737132D-02
      0.4573695180D+03  0.1403732281D-01
      0.1039486850D+03  0.6884262226D-01
      0.2921015530D+02  0.2321844432D+00
      0.9286662960D+01  0.4679413484D+00
      0.3163926960D+01  0.3623119853D+00
 SP   3 1.00       0.000000000000
      0.7868272350D+01 -0.1193324198D+00  0.6899906659D-01
      0.1881288540D+01 -0.1608541517D+00  0.3164239610D+00
      0.5442492580D+00  0.1143456438D+01  0.7443082909D+00
 SP   1 1.00       0.000000000000
      0.1687144782D+00  0.1000000000D+01  0.1000000000D+01
 D   1 1.00       0.000000000000
      0.8000000000D+00  0.1000000000D+01
 ****
     51 0
 S   3 1.00       0.000000000000
      0.1873113696D+02  0.3349460434D-01
      0.2825394365D+01  0.2347269535D+00
      0.6401216923D+00  0.8137573261D+00
 S   1 1.00       0.000000000000
      0.1612777588D+00  0.1000000000D+01
 ****
     52 0
 S   3 1.00       0.000000000000
      0.1873113696D+02  0.3349460434D-01
      0.2825394365D+01  0.2347269535D+00
      0.6401216923D+00  0.8137573261D+00
 S   1 1.00       0.000000000000
      0.1612777588D+00  0.1000000000D+01
 ****
     53 0
 S   6 1.00       0.000000000000
      0.3047524880D+04  0.1834737132D-02
      0.4573695180D+03  0.1403732281D-01
      0.1039486850D+03  0.6884262226D-01
      0.2921015530D+02  0.2321844432D+00
      0.9286662960D+01  0.4679413484D+00
      0.3163926960D+01  0.3623119853D+00
 SP   3 1.00       0.000000000000
      0.7868272350D+01 -0.1193324198D+00  0.6899906659D-01
      0.1881288540D+01 -0.1608541517D+00  0.3164239610D+00
      0.5442492580D+00  0.1143456438D+01  0.7443082909D+00
 SP   1 1.00       0.000000000000
      0.1687144782D+00  0.1000000000D+01  0.1000000000D+01
 D   1 1.00       0.000000000000
      0.8000000000D+00  0.1000000000D+01
 ****
     54 0
 S   3 1.00       0.000000000000
      0.1873113696D+02  0.3349460434D-01
      0.2825394365D+01  0.2347269535D+00
      0.6401216923D+00  0.8137573261D+00
 S   1 1.00       0.000000000000
      0.1612777588D+00  0.1000000000D+01
 ****
     55 0
 S   6 1.00       0.000000000000
      0.3047524880D+04  0.1834737132D-02
      0.4573695180D+03  0.1403732281D-01
      0.1039486850D+03  0.6884262226D-01
      0.2921015530D+02  0.2321844432D+00
      0.9286662960D+01  0.4679413484D+00
      0.3163926960D+01  0.3623119853D+00
 SP   3 1.00       0.000000000000
      0.7868272350D+01 -0.1193324198D+00  0.6899906659D-01
      0.1881288540D+01 -0.1608541517D+00  0.3164239610D+00
      0.5442492580D+00  0.1143456438D+01  0.7443082909D+00
 SP   1 1.00       0.000000000000
      0.1687144782D+00  0.1000000000D+01  0.1000000000D+01
 D   1 1.00       0.000000000000
      0.8000000000D+00  0.1000000000D+01
 ****
     56 0
 S   3 1.00       0.000000000000
      0.1873113696D+02  0.3349460434D-01
      0.2825394365D+01  0.2347269535D+00
      0.6401216923D+00  0.8137573261D+00
 S   1 1.00       0.000000000000
      0.1612777588D+00  0.1000000000D+01
 ****
     57 0
 S   3 1.00       0.000000000000
      0.1873113696D+02  0.3349460434D-01
      0.2825394365D+01  0.2347269535D+00
      0.6401216923D+00  0.8137573261D+00
 S   1 1.00       0.000000000000
      0.1612777588D+00  0.1000000000D+01
 ****
     58 0
 S   3 1.00       0.000000000000
      0.1873113696D+02  0.3349460434D-01
      0.2825394365D+01  0.2347269535D+00
      0.6401216923D+00  0.8137573261D+00
 S   1 1.00       0.000000000000
      0.1612777588D+00  0.1000000000D+01
 ****
     59 0
 S   6 1.00       0.000000000000
      0.3047524880D+04  0.1834737132D-02
      0.4573695180D+03  0.1403732281D-01
      0.1039486850D+03  0.6884262226D-01
      0.2921015530D+02  0.2321844432D+00
      0.9286662960D+01  0.4679413484D+00
      0.3163926960D+01  0.3623119853D+00
 SP   3 1.00       0.000000000000
      0.7868272350D+01 -0.1193324198D+00  0.6899906659D-01
      0.1881288540D+01 -0.1608541517D+00  0.3164239610D+00
      0.5442492580D+00  0.1143456438D+01  0.7443082909D+00
 SP   1 1.00       0.000000000000
      0.1687144782D+00  0.1000000000D+01  0.1000000000D+01
 D   1 1.00       0.000000000000
      0.8000000000D+00  0.1000000000D+01
 ****
     60 0
 S   3 1.00       0.000000000000
      0.1873113696D+02  0.3349460434D-01
      0.2825394365D+01  0.2347269535D+00
      0.6401216923D+00  0.8137573261D+00
 S   1 1.00       0.000000000000
      0.1612777588D+00  0.1000000000D+01
 ****
     61 0
 S   3 1.00       0.000000000000
      0.1873113696D+02  0.3349460434D-01
      0.2825394365D+01  0.2347269535D+00
      0.6401216923D+00  0.8137573261D+00
 S   1 1.00       0.000000000000
      0.1612777588D+00  0.1000000000D+01
 ****
     62 0
 S   6 1.00       0.000000000000
      0.3047524880D+04  0.1834737132D-02
      0.4573695180D+03  0.1403732281D-01
      0.1039486850D+03  0.6884262226D-01
      0.2921015530D+02  0.2321844432D+00
      0.9286662960D+01  0.4679413484D+00
      0.3163926960D+01  0.3623119853D+00
 SP   3 1.00       0.000000000000
      0.7868272350D+01 -0.1193324198D+00  0.6899906659D-01
      0.1881288540D+01 -0.1608541517D+00  0.3164239610D+00
      0.5442492580D+00  0.1143456438D+01  0.7443082909D+00
 SP   1 1.00       0.000000000000
      0.1687144782D+00  0.1000000000D+01  0.1000000000D+01
 D   1 1.00       0.000000000000
      0.8000000000D+00  0.1000000000D+01
 ****
     63 0
 S   3 1.00       0.000000000000
      0.1873113696D+02  0.3349460434D-01
      0.2825394365D+01  0.2347269535D+00
      0.6401216923D+00  0.8137573261D+00
 S   1 1.00       0.000000000000
      0.1612777588D+00  0.1000000000D+01
 ****
     64 0
 S   3 1.00       0.000000000000
      0.1873113696D+02  0.3349460434D-01
      0.2825394365D+01  0.2347269535D+00
      0.6401216923D+00  0.8137573261D+00
 S   1 1.00       0.000000000000
      0.1612777588D+00  0.1000000000D+01
 ****
     65 0
 S   6 1.00       0.000000000000
      0.3047524880D+04  0.1834737132D-02
      0.4573695180D+03  0.1403732281D-01
      0.1039486850D+03  0.6884262226D-01
      0.2921015530D+02  0.2321844432D+00
      0.9286662960D+01  0.4679413484D+00
      0.3163926960D+01  0.3623119853D+00
 SP   3 1.00       0.000000000000
      0.7868272350D+01 -0.1193324198D+00  0.6899906659D-01
      0.1881288540D+01 -0.1608541517D+00  0.3164239610D+00
      0.5442492580D+00  0.1143456438D+01  0.7443082909D+00
 SP   1 1.00       0.000000000000
      0.1687144782D+00  0.1000000000D+01  0.1000000000D+01
 D   1 1.00       0.000000000000
      0.8000000000D+00  0.1000000000D+01
 ****
     66 0
 S   3 1.00       0.000000000000
      0.1873113696D+02  0.3349460434D-01
      0.2825394365D+01  0.2347269535D+00
      0.6401216923D+00  0.8137573261D+00
 S   1 1.00       0.000000000000
      0.1612777588D+00  0.1000000000D+01
 ****
     67 0
 S   6 1.00       0.000000000000
      0.3047524880D+04  0.1834737132D-02
      0.4573695180D+03  0.1403732281D-01
      0.1039486850D+03  0.6884262226D-01
      0.2921015530D+02  0.2321844432D+00
      0.9286662960D+01  0.4679413484D+00
      0.3163926960D+01  0.3623119853D+00
 SP   3 1.00       0.000000000000
      0.7868272350D+01 -0.1193324198D+00  0.6899906659D-01
      0.1881288540D+01 -0.1608541517D+00  0.3164239610D+00
      0.5442492580D+00  0.1143456438D+01  0.7443082909D+00
 SP   1 1.00       0.000000000000
      0.1687144782D+00  0.1000000000D+01  0.1000000000D+01
 D   1 1.00       0.000000000000
      0.8000000000D+00  0.1000000000D+01
 ****
     68 0
 S   3 1.00       0.000000000000
      0.1873113696D+02  0.3349460434D-01
      0.2825394365D+01  0.2347269535D+00
      0.6401216923D+00  0.8137573261D+00
 S   1 1.00       0.000000000000
      0.1612777588D+00  0.1000000000D+01
 ****
     69 0
 S   3 1.00       0.000000000000
      0.1873113696D+02  0.3349460434D-01
      0.2825394365D+01  0.2347269535D+00
      0.6401216923D+00  0.8137573261D+00
 S   1 1.00       0.000000000000
      0.1612777588D+00  0.1000000000D+01
 ****
     70 0
 S   3 1.00       0.000000000000
      0.1873113696D+02  0.3349460434D-01
      0.2825394365D+01  0.2347269535D+00
      0.6401216923D+00  0.8137573261D+00
 S   1 1.00       0.000000000000
      0.1612777588D+00  0.1000000000D+01
 ****
     71 0
 S   6 1.00       0.000000000000
      0.3047524880D+04  0.1834737132D-02
      0.4573695180D+03  0.1403732281D-01
      0.1039486850D+03  0.6884262226D-01
      0.2921015530D+02  0.2321844432D+00
      0.9286662960D+01  0.4679413484D+00
      0.3163926960D+01  0.3623119853D+00
 SP   3 1.00       0.000000000000
      0.7868272350D+01 -0.1193324198D+00  0.6899906659D-01
      0.1881288540D+01 -0.1608541517D+00  0.3164239610D+00
      0.5442492580D+00  0.1143456438D+01  0.7443082909D+00
 SP   1 1.00       0.000000000000
      0.1687144782D+00  0.1000000000D+01  0.1000000000D+01
 D   1 1.00       0.000000000000
      0.8000000000D+00  0.1000000000D+01
 ****
     72 0
 S   3 1.00       0.000000000000
      0.1873113696D+02  0.3349460434D-01
      0.2825394365D+01  0.2347269535D+00
      0.6401216923D+00  0.8137573261D+00
 S   1 1.00       0.000000000000
      0.1612777588D+00  0.1000000000D+01
 ****
     73 0
 S   3 1.00       0.000000000000
      0.1873113696D+02  0.3349460434D-01
      0.2825394365D+01  0.2347269535D+00
      0.6401216923D+00  0.8137573261D+00
 S   1 1.00       0.000000000000
      0.1612777588D+00  0.1000000000D+01
 ****
     74 0
 S   3 1.00       0.000000000000
      0.1873113696D+02  0.3349460434D-01
      0.2825394365D+01  0.2347269535D+00
      0.6401216923D+00  0.8137573261D+00
 S   1 1.00       0.000000000000
      0.1612777588D+00  0.1000000000D+01
 ****

 AO basis set (Overlap normalization):
 Atom O1       Shell     1 S   6     bf    1 -     1          7.957485057265         12.378248295034          7.794588132377
      0.5484671660D+04  0.1831074430D-02
      0.8252349460D+03  0.1395017220D-01
      0.1880469580D+03  0.6844507810D-01
      0.5296450000D+02  0.2327143360D+00
      0.1689757040D+02  0.4701928980D+00
      0.5799635340D+01  0.3585208530D+00
 Atom O1       Shell     2 SP   3    bf    2 -     5          7.957485057265         12.378248295034          7.794588132377
      0.1553961625D+02 -0.1107775495D+00  0.7087426823D-01
      0.3599933586D+01 -0.1480262627D+00  0.3397528391D+00
      0.1013761750D+01  0.1130767015D+01  0.7271585773D+00
 Atom O1       Shell     3 SP   1    bf    6 -     9          7.957485057265         12.378248295034          7.794588132377
      0.2700058226D+00  0.1000000000D+01  0.1000000000D+01
 Atom O1       Shell     4 D   1     bf   10 -    15          7.957485057265         12.378248295034          7.794588132377
      0.8000000000D+00  0.1000000000D+01
 Atom H2       Shell     5 S   3     bf   16 -    16          9.429584889523         13.041217947364          6.941030056428
      0.1873113696D+02  0.3349460434D-01
      0.2825394365D+01  0.2347269535D+00
      0.6401216923D+00  0.8137573261D+00
 Atom H2       Shell     6 S   1     bf   17 -    17          9.429584889523         13.041217947364          6.941030056428
      0.1612777588D+00  0.1000000000D+01
 Atom C3       Shell     7 S   6     bf   18 -    18          0.000000000000          0.000000000000          0.000000000000
      0.3047524880D+04  0.1834737132D-02
      0.4573695180D+03  0.1403732281D-01
      0.1039486850D+03  0.6884262226D-01
      0.2921015530D+02  0.2321844432D+00
      0.9286662960D+01  0.4679413484D+00
      0.3163926960D+01  0.3623119853D+00
 Atom C3       Shell     8 SP   3    bf   19 -    22          0.000000000000          0.000000000000          0.000000000000
      0.7868272350D+01 -0.1193324198D+00  0.6899906659D-01
      0.1881288540D+01 -0.1608541517D+00  0.3164239610D+00
      0.5442492580D+00  0.1143456438D+01  0.7443082909D+00
 Atom C3       Shell     9 SP   1    bf   23 -    26          0.000000000000          0.000000000000          0.000000000000
      0.1687144782D+00  0.1000000000D+01  0.1000000000D+01
 Atom C3       Shell    10 D   1     bf   27 -    32          0.000000000000          0.000000000000          0.000000000000
      0.8000000000D+00  0.1000000000D+01
 Atom C4       Shell    11 S   6     bf   33 -    33          2.541842672295          1.169751379976         -0.894555533224
      0.3047524880D+04  0.1834737132D-02
      0.4573695180D+03  0.1403732281D-01
      0.1039486850D+03  0.6884262226D-01
      0.2921015530D+02  0.2321844432D+00
      0.9286662960D+01  0.4679413484D+00
      0.3163926960D+01  0.3623119853D+00
 Atom C4       Shell    12 SP   3    bf   34 -    37          2.541842672295          1.169751379976         -0.894555533224
      0.7868272350D+01 -0.1193324198D+00  0.6899906659D-01
      0.1881288540D+01 -0.1608541517D+00  0.3164239610D+00
      0.5442492580D+00  0.1143456438D+01  0.7443082909D+00
 Atom C4       Shell    13 SP   1    bf   38 -    41          2.541842672295          1.169751379976         -0.894555533224
      0.1687144782D+00  0.1000000000D+01  0.1000000000D+01
 Atom C4       Shell    14 D   1     bf   42 -    47          2.541842672295          1.169751379976         -0.894555533224
      0.8000000000D+00  0.1000000000D+01
 Atom H5       Shell    15 S   3     bf   48 -    48          4.019037697536          0.000000000000          0.000000000000
      0.1873113696D+02  0.3349460434D-01
      0.2825394365D+01  0.2347269535D+00
      0.6401216923D+00  0.8137573261D+00
 Atom H5       Shell    16 S   1     bf   49 -    49          4.019037697536          0.000000000000          0.000000000000
      0.1612777588D+00  0.1000000000D+01
 Atom C6       Shell    17 S   6     bf   50 -    50          3.046800833120          3.880905161188          0.000000000000
      0.3047524880D+04  0.1834737132D-02
      0.4573695180D+03  0.1403732281D-01
      0.1039486850D+03  0.6884262226D-01
      0.2921015530D+02  0.2321844432D+00
      0.9286662960D+01  0.4679413484D+00
      0.3163926960D+01  0.3623119853D+00
 Atom C6       Shell    18 SP   3    bf   51 -    54          3.046800833120          3.880905161188          0.000000000000
      0.7868272350D+01 -0.1193324198D+00  0.6899906659D-01
      0.1881288540D+01 -0.1608541517D+00  0.3164239610D+00
      0.5442492580D+00  0.1143456438D+01  0.7443082909D+00
 Atom C6       Shell    19 SP   1    bf   55 -    58          3.046800833120          3.880905161188          0.000000000000
      0.1687144782D+00  0.1000000000D+01  0.1000000000D+01
 Atom C6       Shell    20 D   1     bf   59 -    64          3.046800833120          3.880905161188          0.000000000000
      0.8000000000D+00  0.1000000000D+01
 Atom H7       Shell    21 S   3     bf   65 -    65          1.602339568364          5.143627854368         -0.796451780535
      0.1873113696D+02  0.3349460434D-01
      0.2825394365D+01  0.2347269535D+00
      0.6401216923D+00  0.8137573261D+00
 Atom H7       Shell    22 S   1     bf   66 -    66          1.602339568364          5.143627854368         -0.796451780535
      0.1612777588D+00  0.1000000000D+01
 Atom C8       Shell    23 S   6     bf   67 -    67          2.922462919597          4.001644733798          2.926291637023
      0.3047524880D+04  0.1834737132D-02
      0.4573695180D+03  0.1403732281D-01
      0.1039486850D+03  0.6884262226D-01
      0.2921015530D+02  0.2321844432D+00
      0.9286662960D+01  0.4679413484D+00
      0.3163926960D+01  0.3623119853D+00
 Atom C8       Shell    24 SP   3    bf   68 -    71          2.922462919597          4.001644733798          2.926291637023
      0.7868272350D+01 -0.1193324198D+00  0.6899906659D-01
      0.1881288540D+01 -0.1608541517D+00  0.3164239610D+00
      0.5442492580D+00  0.1143456438D+01  0.7443082909D+00
 Atom C8       Shell    25 SP   1    bf   72 -    75          2.922462919597          4.001644733798          2.926291637023
      0.1687144782D+00  0.1000000000D+01  0.1000000000D+01
 Atom C8       Shell    26 D   1     bf   76 -    81          2.922462919597          4.001644733798          2.926291637023
      0.8000000000D+00  0.1000000000D+01
 Atom H9       Shell    27 S   3     bf   82 -    82          4.554646970572          2.893601567006          3.597487248312
      0.1873113696D+02  0.3349460434D-01
      0.2825394365D+01  0.2347269535D+00
      0.6401216923D+00  0.8137573261D+00
 Atom H9       Shell    28 S   1     bf   83 -    83          4.554646970572          2.893601567006          3.597487248312
      0.1612777588D+00  0.1000000000D+01
 Atom C10      Shell    29 S   6     bf   84 -    84          0.175379170708         -2.651320478708         -1.313169631496
      0.3047524880D+04  0.1834737132D-02
      0.4573695180D+03  0.1403732281D-01
      0.1039486850D+03  0.6884262226D-01
      0.2921015530D+02  0.2321844432D+00
      0.9286662960D+01  0.4679413484D+00
      0.3163926960D+01  0.3623119853D+00
 Atom C10      Shell    30 SP   3    bf   85 -    88          0.175379170708         -2.651320478708         -1.313169631496
      0.7868272350D+01 -0.1193324198D+00  0.6899906659D-01
      0.1881288540D+01 -0.1608541517D+00  0.3164239610D+00
      0.5442492580D+00  0.1143456438D+01  0.7443082909D+00
 Atom C10      Shell    31 SP   1    bf   89 -    92          0.175379170708         -2.651320478708         -1.313169631496
      0.1687144782D+00  0.1000000000D+01  0.1000000000D+01
 Atom C10      Shell    32 D   1     bf   93 -    98          0.175379170708         -2.651320478708         -1.313169631496
      0.8000000000D+00  0.1000000000D+01
 Atom H11      Shell    33 S   3     bf   99 -    99          1.608702087280         -3.710795642980         -0.242033798737
      0.1873113696D+02  0.3349460434D-01
      0.2825394365D+01  0.2347269535D+00
      0.6401216923D+00  0.8137573261D+00
 Atom H11      Shell    34 S   1     bf  100 -   100          1.608702087280         -3.710795642980         -0.242033798737
      0.1612777588D+00  0.1000000000D+01
 Atom C12      Shell    35 S   6     bf  101 -   101          0.064404020897          0.017916247801          2.914017261077
      0.3047524880D+04  0.1834737132D-02
      0.4573695180D+03  0.1403732281D-01
      0.1039486850D+03  0.6884262226D-01
      0.2921015530D+02  0.2321844432D+00
      0.9286662960D+01  0.4679413484D+00
      0.3163926960D+01  0.3623119853D+00
 Atom C12      Shell    36 SP   3    bf  102 -   105          0.064404020897          0.017916247801          2.914017261077
      0.7868272350D+01 -0.1193324198D+00  0.6899906659D-01
      0.1881288540D+01 -0.1608541517D+00  0.3164239610D+00
      0.5442492580D+00  0.1143456438D+01  0.7443082909D+00
 Atom C12      Shell    37 SP   1    bf  106 -   109          0.064404020897          0.017916247801          2.914017261077
      0.1687144782D+00  0.1000000000D+01  0.1000000000D+01
 Atom C12      Shell    38 D   1     bf  110 -   115          0.064404020897          0.017916247801          2.914017261077
      0.8000000000D+00  0.1000000000D+01
 Atom H13      Shell    39 S   3     bf  116 -   116          1.580640183330         -1.251799811570          3.552735491026
      0.1873113696D+02  0.3349460434D-01
      0.2825394365D+01  0.2347269535D+00
      0.6401216923D+00  0.8137573261D+00
 Atom H13      Shell    40 S   1     bf  117 -   117          1.580640183330         -1.251799811570          3.552735491026
      0.1612777588D+00  0.1000000000D+01
 Atom H14      Shell    41 S   3     bf  118 -   118         -1.693985144199         -0.712235360635          3.723146477245
      0.1873113696D+02  0.3349460434D-01
      0.2825394365D+01  0.2347269535D+00
      0.6401216923D+00  0.8137573261D+00
 Atom H14      Shell    42 S   1     bf  119 -   119         -1.693985144199         -0.712235360635          3.723146477245
      0.1612777588D+00  0.1000000000D+01
 Atom C15      Shell    43 S   6     bf  120 -   120          3.328941480102          6.744760586931          3.977475949140
      0.3047524880D+04  0.1834737132D-02
      0.4573695180D+03  0.1403732281D-01
      0.1039486850D+03  0.6884262226D-01
      0.2921015530D+02  0.2321844432D+00
      0.9286662960D+01  0.4679413484D+00
      0.3163926960D+01  0.3623119853D+00
 Atom C15      Shell    44 SP   3    bf  121 -   124          3.328941480102          6.744760586931          3.977475949140
      0.7868272350D+01 -0.1193324198D+00  0.6899906659D-01
      0.1881288540D+01 -0.1608541517D+00  0.3164239610D+00
      0.5442492580D+00  0.1143456438D+01  0.7443082909D+00
 Atom C15      Shell    45 SP   1    bf  125 -   128          3.328941480102          6.744760586931          3.977475949140
      0.1687144782D+00  0.1000000000D+01  0.1000000000D+01
 Atom C15      Shell    46 D   1     bf  129 -   134          3.328941480102          6.744760586931          3.977475949140
      0.8000000000D+00  0.1000000000D+01
 Atom C16      Shell    47 S   6     bf  135 -   135          2.648176579135          0.586271337775         -3.737663013247
      0.3047524880D+04  0.1834737132D-02
      0.4573695180D+03  0.1403732281D-01
      0.1039486850D+03  0.6884262226D-01
      0.2921015530D+02  0.2321844432D+00
      0.9286662960D+01  0.4679413484D+00
      0.3163926960D+01  0.3623119853D+00
 Atom C16      Shell    48 SP   3    bf  136 -   139          2.648176579135          0.586271337775         -3.737663013247
      0.7868272350D+01 -0.1193324198D+00  0.6899906659D-01
      0.1881288540D+01 -0.1608541517D+00  0.3164239610D+00
      0.5442492580D+00  0.1143456438D+01  0.7443082909D+00
 Atom C16      Shell    49 SP   1    bf  140 -   143          2.648176579135          0.586271337775         -3.737663013247
      0.1687144782D+00  0.1000000000D+01  0.1000000000D+01
 Atom C16      Shell    50 D   1     bf  144 -   149          2.648176579135          0.586271337775         -3.737663013247
      0.8000000000D+00  0.1000000000D+01
 Atom H17      Shell    51 S   3     bf  150 -   150          4.585986642294          0.536602021762         -4.459492645739
      0.1873113696D+02  0.3349460434D-01
      0.2825394365D+01  0.2347269535D+00
      0.6401216923D+00  0.8137573261D+00
 Atom H17      Shell    52 S   1     bf  151 -   151          4.585986642294          0.536602021762         -4.459492645739
      0.1612777588D+00  0.1000000000D+01
 Atom H18      Shell    53 S   3     bf  152 -   152          1.645431409112          2.040690967922         -4.822835127008
      0.1873113696D+02  0.3349460434D-01
      0.2825394365D+01  0.2347269535D+00
      0.6401216923D+00  0.8137573261D+00
 Atom H18      Shell    54 S   1     bf  153 -   153          1.645431409112          2.040690967922         -4.822835127008
      0.1612777588D+00  0.1000000000D+01
 Atom C19      Shell    55 S   6     bf  154 -   154          0.528218157288          2.694254867474          3.974221538383
      0.3047524880D+04  0.1834737132D-02
      0.4573695180D+03  0.1403732281D-01
      0.1039486850D+03  0.6884262226D-01
      0.2921015530D+02  0.2321844432D+00
      0.9286662960D+01  0.4679413484D+00
      0.3163926960D+01  0.3623119853D+00
 Atom C19      Shell    56 SP   3    bf  155 -   158          0.528218157288          2.694254867474          3.974221538383
      0.7868272350D+01 -0.1193324198D+00  0.6899906659D-01
      0.1881288540D+01 -0.1608541517D+00  0.3164239610D+00
      0.5442492580D+00  0.1143456438D+01  0.7443082909D+00
 Atom C19      Shell    57 SP   1    bf  159 -   162          0.528218157288          2.694254867474          3.974221538383
      0.1687144782D+00  0.1000000000D+01  0.1000000000D+01
 Atom C19      Shell    58 D   1     bf  163 -   168          0.528218157288          2.694254867474          3.974221538383
      0.8000000000D+00  0.1000000000D+01
 Atom H20      Shell    59 S   3     bf  169 -   169         -1.137699394885          3.856116036133          3.576966088626
      0.1873113696D+02  0.3349460434D-01
      0.2825394365D+01  0.2347269535D+00
      0.6401216923D+00  0.8137573261D+00
 Atom H20      Shell    60 S   1     bf  170 -   170         -1.137699394885          3.856116036133          3.576966088626
      0.1612777588D+00  0.1000000000D+01
 Atom H21      Shell    61 S   3     bf  171 -   171          0.650926786733          2.566996665672          6.037613143833
      0.1873113696D+02  0.3349460434D-01
      0.2825394365D+01  0.2347269535D+00
      0.6401216923D+00  0.8137573261D+00
 Atom H21      Shell    62 S   1     bf  172 -   172          0.650926786733          2.566996665672          6.037613143833
      0.1612777588D+00  0.1000000000D+01
 Atom C22      Shell    63 S   6     bf  173 -   173          1.306180422701         -2.016172886287         -3.969898015067
      0.3047524880D+04  0.1834737132D-02
      0.4573695180D+03  0.1403732281D-01
      0.1039486850D+03  0.6884262226D-01
      0.2921015530D+02  0.2321844432D+00
      0.9286662960D+01  0.4679413484D+00
      0.3163926960D+01  0.3623119853D+00
 Atom C22      Shell    64 SP   3    bf  174 -   177          1.306180422701         -2.016172886287         -3.969898015067
      0.7868272350D+01 -0.1193324198D+00  0.6899906659D-01
      0.1881288540D+01 -0.1608541517D+00  0.3164239610D+00
      0.5442492580D+00  0.1143456438D+01  0.7443082909D+00
 Atom C22      Shell    65 SP   1    bf  178 -   181          1.306180422701         -2.016172886287         -3.969898015067
      0.1687144782D+00  0.1000000000D+01  0.1000000000D+01
 Atom C22      Shell    66 D   1     bf  182 -   187          1.306180422701         -2.016172886287         -3.969898015067
      0.8000000000D+00  0.1000000000D+01
 Atom H23      Shell    67 S   3     bf  188 -   188         -0.200377979775         -1.936665229273         -5.389905448876
      0.1873113696D+02  0.3349460434D-01
      0.2825394365D+01  0.2347269535D+00
      0.6401216923D+00  0.8137573261D+00
 Atom H23      Shell    68 S   1     bf  189 -   189         -0.200377979775         -1.936665229273         -5.389905448876
      0.1612777588D+00  0.1000000000D+01
 Atom H24      Shell    69 S   3     bf  190 -   190          2.611436750426         -3.494180115819         -4.593948908868
      0.1873113696D+02  0.3349460434D-01
      0.2825394365D+01  0.2347269535D+00
      0.6401216923D+00  0.8137573261D+00
 Atom H24      Shell    70 S   1     bf  191 -   191          2.611436750426         -3.494180115819         -4.593948908868
      0.1612777588D+00  0.1000000000D+01
 Atom C25      Shell    71 S   6     bf  192 -   192          5.642131409921          4.810719450263         -0.915774455388
      0.3047524880D+04  0.1834737132D-02
      0.4573695180D+03  0.1403732281D-01
      0.1039486850D+03  0.6884262226D-01
      0.2921015530D+02  0.2321844432D+00
      0.9286662960D+01  0.4679413484D+00
      0.3163926960D+01  0.3623119853D+00
 Atom C25      Shell    72 SP   3    bf  193 -   196          5.642131409921          4.810719450263         -0.915774455388
      0.7868272350D+01 -0.1193324198D+00  0.6899906659D-01
      0.1881288540D+01 -0.1608541517D+00  0.3164239610D+00
      0.5442492580D+00  0.1143456438D+01  0.7443082909D+00
 Atom C25      Shell    73 SP   1    bf  197 -   200          5.642131409921          4.810719450263         -0.915774455388
      0.1687144782D+00  0.1000000000D+01  0.1000000000D+01
 Atom C25      Shell    74 D   1     bf  201 -   206          5.642131409921          4.810719450263         -0.915774455388
      0.8000000000D+00  0.1000000000D+01
 Atom H26      Shell    75 S   3     bf  207 -   207          5.577788616151          5.214066602286         -2.950395112745
      0.1873113696D+02  0.3349460434D-01
      0.2825394365D+01  0.2347269535D+00
      0.6401216923D+00  0.8137573261D+00
 Atom H26      Shell    76 S   1     bf  208 -   208          5.577788616151          5.214066602286         -2.950395112745
      0.1612777588D+00  0.1000000000D+01
 Atom H27      Shell    77 S   3     bf  209 -   209          7.041913086032          3.281539363018         -0.702695947527
      0.1873113696D+02  0.3349460434D-01
      0.2825394365D+01  0.2347269535D+00
      0.6401216923D+00  0.8137573261D+00
 Atom H27      Shell    78 S   1     bf  210 -   210          7.041913086032          3.281539363018         -0.702695947527
      0.1612777588D+00  0.1000000000D+01
 Atom C28      Shell    79 S   6     bf  211 -   211         -2.208051671600         -4.341096560302         -1.481436931286
      0.3047524880D+04  0.1834737132D-02
      0.4573695180D+03  0.1403732281D-01
      0.1039486850D+03  0.6884262226D-01
      0.2921015530D+02  0.2321844432D+00
      0.9286662960D+01  0.4679413484D+00
      0.3163926960D+01  0.3623119853D+00
 Atom C28      Shell    80 SP   3    bf  212 -   215         -2.208051671600         -4.341096560302         -1.481436931286
      0.7868272350D+01 -0.1193324198D+00  0.6899906659D-01
      0.1881288540D+01 -0.1608541517D+00  0.3164239610D+00
      0.5442492580D+00  0.1143456438D+01  0.7443082909D+00
 Atom C28      Shell    81 SP   1    bf  216 -   219         -2.208051671600         -4.341096560302         -1.481436931286
      0.1687144782D+00  0.1000000000D+01  0.1000000000D+01
 Atom C28      Shell    82 D   1     bf  220 -   225         -2.208051671600         -4.341096560302         -1.481436931286
      0.8000000000D+00  0.1000000000D+01
 Atom H29      Shell    83 S   3     bf  226 -   226         -3.624380507827         -3.290325361214         -2.582702500816
      0.1873113696D+02  0.3349460434D-01
      0.2825394365D+01  0.2347269535D+00
      0.6401216923D+00  0.8137573261D+00
 Atom H29      Shell    84 S   1     bf  227 -   227         -3.624380507827         -3.290325361214         -2.582702500816
      0.1612777588D+00  0.1000000000D+01
 Atom C30      Shell    85 S   6     bf  228 -   228         -2.322048399012          1.471950241537         -0.987623732686
      0.3047524880D+04  0.1834737132D-02
      0.4573695180D+03  0.1403732281D-01
      0.1039486850D+03  0.6884262226D-01
      0.2921015530D+02  0.2321844432D+00
      0.9286662960D+01  0.4679413484D+00
      0.3163926960D+01  0.3623119853D+00
 Atom C30      Shell    86 SP   3    bf  229 -   232         -2.322048399012          1.471950241537         -0.987623732686
      0.7868272350D+01 -0.1193324198D+00  0.6899906659D-01
      0.1881288540D+01 -0.1608541517D+00  0.3164239610D+00
      0.5442492580D+00  0.1143456438D+01  0.7443082909D+00
 Atom C30      Shell    87 SP   1    bf  233 -   236         -2.322048399012          1.471950241537         -0.987623732686
      0.1687144782D+00  0.1000000000D+01  0.1000000000D+01
 Atom C30      Shell    88 D   1     bf  237 -   242         -2.322048399012          1.471950241537         -0.987623732686
      0.8000000000D+00  0.1000000000D+01
 Atom H31      Shell    89 S   3     bf  243 -   243         -4.072984597623          0.649260482921         -0.252116130163
      0.1873113696D+02  0.3349460434D-01
      0.2825394365D+01  0.2347269535D+00
      0.6401216923D+00  0.8137573261D+00
 Atom H31      Shell    90 S   1     bf  244 -   244         -4.072984597623          0.649260482921         -0.252116130163
      0.1612777588D+00  0.1000000000D+01
 Atom H32      Shell    91 S   3     bf  245 -   245         -2.295402485751          3.455970155769         -0.415738350838
      0.1873113696D+02  0.3349460434D-01
      0.2825394365D+01  0.2347269535D+00
      0.6401216923D+00  0.8137573261D+00
 Atom H32      Shell    92 S   1     bf  246 -   246         -2.295402485751          3.455970155769         -0.415738350838
      0.1612777588D+00  0.1000000000D+01
 Atom H33      Shell    93 S   3     bf  247 -   247         -2.444517260006          1.434658064777         -3.051453055400
      0.1873113696D+02  0.3349460434D-01
      0.2825394365D+01  0.2347269535D+00
      0.6401216923D+00  0.8137573261D+00
 Atom H33      Shell    94 S   1     bf  248 -   248         -2.444517260006          1.434658064777         -3.051453055400
      0.1612777588D+00  0.1000000000D+01
 Atom C34      Shell    95 S   6     bf  249 -   249          5.549718737557          8.019816898970          2.614293676189
      0.3047524880D+04  0.1834737132D-02
      0.4573695180D+03  0.1403732281D-01
      0.1039486850D+03  0.6884262226D-01
      0.2921015530D+02  0.2321844432D+00
      0.9286662960D+01  0.4679413484D+00
      0.3163926960D+01  0.3623119853D+00
 Atom C34      Shell    96 SP   3    bf  250 -   253          5.549718737557          8.019816898970          2.614293676189
      0.7868272350D+01 -0.1193324198D+00  0.6899906659D-01
      0.1881288540D+01 -0.1608541517D+00  0.3164239610D+00
      0.5442492580D+00  0.1143456438D+01  0.7443082909D+00
 Atom C34      Shell    97 SP   1    bf  254 -   257          5.549718737557          8.019816898970          2.614293676189
      0.1687144782D+00  0.1000000000D+01  0.1000000000D+01
 Atom C34      Shell    98 D   1     bf  258 -   263          5.549718737557          8.019816898970          2.614293676189
      0.8000000000D+00  0.1000000000D+01
 Atom C35      Shell    99 S   6     bf  264 -   264          3.995534398833          6.563672553576          6.844602717587
      0.3047524880D+04  0.1834737132D-02
      0.4573695180D+03  0.1403732281D-01
      0.1039486850D+03  0.6884262226D-01
      0.2921015530D+02  0.2321844432D+00
      0.9286662960D+01  0.4679413484D+00
      0.3163926960D+01  0.3623119853D+00
 Atom C35      Shell   100 SP   3    bf  265 -   268          3.995534398833          6.563672553576          6.844602717587
      0.7868272350D+01 -0.1193324198D+00  0.6899906659D-01
      0.1881288540D+01 -0.1608541517D+00  0.3164239610D+00
      0.5442492580D+00  0.1143456438D+01  0.7443082909D+00
 Atom C35      Shell   101 SP   1    bf  269 -   272          3.995534398833          6.563672553576          6.844602717587
      0.1687144782D+00  0.1000000000D+01  0.1000000000D+01
 Atom C35      Shell   102 D   1     bf  273 -   278          3.995534398833          6.563672553576          6.844602717587
      0.8000000000D+00  0.1000000000D+01
 Atom H36      Shell   103 S   3     bf  279 -   279          5.459896275009          5.109655661862          7.077577074756
      0.1873113696D+02  0.3349460434D-01
      0.2825394365D+01  0.2347269535D+00
      0.6401216923D+00  0.8137573261D+00
 Atom H36      Shell   104 S   1     bf  280 -   280          5.459896275009          5.109655661862          7.077577074756
      0.1612777588D+00  0.1000000000D+01
 Atom H37      Shell   105 S   3     bf  281 -   281          2.339685987798          5.902759433504          7.896483299298
      0.1873113696D+02  0.3349460434D-01
      0.2825394365D+01  0.2347269535D+00
      0.6401216923D+00  0.8137573261D+00
 Atom H37      Shell   106 S   1     bf  282 -   282          2.339685987798          5.902759433504          7.896483299298
      0.1612777588D+00  0.1000000000D+01
 Atom C38      Shell   107 S   6     bf  283 -   283          6.557646424808          7.111071053167          0.473766549145
      0.3047524880D+04  0.1834737132D-02
      0.4573695180D+03  0.1403732281D-01
      0.1039486850D+03  0.6884262226D-01
      0.2921015530D+02  0.2321844432D+00
      0.9286662960D+01  0.4679413484D+00
      0.3163926960D+01  0.3623119853D+00
 Atom C38      Shell   108 SP   3    bf  284 -   287          6.557646424808          7.111071053167          0.473766549145
      0.7868272350D+01 -0.1193324198D+00  0.6899906659D-01
      0.1881288540D+01 -0.1608541517D+00  0.3164239610D+00
      0.5442492580D+00  0.1143456438D+01  0.7443082909D+00
 Atom C38      Shell   109 SP   1    bf  288 -   291          6.557646424808          7.111071053167          0.473766549145
      0.1687144782D+00  0.1000000000D+01  0.1000000000D+01
 Atom C38      Shell   110 D   1     bf  292 -   297          6.557646424808          7.111071053167          0.473766549145
      0.8000000000D+00  0.1000000000D+01
 Atom H39      Shell   111 S   3     bf  298 -   298          8.165957414368          8.099186587079         -0.353630876316
      0.1873113696D+02  0.3349460434D-01
      0.2825394365D+01  0.2347269535D+00
      0.6401216923D+00  0.8137573261D+00
 Atom H39      Shell   112 S   1     bf  299 -   299          8.165957414368          8.099186587079         -0.353630876316
      0.1612777588D+00  0.1000000000D+01
 Atom C40      Shell   113 S   6     bf  300 -   300          0.933193157195          8.401886244963          3.632300501228
      0.3047524880D+04  0.1834737132D-02
      0.4573695180D+03  0.1403732281D-01
      0.1039486850D+03  0.6884262226D-01
      0.2921015530D+02  0.2321844432D+00
      0.9286662960D+01  0.4679413484D+00
      0.3163926960D+01  0.3623119853D+00
 Atom C40      Shell   114 SP   3    bf  301 -   304          0.933193157195          8.401886244963          3.632300501228
      0.7868272350D+01 -0.1193324198D+00  0.6899906659D-01
      0.1881288540D+01 -0.1608541517D+00  0.3164239610D+00
      0.5442492580D+00  0.1143456438D+01  0.7443082909D+00
[...]
 1528 Fit      -0.001840
 1529 Fit      -0.000836
 1530 Fit       0.000828
 1531 Fit       0.001570
 1532 Fit       0.000418
 1533 Fit       0.002772
 1534 Fit       0.003611
 1535 Fit       0.002170
 1536 Fit      -0.000002
 1537 Fit      -0.001032
 1538 Fit      -0.001251
 1539 Fit       0.001049
 1540 Fit       0.003227
 1541 Fit       0.004552
 1542 Fit       0.005174
 1543 Fit      -0.000914
 1544 Fit       0.001486
 1545 Fit       0.003682
 1546 Fit      -0.000394
 1547 Fit       0.000197
 1548 Fit       0.000966
 1549 Fit       0.000162
 1550 Fit       0.002125
 1551 Fit       0.002577
 1552 Fit       0.001917
 1553 Fit      -0.000191
 1554 Fit       0.003321
 1555 Fit       0.002633
 1556 Fit       0.001584
 1557 Fit      -0.001349
 1558 Fit       0.001402
 1559 Fit       0.000259
 1560 Fit      -0.001111
 1561 Fit       0.000279
 1562 Fit       0.001534
 1563 Fit       0.001052
 1564 Fit       0.002542
 1565 Fit       0.003809
 1566 Fit      -0.000637
 1567 Fit       0.002423
 1568 Fit       0.003369
 1569 Fit       0.002860
 1570 Fit      -0.000613
 1571 Fit      -0.002530
 1572 Fit      -0.002789
 1573 Fit      -0.002669
 1574 Fit      -0.002099
 1575 Fit       0.001915
 1576 Fit       0.000623
 1577 Fit      -0.001534
 1578 Fit       0.002753
 1579 Fit       0.001793
 1580 Fit      -0.000121
 1581 Fit       0.001674
 1582 Fit       0.002039
 1583 Fit       0.001023
 1584 Fit      -0.001159
 1585 Fit       0.000097
 1586 Fit      -0.000772
 1587 Fit       0.000360
 1588 Fit       0.002079
 1589 Fit      -0.001384
 1590 Fit       0.000749
 1591 Fit       0.002362
 1592 Fit       0.002977
 1593 Fit       0.000465
 1594 Fit      -0.000995
 1595 Fit       0.000952
 1596 Fit       0.001960
 1597 Fit       0.001785
 1598 Fit      -0.001518
 1599 Fit      -0.001484
 1600 Fit      -0.000085
 1601 Fit      -0.000108
 1602 Fit      -0.001449
 1603 Fit       0.000904
 1604 Fit       0.002654
 1605 Fit      -0.000874
 1606 Fit       0.002041
 1607 Fit       0.003477
 1608 Fit       0.000578
 1609 Fit      -0.000776
 1610 Fit       0.000109
 1611 Fit       0.001929
 1612 Fit      -0.024050
 1613 Fit      -0.020864
 1614 Fit      -0.023335
 1615 Fit      -0.026273
 1616 Fit      -0.023741
 1617 Fit      -0.019255
 1618 Fit      -0.013126
 1619 Fit      -0.013606
 1620 Fit      -0.017307
 1621 Fit      -0.022626
 1622 Fit      -0.026158
 1623 Fit      -0.025549
 1624 Fit      -0.013802
 1625 Fit      -0.011580
 1626 Fit      -0.019387
 1627 Fit      -0.024106
 1628 Fit      -0.023811
 1629 Fit      -0.004018
 1630 Fit      -0.008789
 1631 Fit      -0.017057
 1632 Fit      -0.020705
 1633 Fit      -0.018473
 1634 Fit      -0.007095
 1635 Fit      -0.013849
 1636 Fit       0.000636
 1637 Fit       0.000566
 1638 Fit       0.010699
 1639 Fit       0.010617
 1640 Fit       0.007581
 1641 Fit       0.000962
 1642 Fit       0.008366
 1643 Fit       0.016550
 1644 Fit       0.016049
 1645 Fit       0.013095
 1646 Fit       0.007227
 1647 Fit      -0.002073
 1648 Fit       0.015075
 1649 Fit       0.019195
 1650 Fit       0.017752
 1651 Fit       0.013351
 1652 Fit       0.005798
 1653 Fit       0.003880
 1654 Fit       0.003837
 1655 Fit       0.003744
 1656 Fit       0.003588
 1657 Fit       0.003599
 1658 Fit       0.000551
 1659 Fit       0.002682
 1660 Fit       0.002305
 1661 Fit       0.002864
 1662 Fit       0.003074
 1663 Fit      -0.000214
 1664 Fit       0.003254
 1665 Fit       0.002309
 1666 Fit       0.003316
 1667 Fit       0.000389
 1668 Fit       0.000736
 1669 Fit      -0.000123
 1670 Fit       0.001830
 1671 Fit       0.001552
 1672 Fit       0.002824
 1673 Fit       0.001719
 1674 Fit       0.002747
 1675 Fit       0.002976
 1676 Fit       0.004211
 1677 Fit       0.004050
 1678 Fit       0.003813
 1679 Fit       0.000934
 1680 Fit       0.001438
 1681 Fit       0.000623
 1682 Fit       0.002227
 1683 Fit       0.002041
 1684 Fit       0.000236
 1685 Fit       0.002803
 1686 Fit       0.003215
 1687 Fit      -0.000170
 1688 Fit      -0.000079
 1689 Fit       0.000711
 1690 Fit      -0.000798
 1691 Fit      -0.000453
 1692 Fit       0.003177
 1693 Fit       0.003477
 1694 Fit       0.003402
 1695 Fit       0.002853
 1696 Fit       0.002989
 1697 Fit       0.003311
 1698 Fit       0.002855
 1699 Fit       0.002571
 1700 Fit       0.002112
 1701 Fit       0.002548
 1702 Fit       0.001540
 1703 Fit       0.000815
 1704 Fit       0.000694
 1705 Fit       0.002570
 1706 Fit       0.002852
 1707 Fit       0.001949
 1708 Fit       0.002487
 1709 Fit       0.003041
 1710 Fit       0.003737
 1711 Fit       0.001126
 1712 Fit       0.002144
 1713 Fit       0.002261
 1714 Fit       0.000713
 1715 Fit       0.001359
 1716 Fit       0.002229
 1717 Fit       0.002716
 1718 Fit       0.002064
 1719 Fit       0.002522
 1720 Fit       0.003330
 1721 Fit       0.002865
 1722 Fit       0.002427
 1723 Fit       0.002373
 1724 Fit       0.002101
 1725 Fit       0.001634
 1726 Fit       0.001426
 1727 Fit       0.001246
 1728 Fit       0.001667
 1729 Fit       0.001699
 1730 Fit       0.000208
 1731 Fit      -0.000614
 1732 Fit      -0.000227
 1733 Fit       0.003750
 1734 Fit       0.003487
 1735 Fit       0.002816
 1736 Fit       0.000511
 1737 Fit       0.002275
 1738 Fit       0.002578
 1739 Fit       0.001879
 1740 Fit       0.000361
 1741 Fit       0.001232
 1742 Fit       0.003219
 1743 Fit       0.003712
 1744 Fit       0.002949
 1745 Fit       0.002864
 1746 Fit       0.003210
 1747 Fit       0.001988
 1748 Fit       0.001984
 1749 Fit       0.002403
 1750 Fit       0.000681
 1751 Fit       0.000569
 1752 Fit       0.001103
 1753 Fit       0.002812
 1754 Fit       0.002979
 1755 Fit      -0.002700
 1756 Fit       0.002582
 1757 Fit       0.003128
 1758 Fit       0.003639
 1759 Fit       0.002644
 1760 Fit       0.001298
 1761 Fit       0.001415
 1762 Fit       0.002694
 1763 Fit       0.003147
 1764 Fit       0.003136
 1765 Fit       0.002638
 1766 Fit       0.002685
 1767 Fit      -0.001148
 1768 Fit       0.003330
 1769 Fit       0.001767
 1770 Fit       0.001318
 1771 Fit       0.003485
 1772 Fit       0.002608
 1773 Fit       0.002505
 1774 Fit       0.003614
 1775 Fit       0.003055
 1776 Fit       0.002513
 1777 Fit       0.003013
 1778 Fit       0.001325
 1779 Fit       0.001035
 1780 Fit       0.000630
 1781 Fit       0.002135
 1782 Fit       0.001661
 1783 Fit       0.000832
 1784 Fit       0.003353
 1785 Fit       0.001653
 1786 Fit       0.000772
 1787 Fit      -0.000228
 1788 Fit      -0.000737
 1789 Fit       0.000124
 1790 Fit      -0.000511
 1791 Fit      -0.000391
 1792 Fit       0.000371
 1793 Fit       0.003898
 1794 Fit       0.001226
 1795 Fit       0.002399
 1796 Fit       0.001092
 1797 Fit       0.002273
 1798 Fit       0.000130
 1799 Fit       0.001295
 1800 Fit       0.001686
 1801 Fit       0.000908
 1802 Fit       0.001934
 1803 Fit       0.000544
 1804 Fit       0.003215
 1805 Fit       0.001336
 1806 Fit       0.002134
 1807 Fit       0.002102
 1808 Fit       0.001476
 1809 Fit       0.001481
 1810 Fit       0.002093
 1811 Fit       0.003273
 1812 Fit       0.003370
 1813 Fit       0.004400
 1814 Fit       0.000600
 1815 Fit       0.001325
 1816 Fit       0.000514
 1817 Fit       0.001309
 1818 Fit       0.001042
 1819 Fit       0.001641
 1820 Fit       0.001763
 1821 Fit       0.001745
 1822 Fit       0.002444
 1823 Fit       0.002664
 1824 Fit       0.002566
 1825 Fit       0.002812
 1826 Fit       0.001674
 1827 Fit      -0.000004
 1828 Fit       0.001189
 1829 Fit       0.001579
 1830 Fit       0.000311
 1831 Fit       0.001694
 1832 Fit       0.002959
 1833 Fit       0.003386
 1834 Fit       0.002374
 1835 Fit       0.003490
 1836 Fit       0.000878
 1837 Fit      -0.002912
 1838 Fit      -0.002770
 1839 Fit      -0.000574
 1840 Fit       0.001851
 1841 Fit      -0.003762
 1842 Fit      -0.006736
 1843 Fit      -0.005763
 1844 Fit      -0.002040
 1845 Fit      -0.003449
 1846 Fit       0.005279
 1847 Fit       0.001639
 1848 Fit       0.005799
 1849 Fit       0.007513
 1850 Fit       0.007793
 1851 Fit       0.003733
 1852 Fit       0.005662
 1853 Fit       0.006150
 1854 Fit       0.004668
 1855 Fit       0.000763
 1856 Fit       0.004349
 1857 Fit       0.004882
 1858 Fit       0.003951
 1859 Fit      -0.001392
 1860 Fit      -0.001371
 1861 Fit      -0.001506
 1862 Fit      -0.001766
 1863 Fit      -0.001504
 1864 Fit      -0.000368
 1865 Fit      -0.001663
 1866 Fit      -0.006000
 1867 Fit      -0.000026
 1868 Fit       0.002008
 1869 Fit      -0.000529
 1870 Fit       0.001295
 1871 Fit       0.002632
 1872 Fit       0.000293
 1873 Fit       0.001913
 1874 Fit       0.002959
 1875 Fit      -0.000413
 1876 Fit       0.001430
 1877 Fit      -0.001563
 1878 Fit      -0.001160
 1879 Fit      -0.001221
 1880 Fit      -0.000423
 1881 Fit      -0.001189
 1882 Fit      -0.001065
 1883 Fit      -0.001164
 1884 Fit      -0.000050
 1885 Fit       0.001472
 1886 Fit      -0.004228
 1887 Fit      -0.001210
 1888 Fit       0.000445
 1889 Fit       0.001945
 1890 Fit      -0.001759
 1891 Fit       0.001182
 1892 Fit       0.003404
 1893 Fit      -0.001441
 1894 Fit       0.015588
 1895 Fit       0.009202
 1896 Fit       0.010992
 1897 Fit       0.012649
 1898 Fit       0.011453
 1899 Fit       0.006758
 1900 Fit       0.007569
 1901 Fit       0.009522
 1902 Fit       0.008801
 1903 Fit       0.006126
 1904 Fit       0.001918
 1905 Fit       0.004977
 1906 Fit      -0.000328
 1907 Fit      -0.007093
 1908 Fit      -0.003175
 1909 Fit      -0.001552
 1910 Fit      -0.001989
 1911 Fit      -0.000663
 1912 Fit      -0.000907
 1913 Fit      -0.000926
 1914 Fit      -0.002949
 1915 Fit      -0.019158
 1916 Fit      -0.010325
 1917 Fit      -0.005284
 1918 Fit      -0.002058
 1919 Fit      -0.010940
 1920 Fit      -0.016193
 1921 Fit      -0.007740
 1922 Fit      -0.004042
 1923 Fit      -0.013544
 1924 Fit      -0.005787
 1925 Fit      -0.002602
 1926 Fit      -0.001177
 1927 Fit      -0.009421
 1928 Fit      -0.002678
 1929 Fit      -0.004699
 1930 Fit      -0.006268
 1931 Fit      -0.010672
 1932 Fit      -0.008275
 1933 Fit      -0.003968
 1934 Fit      -0.001797
 1935 Fit      -0.002326
 1936 Fit      -0.008601
 1937 Fit      -0.018779
 1938 Fit      -0.018208
 1939 Fit      -0.002036
 1940 Fit      -0.000492
 1941 Fit      -0.000293
 1942 Fit      -0.000683
 1943 Fit      -0.002826
 1944 Fit       0.000158
 1945 Fit      -0.002337
 1946 Fit      -0.000160
 1947 Fit      -0.000315
 1948 Fit      -0.001043
 1949 Fit      -0.000954
 1950 Fit      -0.000196
 1951 Fit       0.002155
 1952 Fit       0.002517
 1953 Fit       0.002644
 1954 Fit       0.000622
 1955 Fit       0.001312
 1956 Fit       0.001759
 1957 Fit       0.001775
 1958 Fit       0.001378
 1959 Fit      -0.000009
 1960 Fit       0.000529
 1961 Fit       0.000581
 1962 Fit       0.000060
 1963 Fit      -0.000954
 1964 Fit      -0.000868
 1965 Fit       0.002532
 1966 Fit       0.000429
 1967 Fit      -0.000851
 1968 Fit       0.001410
 1969 Fit       0.002080
 1970 Fit       0.000856
 1971 Fit       0.000530
 1972 Fit       0.001272
 1973 Fit       0.001521
 1974 Fit      -0.007883
 1975 Fit      -0.002645
 1976 Fit      -0.001505
 1977 Fit       0.001128
 1978 Fit       0.000225
 1979 Fit       0.004242
 1980 Fit       0.002519
 1981 Fit       0.002967
 1982 Fit       0.007461
 1983 Fit       0.000872
 1984 Fit       0.002104
 1985 Fit       0.004100
 1986 Fit       0.007759
 1987 Fit       0.001880
 1988 Fit      -0.000589
 1989 Fit       0.000459
 1990 Fit      -0.001079
 1991 Fit      -0.001268
 1992 Fit      -0.001535
 1993 Fit      -0.001709
 1994 Fit      -0.001350
 1995 Fit      -0.000453
 1996 Fit      -0.000243
 1997 Fit       0.000245
 1998 Fit       0.000488
 1999 Fit       0.001876
 2000 Fit      -0.000043
 2001 Fit       0.001989
 2002 Fit       0.003493
 2003 Fit      -0.000332
 2004 Fit      -0.000085
 2005 Fit      -0.001181
 2006 Fit       0.000167
 2007 Fit       0.001105
 2008 Fit       0.001349
 2009 Fit       0.000781
 2010 Fit       0.001842
 2011 Fit       0.002385
 2012 Fit       0.000502
 2013 Fit       0.001758
 2014 Fit       0.000474
 2015 Fit       0.003303
 2016 Fit       0.001483
 2017 Fit      -0.000668
 2018 Fit       0.002273
 2019 Fit       0.000199
 2020 Fit       0.002237
 2021 Fit       0.002046
 2022 Fit       0.001992
 2023 Fit       0.000412
 2024 Fit       0.001966
 2025 Fit       0.001451
 2026 Fit       0.000595
 2027 Fit       0.001415
 2028 Fit       0.002322
 2029 Fit       0.001635
 2030 Fit       0.003675
 2031 Fit       0.002844
 2032 Fit      -0.001290
 2033 Fit       0.000195
 2034 Fit       0.000487
 2035 Fit       0.001697
 2036 Fit       0.001649
 2037 Fit       0.001641
 2038 Fit       0.002627
 2039 Fit       0.002324
 2040 Fit       0.002501
 2041 Fit       0.002257
 2042 Fit       0.002212
 2043 Fit       0.002102
 2044 Fit       0.003749
 2045 Fit       0.000566
 2046 Fit       0.000610
 2047 Fit      -0.001609
 2048 Fit       0.001045
 2049 Fit       0.000236
 2050 Fit       0.000820
 2051 Fit       0.001038
 2052 Fit       0.001030
 2053 Fit       0.001296
 2054 Fit       0.001021
 2055 Fit      -0.000044
 2056 Fit       0.000774
 2057 Fit       0.001113
 2058 Fit       0.001113
 2059 Fit       0.001051
 2060 Fit       0.000604
 2061 Fit       0.000530
 2062 Fit       0.000298
 2063 Fit       0.000696
 2064 Fit      -0.000032
 2065 Fit      -0.000578
 2066 Fit      -0.000963
 2067 Fit      -0.001028
 2068 Fit      -0.000958
 2069 Fit      -0.001133
 2070 Fit      -0.001210
 2071 Fit      -0.000310
 2072 Fit      -0.001167
 2073 Fit      -0.000700
 2074 Fit      -0.001056
 2075 Fit       0.001347
 2076 Fit       0.000576
 2077 Fit       0.002226
 2078 Fit       0.002853
 2079 Fit       0.001843
 2080 Fit       0.000334
 2081 Fit      -0.000360
 2082 Fit      -0.000474
 2083 Fit       0.001199
 2084 Fit       0.002850
 2085 Fit       0.003861
 2086 Fit       0.004217
 2087 Fit      -0.000092
 2088 Fit       0.001758
 2089 Fit       0.003520
 2090 Fit       0.004638
 2091 Fit       0.003196
 2092 Fit      -0.000330
 2093 Fit       0.000153
 2094 Fit       0.000567
 2095 Fit       0.000069
 2096 Fit       0.001496
 2097 Fit       0.001784
 2098 Fit       0.001291
 2099 Fit       0.000049
 2100 Fit       0.002479
 2101 Fit       0.002118
 2102 Fit       0.001318
 2103 Fit      -0.000457
 2104 Fit       0.001641
 2105 Fit       0.000755
 2106 Fit      -0.000301
 2107 Fit       0.000600
 2108 Fit      -0.000005
 2109 Fit       0.001117
 2110 Fit       0.002242
 2111 Fit       0.001305
 2112 Fit       0.002466
 2113 Fit       0.003519
 2114 Fit       0.000062
 2115 Fit       0.002151
 2116 Fit       0.002778
 2117 Fit       0.000122
 2118 Fit      -0.000816
 2119 Fit      -0.001263
 2120 Fit      -0.001539
 2121 Fit      -0.001930
 2122 Fit      -0.001611
 2123 Fit      -0.001277
 2124 Fit      -0.000239
 2125 Fit      -0.001951
 2126 Fit      -0.001828
 2127 Fit      -0.001246
 2128 Fit       0.001247
 2129 Fit       0.000301
 2130 Fit       0.002440
 2131 Fit       0.001796
 2132 Fit       0.000757
 2133 Fit      -0.000725
 2134 Fit       0.002235
 2135 Fit       0.001865
 2136 Fit       0.000892
 2137 Fit      -0.000618
 2138 Fit       0.001014
 2139 Fit       0.001239
 2140 Fit       0.000482
 2141 Fit      -0.001058
 2142 Fit      -0.000112
 2143 Fit      -0.000787
 2144 Fit       0.001671
 2145 Fit       0.000703
 2146 Fit       0.001866
 2147 Fit       0.002572
 2148 Fit       0.000007
 2149 Fit       0.001259
 2150 Fit       0.001922
 2151 Fit       0.001960
 2152 Fit      -0.000401
 2153 Fit      -0.000769
 2154 Fit       0.000418
 2155 Fit       0.000963
 2156 Fit       0.000701
 2157 Fit      -0.000685
 2158 Fit      -0.000646
 2159 Fit      -0.000178
 2160 Fit       0.001095
 2161 Fit       0.002342
 2162 Fit      -0.001379
 2163 Fit      -0.000236
 2164 Fit       0.001671
 2165 Fit       0.002735
 2166 Fit       0.000741
 2167 Fit      -0.000281
 2168 Fit       0.000287
 2169 Fit       0.001547
 -----------------------------------------------------------------
 Leave Link  602 at Tue Mar 21 12:16:00 2017, MaxMem=    33554432 cpu:         3.2
 (Enter /home/michal/g09/l9999.exe)

 Test job not archived.
 1\1\GINC-LINUX\SP\RHF\6-31G(d)\C27H46O1\MICHAL\21-Mar-2017\0\\#P HF/6-
 31G* SCF(Conver=6) NoSymm Test Pop=mk IOp(6/33=2) GFInput GFPrint\\MEP
  - Input generated by R.E.D.-III.x MOLECULE\\0,1\O,0,4.21091973,6.5502
 8688,4.12471839\H,0,4.98992141,6.90111531,3.67303491\C,0,0.,0.,0.\C,0,
 1.34508521,0.61900577,-0.4733784\H,0,2.12678315,0.,0.\C,0,1.61229756,2
 .05368656,0.\H,0,0.84792158,2.72189063,-0.42146413\C,0,1.54650077,2.11
 757919,1.54852684\H,0,2.41021537,1.531228,1.90370826\C,0,0.09280666,-1
 .40301837,-0.69489944\H,0,0.85128848,-1.96366848,-0.12807877\C,0,0.034
 08114,0.00948087,1.54203152\H,0,0.83643876,-0.66242393,1.88002665\H,0,
 -0.89641833,-0.37689872,1.97020426\C,0,1.76159996,3.56917358,2.1047896
 2\C,0,1.40135469,0.31024143,-1.97788608\H,0,2.42679961,0.28395756,-2.3
 5986187\H,0,0.8707248,1.07988715,-2.55213443\C,0,0.27952101,1.42573827
 ,2.10306746\H,0,-0.60204459,2.04056872,1.89284893\H,0,0.34445562,1.358
 39613,3.19496727\C,0,0.69120091,-1.06691274,-2.10077955\H,0,-0.1060354
 6,-1.0248391,-2.85221512\H,0,1.38191281,-1.84904048,-2.43101306\C,0,2.
 98568735,2.54572309,-0.48460697\H,0,2.95163861,2.75916521,-1.56128185\
 H,0,3.72641991,1.73651584,-0.37185068\C,0,-1.16845062,-2.29720936,-0.7
 8394266\H,0,-1.91793956,-1.74116519,-1.3667073\C,0,-1.22877509,0.77892
 252,-0.52262797\H,0,-2.15533062,0.34357385,-0.13341411\H,0,-1.21467468
 ,1.82882064,-0.21999926\H,0,-1.29358282,0.75918835,-1.61475941\C,0,2.9
 3678467,4.24390432,1.38342463\C,0,2.11434574,3.47334592,3.62200776\H,0
 ,2.88925267,2.70391332,3.74529248\H,0,1.2381085,3.12360576,4.17863899\
 C,0,3.47015703,3.76301673,0.25070646\H,0,4.32123855,4.28590495,-0.1871
 334\C,0,0.49382455,4.44608671,1.92213064\H,0,-0.32439024,4.10518097,2.
 5642744\H,0,0.68826994,5.49066961,2.17762989\H,0,0.14653707,4.4272306,
 0.88445821\C,0,3.48754523,5.5077763,2.01748031\H,0,4.3750471,5.8386095
 ,1.46271586\H,0,2.75490709,6.32508665,1.95834673\C,0,2.61839813,4.7792
 6026,4.25342666\H,0,1.83705878,5.54948858,4.24918423\H,0,2.88535357,4.
 60921549,5.3026654\C,0,-0.91342987,-3.58857512,-1.61386485\H,0,-1.8554
 4235,-4.15447816,-1.64893587\H,0,-0.71825128,-3.28295146,-2.64869637\C
 ,0,3.82928346,5.31722001,3.50236677\H,0,4.6550711,4.59173243,3.5891245
 6\C,0,-1.81098821,-2.59912513,0.58373965\H,0,-1.0779685,-2.94566356,1.
 31886427\H,0,-2.57718166,-3.37657312,0.48704979\H,0,-2.29850812,-1.714
 31192,1.00218704\C,0,0.22155299,-4.55216397,-1.19937946\H,0,0.41556016
 ,-5.19833588,-2.06506414\H,0,1.14836123,-3.98787762,-1.04003809\C,0,-0
 .06216086,-5.4466004,0.02070906\H,0,-1.055293,-5.90292738,-0.10094504\
 H,0,-0.12071443,-4.8322217,0.92640315\C,0,0.96059854,-6.57896479,0.282
 49961\H,0,0.61936206,-7.08443634,1.19809421\C,0,2.3753265,-6.04488812,
 0.56242593\H,0,2.36836461,-5.29709529,1.36430324\H,0,3.04540764,-6.856
 26036,0.86892288\H,0,2.81376192,-5.57758459,-0.32695172\C,0,0.98075102
 ,-7.63881962,-0.83171126\H,0,-0.02444043,-8.03030765,-1.02759609\H,0,1
 .61932763,-8.48441815,-0.55157939\H,0,1.37163569,-7.23466992,-1.772565
 64\\Version=EM64L-G09RevD.01\HF=-1124.0729854\RMSD=4.664e-07\Dipole=0.
 1775832,-0.3658154,-0.5293389\Quadrupole=8.5147574,-4.2972164,-4.21754
 1,1.4911011,-3.1450771,-9.0706577\PG=C01 [X(C27H46O1)]\\@


    UPON JULIA'S CLOTHES

 WHENAS IN SILKS MY JULIA GOES,
 THEN, THEN, METHINKS, HOW SWEETLY FLOWS
 THAT LIQUEFACTION OF HER CLOTHES.

 NEXT, WHEN I CAST MINE EYES, AND SEE
 THAT BRAVE VIBRATION, EACH WAY FREE,
 O, HOW THAT GLITTERING TAKETH ME!
     -- ROBERT HERRICK, 1648
 Job cpu time:       0 days  0 hours 10 minutes 30.2 seconds.
 File lengths (MBytes):  RWF=    142 Int=      0 D2E=      0 Chk=     10 Scr=      1
 Normal termination of Gaussian 09 at Tue Mar 21 12:16:00 2017.
