 Entering Gaussian System, Link 0=/home/michal/g09/g09
 Input=JOB2-gau_m1-15-3.com
 Output=JOB2-gau_m1-15-3.log
 Initial command:
 /home/michal/g09/l1.exe "/home/michal/gauss_scratch/Gau-19273.inp" -scrdir="/home/michal/gauss_scratch/"
 Entering Link 1 = /home/michal/g09/l1.exe PID=     19274.
  
 Copyright (c) 1988,1990,1992,1993,1995,1998,2003,2009,2013,
            Gaussian, Inc.  All Rights Reserved.
  
 This is part of the Gaussian(R) 09 program.  It is based on
 the Gaussian(R) 03 system (copyright 2003, Gaussian, Inc.),
 the Gaussian(R) 98 system (copyright 1998, Gaussian, Inc.),
 the Gaussian(R) 94 system (copyright 1995, Gaussian, Inc.),
 the Gaussian 92(TM) system (copyright 1992, Gaussian, Inc.),
 the Gaussian 90(TM) system (copyright 1990, Gaussian, Inc.),
 the Gaussian 88(TM) system (copyright 1988, Gaussian, Inc.),
 the Gaussian 86(TM) system (copyright 1986, Carnegie Mellon
 University), and the Gaussian 82(TM) system (copyright 1983,
 Carnegie Mellon University). Gaussian is a federally registered
 trademark of Gaussian, Inc.
  
 This software contains proprietary and confidential information,
 including trade secrets, belonging to Gaussian, Inc.
  
 This software is provided under written license and may be
 used, copied, transmitted, or stored only in accord with that
 written license.
  
 The following legend is applicable only to US Government
 contracts under FAR:
  
                    RESTRICTED RIGHTS LEGEND
  
 Use, reproduction and disclosure by the US Government is
 subject to restrictions as set forth in subparagraphs (a)
 and (c) of the Commercial Computer Software - Restricted
 Rights clause in FAR 52.227-19.
  
 Gaussian, Inc.
 340 Quinnipiac St., Bldg. 40, Wallingford CT 06492
  
  
 ---------------------------------------------------------------
 Warning -- This program may not be used in any manner that
 competes with the business of Gaussian, Inc. or will provide
 assistance to any competitor of Gaussian, Inc.  The licensee
 of this program is prohibited from giving any competitor of
 Gaussian, Inc. access to this program.  By using this program,
 the user acknowledges that Gaussian, Inc. is engaged in the
 business of creating and licensing software in the field of
 computational chemistry and represents and warrants to the
 licensee that it is not a competitor of Gaussian, Inc. and that
 it will not use this program in any manner prohibited above.
 ---------------------------------------------------------------
  

 Cite this work as:
 Gaussian 09, Revision D.01,
 M. J. Frisch, G. W. Trucks, H. B. Schlegel, G. E. Scuseria, 
 M. A. Robb, J. R. Cheeseman, G. Scalmani, V. Barone, B. Mennucci, 
 G. A. Petersson, H. Nakatsuji, M. Caricato, X. Li, H. P. Hratchian, 
 A. F. Izmaylov, J. Bloino, G. Zheng, J. L. Sonnenberg, M. Hada, 
 M. Ehara, K. Toyota, R. Fukuda, J. Hasegawa, M. Ishida, T. Nakajima, 
 Y. Honda, O. Kitao, H. Nakai, T. Vreven, J. A. Montgomery, Jr., 
 J. E. Peralta, F. Ogliaro, M. Bearpark, J. J. Heyd, E. Brothers, 
 K. N. Kudin, V. N. Staroverov, T. Keith, R. Kobayashi, J. Normand, 
 K. Raghavachari, A. Rendell, J. C. Burant, S. S. Iyengar, J. Tomasi, 
 M. Cossi, N. Rega, J. M. Millam, M. Klene, J. E. Knox, J. B. Cross, 
 V. Bakken, C. Adamo, J. Jaramillo, R. Gomperts, R. E. Stratmann, 
 O. Yazyev, A. J. Austin, R. Cammi, C. Pomelli, J. W. Ochterski, 
 R. L. Martin, K. Morokuma, V. G. Zakrzewski, G. A. Voth, 
 P. Salvador, J. J. Dannenberg, S. Dapprich, A. D. Daniels, 
 O. Farkas, J. B. Foresman, J. V. Ortiz, J. Cioslowski, 
 and D. J. Fox, Gaussian, Inc., Wallingford CT, 2013.
 
 ******************************************
 Gaussian 09:  EM64L-G09RevD.01 24-Apr-2013
                21-Mar-2017 
 ******************************************
 %Mem=256MB
 %NProc=12
 Will use up to   12 processors via shared memory.
 ----------------------------------------------------------------------
 #P HF/6-31G* SCF(Conver=6) NoSymm Test Pop=mk IOp(6/33=2) GFInput GFPr
 int
 ----------------------------------------------------------------------
 1/38=1/1;
 2/12=2,15=1,17=6,18=5,40=1/2;
 3/5=1,6=6,7=1,11=9,16=1,24=110,25=1,30=1/1,2,3;
 4//1;
 5/5=2,6=6,38=5/2;
 6/7=2,8=2,9=2,10=2,15=8,20=1,28=1,33=2/1,2;
 99/5=1,9=1/99;
 Leave Link    1 at Tue Mar 21 12:39:14 2017, MaxMem=    33554432 cpu:         0.6
 (Enter /home/michal/g09/l101.exe)
 ----------------------------------------------
 MEP - Input generated by R.E.D.-III.x MOLECULE
 ----------------------------------------------
 Symbolic Z-matrix:
 Charge =  0 Multiplicity = 1
 O                    -3.73847  -3.59039  -4.13636 
 H                    -3.88428  -4.43546  -3.69077 
 C                     1.59822   2.06697   0. 
 C                     1.32592   0.60945   0.4737 
 H                     2.11434   0.        0. 
 C                     0.        0.        0. 
 H                    -0.83667   0.5677    0.43071 
 C                    -0.08571   0.06321  -1.54861 
 H                     0.69344  -0.62628  -1.91402 
 C                     2.9921    2.29059   0.68271 
 H                     3.67032   1.61858   0.13927 
 C                     1.58984   2.04065  -1.54088 
 H                     2.43015   1.4249   -1.89146 
 H                     1.73954   3.04368  -1.95778 
 C                    -1.4425   -0.49843  -2.10246 
 C                     1.64189   0.63444   1.98007 
 H                     1.91424  -0.35349   2.36474 
 H                     0.76707   0.96631   2.55299 
 C                     0.26992   1.46619  -2.09575 
 H                    -0.53848   2.16999  -1.87167 
 H                     0.34065   1.42752  -3.18862 
 C                     2.80859   1.65681   2.0991 
 H                     2.57964   2.41968   2.84995 
 H                     3.73936   1.17841   2.42338 
 C                    -0.13346  -1.45738   0.47053 
 H                    -0.34161  -1.48775   1.54835 
 H                     0.8328   -1.97414   0.34616 
 C                     3.73734   3.65632   0.72115 
 H                     4.64484   3.43737   1.30793 
 C                     0.52547   3.05216   0.52009 
 H                     0.64155   4.03292   0.04977 
 H                    -0.48784   2.70892   0.29729 
 H                     0.5852    3.1975    1.60182 
 C                    -1.8031   -1.80997  -1.39042 
 C                    -1.27103  -0.8038   -3.62342 
 H                    -0.33471  -1.36347  -3.75679 
 H                    -1.15186   0.1363   -4.17293 
 C                    -1.19859  -2.21949  -0.2654 
 H                    -1.49349  -3.17714   0.16518 
 C                    -2.60366   0.51252  -1.90513 
 H                    -2.47681   1.3959   -2.53884 
 H                    -3.5691    0.06949  -2.16173 
 H                    -2.66715   0.8433   -0.86386 
 C                    -2.89628  -2.64914  -2.02551 
 H                    -2.99592  -3.5952   -1.47788 
 H                    -3.86832  -2.14046  -1.95735 
 C                    -2.41541  -1.60944  -4.25559 
 H                    -3.35456  -1.04234  -4.24244 
 H                    -2.18977  -1.81789  -5.30759 
 C                     4.23458   4.16141  -0.65436 
 H                     3.37599   4.36026  -1.30934 
 H                     4.71275   5.13804  -0.49125 
 C                    -2.63461  -2.9215   -3.51387 
 H                    -1.72834  -3.54219  -3.60979 
 C                     3.03095   4.8139    1.45584 
 H                     2.23761   5.26187   0.85054 
 H                     3.75611   5.60594   1.67478 
 H                     2.59025   4.50558   2.40829 
 C                     5.2412    3.2595   -1.38577 
 H                     6.06668   3.02376  -0.70017 
 H                     4.77138   2.30417  -1.64461 
 C                     5.79267   3.92079  -2.65964 
 H                     6.25564   4.87975  -2.3853 
 H                     4.94835   4.17087  -3.31839 
 C                     6.81967   3.10284  -3.47698 
 H                     7.09259   3.73445  -4.33537 
 C                     6.22672   1.80265  -4.04493 
 H                     5.30824   1.99672  -4.6113 
 H                     6.93762   1.31233  -4.71981 
 H                     5.98514   1.0873   -3.25031 
 C                     8.11291   2.82355  -2.69327 
 H                     8.54496   3.74845  -2.29328 
 H                     8.86566   2.35496  -3.33749 
 H                     7.93656   2.14505  -1.85063 
 
 NAtoms=     74 NQM=       74 NQMF=       0 NMMI=      0 NMMIF=      0
                NMic=       0 NMicF=      0.
                    Isotopes and Nuclear Properties:
 (Nuclear quadrupole moments (NQMom) in fm**2, nuclear magnetic moments (NMagM)
  in nuclear magnetons)

  Atom         1           2           3           4           5           6           7           8           9          10
 IAtWgt=          16           1          12          12           1          12           1          12           1          12
 AtmWgt=  15.9949146   1.0078250  12.0000000  12.0000000   1.0078250  12.0000000   1.0078250  12.0000000   1.0078250  12.0000000
 NucSpn=           0           1           0           0           1           0           1           0           1           0
 AtZEff=   0.0000000   0.0000000   0.0000000   0.0000000   0.0000000   0.0000000   0.0000000   0.0000000   0.0000000   0.0000000
 NQMom=    0.0000000   0.0000000   0.0000000   0.0000000   0.0000000   0.0000000   0.0000000   0.0000000   0.0000000   0.0000000
 NMagM=    0.0000000   2.7928460   0.0000000   0.0000000   2.7928460   0.0000000   2.7928460   0.0000000   2.7928460   0.0000000
 AtZNuc=   8.0000000   1.0000000   6.0000000   6.0000000   1.0000000   6.0000000   1.0000000   6.0000000   1.0000000   6.0000000

  Atom        11          12          13          14          15          16          17          18          19          20
 IAtWgt=           1          12           1           1          12          12           1           1          12           1
 AtmWgt=   1.0078250  12.0000000   1.0078250   1.0078250  12.0000000  12.0000000   1.0078250   1.0078250  12.0000000   1.0078250
 NucSpn=           1           0           1           1           0           0           1           1           0           1
 AtZEff=   0.0000000   0.0000000   0.0000000   0.0000000   0.0000000   0.0000000   0.0000000   0.0000000   0.0000000   0.0000000
 NQMom=    0.0000000   0.0000000   0.0000000   0.0000000   0.0000000   0.0000000   0.0000000   0.0000000   0.0000000   0.0000000
 NMagM=    2.7928460   0.0000000   2.7928460   2.7928460   0.0000000   0.0000000   2.7928460   2.7928460   0.0000000   2.7928460
 AtZNuc=   1.0000000   6.0000000   1.0000000   1.0000000   6.0000000   6.0000000   1.0000000   1.0000000   6.0000000   1.0000000

  Atom        21          22          23          24          25          26          27          28          29          30
 IAtWgt=           1          12           1           1          12           1           1          12           1          12
 AtmWgt=   1.0078250  12.0000000   1.0078250   1.0078250  12.0000000   1.0078250   1.0078250  12.0000000   1.0078250  12.0000000
 NucSpn=           1           0           1           1           0           1           1           0           1           0
 AtZEff=   0.0000000   0.0000000   0.0000000   0.0000000   0.0000000   0.0000000   0.0000000   0.0000000   0.0000000   0.0000000
 NQMom=    0.0000000   0.0000000   0.0000000   0.0000000   0.0000000   0.0000000   0.0000000   0.0000000   0.0000000   0.0000000
 NMagM=    2.7928460   0.0000000   2.7928460   2.7928460   0.0000000   2.7928460   2.7928460   0.0000000   2.7928460   0.0000000
 AtZNuc=   1.0000000   6.0000000   1.0000000   1.0000000   6.0000000   1.0000000   1.0000000   6.0000000   1.0000000   6.0000000

  Atom        31          32          33          34          35          36          37          38          39          40
 IAtWgt=           1           1           1          12          12           1           1          12           1          12
 AtmWgt=   1.0078250   1.0078250   1.0078250  12.0000000  12.0000000   1.0078250   1.0078250  12.0000000   1.0078250  12.0000000
 NucSpn=           1           1           1           0           0           1           1           0           1           0
 AtZEff=   0.0000000   0.0000000   0.0000000   0.0000000   0.0000000   0.0000000   0.0000000   0.0000000   0.0000000   0.0000000
 NQMom=    0.0000000   0.0000000   0.0000000   0.0000000   0.0000000   0.0000000   0.0000000   0.0000000   0.0000000   0.0000000
 NMagM=    2.7928460   2.7928460   2.7928460   0.0000000   0.0000000   2.7928460   2.7928460   0.0000000   2.7928460   0.0000000
 AtZNuc=   1.0000000   1.0000000   1.0000000   6.0000000   6.0000000   1.0000000   1.0000000   6.0000000   1.0000000   6.0000000

  Atom        41          42          43          44          45          46          47          48          49          50
 IAtWgt=           1           1           1          12           1           1          12           1           1          12
 AtmWgt=   1.0078250   1.0078250   1.0078250  12.0000000   1.0078250   1.0078250  12.0000000   1.0078250   1.0078250  12.0000000
 NucSpn=           1           1           1           0           1           1           0           1           1           0
 AtZEff=   0.0000000   0.0000000   0.0000000   0.0000000   0.0000000   0.0000000   0.0000000   0.0000000   0.0000000   0.0000000
 NQMom=    0.0000000   0.0000000   0.0000000   0.0000000   0.0000000   0.0000000   0.0000000   0.0000000   0.0000000   0.0000000
 NMagM=    2.7928460   2.7928460   2.7928460   0.0000000   2.7928460   2.7928460   0.0000000   2.7928460   2.7928460   0.0000000
 AtZNuc=   1.0000000   1.0000000   1.0000000   6.0000000   1.0000000   1.0000000   6.0000000   1.0000000   1.0000000   6.0000000

  Atom        51          52          53          54          55          56          57          58          59          60
 IAtWgt=           1           1          12           1          12           1           1           1          12           1
 AtmWgt=   1.0078250   1.0078250  12.0000000   1.0078250  12.0000000   1.0078250   1.0078250   1.0078250  12.0000000   1.0078250
 NucSpn=           1           1           0           1           0           1           1           1           0           1
 AtZEff=   0.0000000   0.0000000   0.0000000   0.0000000   0.0000000   0.0000000   0.0000000   0.0000000   0.0000000   0.0000000
 NQMom=    0.0000000   0.0000000   0.0000000   0.0000000   0.0000000   0.0000000   0.0000000   0.0000000   0.0000000   0.0000000
 NMagM=    2.7928460   2.7928460   0.0000000   2.7928460   0.0000000   2.7928460   2.7928460   2.7928460   0.0000000   2.7928460
 AtZNuc=   1.0000000   1.0000000   6.0000000   1.0000000   6.0000000   1.0000000   1.0000000   1.0000000   6.0000000   1.0000000

  Atom        61          62          63          64          65          66          67          68          69          70
 IAtWgt=           1          12           1           1          12           1          12           1           1           1
 AtmWgt=   1.0078250  12.0000000   1.0078250   1.0078250  12.0000000   1.0078250  12.0000000   1.0078250   1.0078250   1.0078250
 NucSpn=           1           0           1           1           0           1           0           1           1           1
 AtZEff=   0.0000000   0.0000000   0.0000000   0.0000000   0.0000000   0.0000000   0.0000000   0.0000000   0.0000000   0.0000000
 NQMom=    0.0000000   0.0000000   0.0000000   0.0000000   0.0000000   0.0000000   0.0000000   0.0000000   0.0000000   0.0000000
 NMagM=    2.7928460   0.0000000   2.7928460   2.7928460   0.0000000   2.7928460   0.0000000   2.7928460   2.7928460   2.7928460
 AtZNuc=   1.0000000   6.0000000   1.0000000   1.0000000   6.0000000   1.0000000   6.0000000   1.0000000   1.0000000   1.0000000

  Atom        71          72          73          74
 IAtWgt=          12           1           1           1
 AtmWgt=  12.0000000   1.0078250   1.0078250   1.0078250
 NucSpn=           0           1           1           1
 AtZEff=   0.0000000   0.0000000   0.0000000   0.0000000
 NQMom=    0.0000000   0.0000000   0.0000000   0.0000000
 NMagM=    0.0000000   2.7928460   2.7928460   2.7928460
 AtZNuc=   6.0000000   1.0000000   1.0000000   1.0000000
 Leave Link  101 at Tue Mar 21 12:39:14 2017, MaxMem=    33554432 cpu:         1.0
 (Enter /home/michal/g09/l202.exe)
 Symmetry turned off by external request.
 Stoichiometry    C27H46O
 Framework group  C1[X(C27H46O)]
 Deg. of freedom   216
 Full point group                 C1      NOp   1
                          Input orientation:                          
 ---------------------------------------------------------------------
 Center     Atomic      Atomic             Coordinates (Angstroms)
 Number     Number       Type             X           Y           Z
 ---------------------------------------------------------------------
      1          8           0       -3.738467   -3.590391   -4.136358
      2          1           0       -3.884283   -4.435459   -3.690771
      3          6           0        1.598222    2.066968    0.000000
      4          6           0        1.325917    0.609446    0.473699
      5          1           0        2.114344    0.000000    0.000000
      6          6           0        0.000000    0.000000    0.000000
      7          1           0       -0.836665    0.567699    0.430706
      8          6           0       -0.085712    0.063210   -1.548606
      9          1           0        0.693440   -0.626284   -1.914023
     10          6           0        2.992096    2.290589    0.682709
     11          1           0        3.670324    1.618584    0.139269
     12          6           0        1.589845    2.040648   -1.540875
     13          1           0        2.430149    1.424904   -1.891455
     14          1           0        1.739545    3.043679   -1.957780
     15          6           0       -1.442502   -0.498426   -2.102464
     16          6           0        1.641885    0.634440    1.980071
     17          1           0        1.914242   -0.353488    2.364743
     18          1           0        0.767068    0.966305    2.552988
     19          6           0        0.269920    1.466194   -2.095755
     20          1           0       -0.538478    2.169992   -1.871665
     21          1           0        0.340652    1.427523   -3.188623
     22          6           0        2.808589    1.656808    2.099097
     23          1           0        2.579636    2.419675    2.849946
     24          1           0        3.739356    1.178411    2.423382
     25          6           0       -0.133463   -1.457382    0.470529
     26          1           0       -0.341609   -1.487748    1.548353
     27          1           0        0.832797   -1.974141    0.346161
     28          6           0        3.737343    3.656317    0.721149
     29          1           0        4.644844    3.437365    1.307925
     30          6           0        0.525468    3.052157    0.520087
     31          1           0        0.641555    4.032921    0.049772
     32          1           0       -0.487840    2.708917    0.297291
     33          1           0        0.585197    3.197496    1.601821
     34          6           0       -1.803096   -1.809966   -1.390418
     35          6           0       -1.271031   -0.803799   -3.623416
     36          1           0       -0.334714   -1.363467   -3.756788
     37          1           0       -1.151865    0.136300   -4.172928
     38          6           0       -1.198593   -2.219492   -0.265395
     39          1           0       -1.493486   -3.177138    0.165183
     40          6           0       -2.603655    0.512521   -1.905135
     41          1           0       -2.476813    1.395900   -2.538839
     42          1           0       -3.569102    0.069485   -2.161735
     43          1           0       -2.667153    0.843302   -0.863862
     44          6           0       -2.896277   -2.649142   -2.025507
     45          1           0       -2.995924   -3.595198   -1.477879
     46          1           0       -3.868320   -2.140458   -1.957346
     47          6           0       -2.415409   -1.609439   -4.255588
     48          1           0       -3.354562   -1.042344   -4.242441
     49          1           0       -2.189770   -1.817893   -5.307593
     50          6           0        4.234584    4.161405   -0.654355
     51          1           0        3.375992    4.360263   -1.309345
     52          1           0        4.712755    5.138043   -0.491247
     53          6           0       -2.634608   -2.921501   -3.513865
     54          1           0       -1.728339   -3.542191   -3.609791
     55          6           0        3.030955    4.813896    1.455845
     56          1           0        2.237609    5.261873    0.850544
     57          1           0        3.756110    5.605936    1.674778
     58          1           0        2.590250    4.505585    2.408289
     59          6           0        5.241203    3.259496   -1.385768
     60          1           0        6.066676    3.023761   -0.700168
     61          1           0        4.771379    2.304170   -1.644614
     62          6           0        5.792670    3.920789   -2.659641
     63          1           0        6.255641    4.879752   -2.385302
     64          1           0        4.948349    4.170871   -3.318393
     65          6           0        6.819669    3.102842   -3.476979
     66          1           0        7.092586    3.734447   -4.335373
     67          6           0        6.226721    1.802651   -4.044927
     68          1           0        5.308237    1.996720   -4.611302
     69          1           0        6.937615    1.312333   -4.719813
     70          1           0        5.985139    1.087303   -3.250308
     71          6           0        8.112911    2.823546   -2.693266
     72          1           0        8.544960    3.748451   -2.293281
     73          1           0        8.865658    2.354957   -3.337492
     74          1           0        7.936563    2.145046   -1.850634
 ---------------------------------------------------------------------
 Rotational constants (GHZ):      0.2652520      0.0806543      0.0691582
 Leave Link  202 at Tue Mar 21 12:39:14 2017, MaxMem=    33554432 cpu:         0.0
 (Enter /home/michal/g09/l301.exe)
 Standard basis: 6-31G(d) (6D, 7F)
 Ernie: Thresh=  0.10000D-02 Tol=  0.10000D-05 Strict=F.
 AO basis set in the form of general basis input (Overlap normalization):
      1 0
 S   6 1.00       0.000000000000
      0.5484671660D+04  0.1831074430D-02
      0.8252349460D+03  0.1395017220D-01
      0.1880469580D+03  0.6844507810D-01
      0.5296450000D+02  0.2327143360D+00
      0.1689757040D+02  0.4701928980D+00
      0.5799635340D+01  0.3585208530D+00
 SP   3 1.00       0.000000000000
      0.1553961625D+02 -0.1107775495D+00  0.7087426823D-01
      0.3599933586D+01 -0.1480262627D+00  0.3397528391D+00
      0.1013761750D+01  0.1130767015D+01  0.7271585773D+00
 SP   1 1.00       0.000000000000
      0.2700058226D+00  0.1000000000D+01  0.1000000000D+01
 D   1 1.00       0.000000000000
      0.8000000000D+00  0.1000000000D+01
 ****
      2 0
 S   3 1.00       0.000000000000
      0.1873113696D+02  0.3349460434D-01
      0.2825394365D+01  0.2347269535D+00
      0.6401216923D+00  0.8137573261D+00
 S   1 1.00       0.000000000000
      0.1612777588D+00  0.1000000000D+01
 ****
      3 0
 S   6 1.00       0.000000000000
      0.3047524880D+04  0.1834737132D-02
      0.4573695180D+03  0.1403732281D-01
      0.1039486850D+03  0.6884262226D-01
      0.2921015530D+02  0.2321844432D+00
      0.9286662960D+01  0.4679413484D+00
      0.3163926960D+01  0.3623119853D+00
 SP   3 1.00       0.000000000000
      0.7868272350D+01 -0.1193324198D+00  0.6899906659D-01
      0.1881288540D+01 -0.1608541517D+00  0.3164239610D+00
      0.5442492580D+00  0.1143456438D+01  0.7443082909D+00
 SP   1 1.00       0.000000000000
      0.1687144782D+00  0.1000000000D+01  0.1000000000D+01
 D   1 1.00       0.000000000000
      0.8000000000D+00  0.1000000000D+01
 ****
      4 0
 S   6 1.00       0.000000000000
      0.3047524880D+04  0.1834737132D-02
      0.4573695180D+03  0.1403732281D-01
      0.1039486850D+03  0.6884262226D-01
      0.2921015530D+02  0.2321844432D+00
      0.9286662960D+01  0.4679413484D+00
      0.3163926960D+01  0.3623119853D+00
 SP   3 1.00       0.000000000000
      0.7868272350D+01 -0.1193324198D+00  0.6899906659D-01
      0.1881288540D+01 -0.1608541517D+00  0.3164239610D+00
      0.5442492580D+00  0.1143456438D+01  0.7443082909D+00
 SP   1 1.00       0.000000000000
      0.1687144782D+00  0.1000000000D+01  0.1000000000D+01
 D   1 1.00       0.000000000000
      0.8000000000D+00  0.1000000000D+01
 ****
      5 0
 S   3 1.00       0.000000000000
      0.1873113696D+02  0.3349460434D-01
      0.2825394365D+01  0.2347269535D+00
      0.6401216923D+00  0.8137573261D+00
 S   1 1.00       0.000000000000
      0.1612777588D+00  0.1000000000D+01
 ****
      6 0
 S   6 1.00       0.000000000000
      0.3047524880D+04  0.1834737132D-02
      0.4573695180D+03  0.1403732281D-01
      0.1039486850D+03  0.6884262226D-01
      0.2921015530D+02  0.2321844432D+00
      0.9286662960D+01  0.4679413484D+00
      0.3163926960D+01  0.3623119853D+00
 SP   3 1.00       0.000000000000
      0.7868272350D+01 -0.1193324198D+00  0.6899906659D-01
      0.1881288540D+01 -0.1608541517D+00  0.3164239610D+00
      0.5442492580D+00  0.1143456438D+01  0.7443082909D+00
 SP   1 1.00       0.000000000000
      0.1687144782D+00  0.1000000000D+01  0.1000000000D+01
 D   1 1.00       0.000000000000
      0.8000000000D+00  0.1000000000D+01
 ****
      7 0
 S   3 1.00       0.000000000000
      0.1873113696D+02  0.3349460434D-01
      0.2825394365D+01  0.2347269535D+00
      0.6401216923D+00  0.8137573261D+00
 S   1 1.00       0.000000000000
      0.1612777588D+00  0.1000000000D+01
 ****
      8 0
 S   6 1.00       0.000000000000
      0.3047524880D+04  0.1834737132D-02
      0.4573695180D+03  0.1403732281D-01
      0.1039486850D+03  0.6884262226D-01
      0.2921015530D+02  0.2321844432D+00
      0.9286662960D+01  0.4679413484D+00
      0.3163926960D+01  0.3623119853D+00
 SP   3 1.00       0.000000000000
      0.7868272350D+01 -0.1193324198D+00  0.6899906659D-01
      0.1881288540D+01 -0.1608541517D+00  0.3164239610D+00
      0.5442492580D+00  0.1143456438D+01  0.7443082909D+00
 SP   1 1.00       0.000000000000
      0.1687144782D+00  0.1000000000D+01  0.1000000000D+01
 D   1 1.00       0.000000000000
      0.8000000000D+00  0.1000000000D+01
 ****
      9 0
 S   3 1.00       0.000000000000
      0.1873113696D+02  0.3349460434D-01
      0.2825394365D+01  0.2347269535D+00
      0.6401216923D+00  0.8137573261D+00
 S   1 1.00       0.000000000000
      0.1612777588D+00  0.1000000000D+01
 ****
     10 0
 S   6 1.00       0.000000000000
      0.3047524880D+04  0.1834737132D-02
      0.4573695180D+03  0.1403732281D-01
      0.1039486850D+03  0.6884262226D-01
      0.2921015530D+02  0.2321844432D+00
      0.9286662960D+01  0.4679413484D+00
      0.3163926960D+01  0.3623119853D+00
 SP   3 1.00       0.000000000000
      0.7868272350D+01 -0.1193324198D+00  0.6899906659D-01
      0.1881288540D+01 -0.1608541517D+00  0.3164239610D+00
      0.5442492580D+00  0.1143456438D+01  0.7443082909D+00
 SP   1 1.00       0.000000000000
      0.1687144782D+00  0.1000000000D+01  0.1000000000D+01
 D   1 1.00       0.000000000000
      0.8000000000D+00  0.1000000000D+01
 ****
     11 0
 S   3 1.00       0.000000000000
      0.1873113696D+02  0.3349460434D-01
      0.2825394365D+01  0.2347269535D+00
      0.6401216923D+00  0.8137573261D+00
 S   1 1.00       0.000000000000
      0.1612777588D+00  0.1000000000D+01
 ****
     12 0
 S   6 1.00       0.000000000000
      0.3047524880D+04  0.1834737132D-02
      0.4573695180D+03  0.1403732281D-01
      0.1039486850D+03  0.6884262226D-01
      0.2921015530D+02  0.2321844432D+00
      0.9286662960D+01  0.4679413484D+00
      0.3163926960D+01  0.3623119853D+00
 SP   3 1.00       0.000000000000
      0.7868272350D+01 -0.1193324198D+00  0.6899906659D-01
      0.1881288540D+01 -0.1608541517D+00  0.3164239610D+00
      0.5442492580D+00  0.1143456438D+01  0.7443082909D+00
 SP   1 1.00       0.000000000000
      0.1687144782D+00  0.1000000000D+01  0.1000000000D+01
 D   1 1.00       0.000000000000
      0.8000000000D+00  0.1000000000D+01
 ****
     13 0
 S   3 1.00       0.000000000000
      0.1873113696D+02  0.3349460434D-01
      0.2825394365D+01  0.2347269535D+00
      0.6401216923D+00  0.8137573261D+00
 S   1 1.00       0.000000000000
      0.1612777588D+00  0.1000000000D+01
 ****
     14 0
 S   3 1.00       0.000000000000
      0.1873113696D+02  0.3349460434D-01
      0.2825394365D+01  0.2347269535D+00
      0.6401216923D+00  0.8137573261D+00
 S   1 1.00       0.000000000000
      0.1612777588D+00  0.1000000000D+01
 ****
     15 0
 S   6 1.00       0.000000000000
      0.3047524880D+04  0.1834737132D-02
      0.4573695180D+03  0.1403732281D-01
      0.1039486850D+03  0.6884262226D-01
      0.2921015530D+02  0.2321844432D+00
      0.9286662960D+01  0.4679413484D+00
      0.3163926960D+01  0.3623119853D+00
 SP   3 1.00       0.000000000000
      0.7868272350D+01 -0.1193324198D+00  0.6899906659D-01
      0.1881288540D+01 -0.1608541517D+00  0.3164239610D+00
      0.5442492580D+00  0.1143456438D+01  0.7443082909D+00
 SP   1 1.00       0.000000000000
      0.1687144782D+00  0.1000000000D+01  0.1000000000D+01
 D   1 1.00       0.000000000000
      0.8000000000D+00  0.1000000000D+01
 ****
     16 0
 S   6 1.00       0.000000000000
      0.3047524880D+04  0.1834737132D-02
      0.4573695180D+03  0.1403732281D-01
      0.1039486850D+03  0.6884262226D-01
      0.2921015530D+02  0.2321844432D+00
      0.9286662960D+01  0.4679413484D+00
      0.3163926960D+01  0.3623119853D+00
 SP   3 1.00       0.000000000000
      0.7868272350D+01 -0.1193324198D+00  0.6899906659D-01
      0.1881288540D+01 -0.1608541517D+00  0.3164239610D+00
      0.5442492580D+00  0.1143456438D+01  0.7443082909D+00
 SP   1 1.00       0.000000000000
      0.1687144782D+00  0.1000000000D+01  0.1000000000D+01
 D   1 1.00       0.000000000000
      0.8000000000D+00  0.1000000000D+01
 ****
     17 0
 S   3 1.00       0.000000000000
      0.1873113696D+02  0.3349460434D-01
      0.2825394365D+01  0.2347269535D+00
      0.6401216923D+00  0.8137573261D+00
 S   1 1.00       0.000000000000
      0.1612777588D+00  0.1000000000D+01
 ****
     18 0
 S   3 1.00       0.000000000000
      0.1873113696D+02  0.3349460434D-01
      0.2825394365D+01  0.2347269535D+00
      0.6401216923D+00  0.8137573261D+00
 S   1 1.00       0.000000000000
      0.1612777588D+00  0.1000000000D+01
 ****
     19 0
 S   6 1.00       0.000000000000
      0.3047524880D+04  0.1834737132D-02
      0.4573695180D+03  0.1403732281D-01
      0.1039486850D+03  0.6884262226D-01
      0.2921015530D+02  0.2321844432D+00
      0.9286662960D+01  0.4679413484D+00
      0.3163926960D+01  0.3623119853D+00
 SP   3 1.00       0.000000000000
      0.7868272350D+01 -0.1193324198D+00  0.6899906659D-01
      0.1881288540D+01 -0.1608541517D+00  0.3164239610D+00
      0.5442492580D+00  0.1143456438D+01  0.7443082909D+00
 SP   1 1.00       0.000000000000
      0.1687144782D+00  0.1000000000D+01  0.1000000000D+01
 D   1 1.00       0.000000000000
      0.8000000000D+00  0.1000000000D+01
 ****
     20 0
 S   3 1.00       0.000000000000
      0.1873113696D+02  0.3349460434D-01
      0.2825394365D+01  0.2347269535D+00
      0.6401216923D+00  0.8137573261D+00
 S   1 1.00       0.000000000000
      0.1612777588D+00  0.1000000000D+01
 ****
     21 0
 S   3 1.00       0.000000000000
      0.1873113696D+02  0.3349460434D-01
      0.2825394365D+01  0.2347269535D+00
      0.6401216923D+00  0.8137573261D+00
 S   1 1.00       0.000000000000
      0.1612777588D+00  0.1000000000D+01
 ****
     22 0
 S   6 1.00       0.000000000000
      0.3047524880D+04  0.1834737132D-02
      0.4573695180D+03  0.1403732281D-01
      0.1039486850D+03  0.6884262226D-01
      0.2921015530D+02  0.2321844432D+00
      0.9286662960D+01  0.4679413484D+00
      0.3163926960D+01  0.3623119853D+00
 SP   3 1.00       0.000000000000
      0.7868272350D+01 -0.1193324198D+00  0.6899906659D-01
      0.1881288540D+01 -0.1608541517D+00  0.3164239610D+00
      0.5442492580D+00  0.1143456438D+01  0.7443082909D+00
 SP   1 1.00       0.000000000000
      0.1687144782D+00  0.1000000000D+01  0.1000000000D+01
 D   1 1.00       0.000000000000
      0.8000000000D+00  0.1000000000D+01
 ****
     23 0
 S   3 1.00       0.000000000000
      0.1873113696D+02  0.3349460434D-01
      0.2825394365D+01  0.2347269535D+00
      0.6401216923D+00  0.8137573261D+00
 S   1 1.00       0.000000000000
      0.1612777588D+00  0.1000000000D+01
 ****
     24 0
 S   3 1.00       0.000000000000
      0.1873113696D+02  0.3349460434D-01
      0.2825394365D+01  0.2347269535D+00
      0.6401216923D+00  0.8137573261D+00
 S   1 1.00       0.000000000000
      0.1612777588D+00  0.1000000000D+01
 ****
     25 0
 S   6 1.00       0.000000000000
      0.3047524880D+04  0.1834737132D-02
      0.4573695180D+03  0.1403732281D-01
      0.1039486850D+03  0.6884262226D-01
      0.2921015530D+02  0.2321844432D+00
      0.9286662960D+01  0.4679413484D+00
      0.3163926960D+01  0.3623119853D+00
 SP   3 1.00       0.000000000000
      0.7868272350D+01 -0.1193324198D+00  0.6899906659D-01
      0.1881288540D+01 -0.1608541517D+00  0.3164239610D+00
      0.5442492580D+00  0.1143456438D+01  0.7443082909D+00
 SP   1 1.00       0.000000000000
      0.1687144782D+00  0.1000000000D+01  0.1000000000D+01
 D   1 1.00       0.000000000000
      0.8000000000D+00  0.1000000000D+01
 ****
     26 0
 S   3 1.00       0.000000000000
      0.1873113696D+02  0.3349460434D-01
      0.2825394365D+01  0.2347269535D+00
      0.6401216923D+00  0.8137573261D+00
 S   1 1.00       0.000000000000
      0.1612777588D+00  0.1000000000D+01
 ****
     27 0
 S   3 1.00       0.000000000000
      0.1873113696D+02  0.3349460434D-01
      0.2825394365D+01  0.2347269535D+00
      0.6401216923D+00  0.8137573261D+00
 S   1 1.00       0.000000000000
      0.1612777588D+00  0.1000000000D+01
 ****
     28 0
 S   6 1.00       0.000000000000
      0.3047524880D+04  0.1834737132D-02
      0.4573695180D+03  0.1403732281D-01
      0.1039486850D+03  0.6884262226D-01
      0.2921015530D+02  0.2321844432D+00
      0.9286662960D+01  0.4679413484D+00
      0.3163926960D+01  0.3623119853D+00
 SP   3 1.00       0.000000000000
      0.7868272350D+01 -0.1193324198D+00  0.6899906659D-01
      0.1881288540D+01 -0.1608541517D+00  0.3164239610D+00
      0.5442492580D+00  0.1143456438D+01  0.7443082909D+00
 SP   1 1.00       0.000000000000
      0.1687144782D+00  0.1000000000D+01  0.1000000000D+01
 D   1 1.00       0.000000000000
      0.8000000000D+00  0.1000000000D+01
 ****
     29 0
 S   3 1.00       0.000000000000
      0.1873113696D+02  0.3349460434D-01
      0.2825394365D+01  0.2347269535D+00
      0.6401216923D+00  0.8137573261D+00
 S   1 1.00       0.000000000000
      0.1612777588D+00  0.1000000000D+01
 ****
     30 0
 S   6 1.00       0.000000000000
      0.3047524880D+04  0.1834737132D-02
      0.4573695180D+03  0.1403732281D-01
      0.1039486850D+03  0.6884262226D-01
      0.2921015530D+02  0.2321844432D+00
      0.9286662960D+01  0.4679413484D+00
      0.3163926960D+01  0.3623119853D+00
 SP   3 1.00       0.000000000000
      0.7868272350D+01 -0.1193324198D+00  0.6899906659D-01
      0.1881288540D+01 -0.1608541517D+00  0.3164239610D+00
      0.5442492580D+00  0.1143456438D+01  0.7443082909D+00
 SP   1 1.00       0.000000000000
      0.1687144782D+00  0.1000000000D+01  0.1000000000D+01
 D   1 1.00       0.000000000000
      0.8000000000D+00  0.1000000000D+01
 ****
     31 0
 S   3 1.00       0.000000000000
      0.1873113696D+02  0.3349460434D-01
      0.2825394365D+01  0.2347269535D+00
      0.6401216923D+00  0.8137573261D+00
 S   1 1.00       0.000000000000
      0.1612777588D+00  0.1000000000D+01
 ****
     32 0
 S   3 1.00       0.000000000000
      0.1873113696D+02  0.3349460434D-01
      0.2825394365D+01  0.2347269535D+00
      0.6401216923D+00  0.8137573261D+00
 S   1 1.00       0.000000000000
      0.1612777588D+00  0.1000000000D+01
 ****
     33 0
 S   3 1.00       0.000000000000
      0.1873113696D+02  0.3349460434D-01
      0.2825394365D+01  0.2347269535D+00
      0.6401216923D+00  0.8137573261D+00
 S   1 1.00       0.000000000000
      0.1612777588D+00  0.1000000000D+01
 ****
     34 0
 S   6 1.00       0.000000000000
      0.3047524880D+04  0.1834737132D-02
      0.4573695180D+03  0.1403732281D-01
      0.1039486850D+03  0.6884262226D-01
      0.2921015530D+02  0.2321844432D+00
      0.9286662960D+01  0.4679413484D+00
      0.3163926960D+01  0.3623119853D+00
 SP   3 1.00       0.000000000000
      0.7868272350D+01 -0.1193324198D+00  0.6899906659D-01
      0.1881288540D+01 -0.1608541517D+00  0.3164239610D+00
      0.5442492580D+00  0.1143456438D+01  0.7443082909D+00
 SP   1 1.00       0.000000000000
      0.1687144782D+00  0.1000000000D+01  0.1000000000D+01
 D   1 1.00       0.000000000000
      0.8000000000D+00  0.1000000000D+01
 ****
     35 0
 S   6 1.00       0.000000000000
      0.3047524880D+04  0.1834737132D-02
      0.4573695180D+03  0.1403732281D-01
      0.1039486850D+03  0.6884262226D-01
      0.2921015530D+02  0.2321844432D+00
      0.9286662960D+01  0.4679413484D+00
      0.3163926960D+01  0.3623119853D+00
 SP   3 1.00       0.000000000000
      0.7868272350D+01 -0.1193324198D+00  0.6899906659D-01
      0.1881288540D+01 -0.1608541517D+00  0.3164239610D+00
      0.5442492580D+00  0.1143456438D+01  0.7443082909D+00
 SP   1 1.00       0.000000000000
      0.1687144782D+00  0.1000000000D+01  0.1000000000D+01
 D   1 1.00       0.000000000000
      0.8000000000D+00  0.1000000000D+01
 ****
     36 0
 S   3 1.00       0.000000000000
      0.1873113696D+02  0.3349460434D-01
      0.2825394365D+01  0.2347269535D+00
      0.6401216923D+00  0.8137573261D+00
 S   1 1.00       0.000000000000
      0.1612777588D+00  0.1000000000D+01
 ****
     37 0
 S   3 1.00       0.000000000000
      0.1873113696D+02  0.3349460434D-01
      0.2825394365D+01  0.2347269535D+00
      0.6401216923D+00  0.8137573261D+00
 S   1 1.00       0.000000000000
      0.1612777588D+00  0.1000000000D+01
 ****
     38 0
 S   6 1.00       0.000000000000
      0.3047524880D+04  0.1834737132D-02
      0.4573695180D+03  0.1403732281D-01
      0.1039486850D+03  0.6884262226D-01
      0.2921015530D+02  0.2321844432D+00
      0.9286662960D+01  0.4679413484D+00
      0.3163926960D+01  0.3623119853D+00
 SP   3 1.00       0.000000000000
      0.7868272350D+01 -0.1193324198D+00  0.6899906659D-01
      0.1881288540D+01 -0.1608541517D+00  0.3164239610D+00
      0.5442492580D+00  0.1143456438D+01  0.7443082909D+00
 SP   1 1.00       0.000000000000
      0.1687144782D+00  0.1000000000D+01  0.1000000000D+01
 D   1 1.00       0.000000000000
      0.8000000000D+00  0.1000000000D+01
 ****
     39 0
 S   3 1.00       0.000000000000
      0.1873113696D+02  0.3349460434D-01
      0.2825394365D+01  0.2347269535D+00
      0.6401216923D+00  0.8137573261D+00
 S   1 1.00       0.000000000000
      0.1612777588D+00  0.1000000000D+01
 ****
     40 0
 S   6 1.00       0.000000000000
      0.3047524880D+04  0.1834737132D-02
      0.4573695180D+03  0.1403732281D-01
      0.1039486850D+03  0.6884262226D-01
      0.2921015530D+02  0.2321844432D+00
      0.9286662960D+01  0.4679413484D+00
      0.3163926960D+01  0.3623119853D+00
 SP   3 1.00       0.000000000000
      0.7868272350D+01 -0.1193324198D+00  0.6899906659D-01
      0.1881288540D+01 -0.1608541517D+00  0.3164239610D+00
      0.5442492580D+00  0.1143456438D+01  0.7443082909D+00
 SP   1 1.00       0.000000000000
      0.1687144782D+00  0.1000000000D+01  0.1000000000D+01
 D   1 1.00       0.000000000000
      0.8000000000D+00  0.1000000000D+01
 ****
     41 0
 S   3 1.00       0.000000000000
      0.1873113696D+02  0.3349460434D-01
      0.2825394365D+01  0.2347269535D+00
      0.6401216923D+00  0.8137573261D+00
 S   1 1.00       0.000000000000
      0.1612777588D+00  0.1000000000D+01
 ****
     42 0
 S   3 1.00       0.000000000000
      0.1873113696D+02  0.3349460434D-01
      0.2825394365D+01  0.2347269535D+00
      0.6401216923D+00  0.8137573261D+00
 S   1 1.00       0.000000000000
      0.1612777588D+00  0.1000000000D+01
 ****
     43 0
 S   3 1.00       0.000000000000
      0.1873113696D+02  0.3349460434D-01
      0.2825394365D+01  0.2347269535D+00
      0.6401216923D+00  0.8137573261D+00
 S   1 1.00       0.000000000000
      0.1612777588D+00  0.1000000000D+01
 ****
     44 0
 S   6 1.00       0.000000000000
      0.3047524880D+04  0.1834737132D-02
      0.4573695180D+03  0.1403732281D-01
      0.1039486850D+03  0.6884262226D-01
      0.2921015530D+02  0.2321844432D+00
      0.9286662960D+01  0.4679413484D+00
      0.3163926960D+01  0.3623119853D+00
 SP   3 1.00       0.000000000000
      0.7868272350D+01 -0.1193324198D+00  0.6899906659D-01
      0.1881288540D+01 -0.1608541517D+00  0.3164239610D+00
      0.5442492580D+00  0.1143456438D+01  0.7443082909D+00
 SP   1 1.00       0.000000000000
      0.1687144782D+00  0.1000000000D+01  0.1000000000D+01
 D   1 1.00       0.000000000000
      0.8000000000D+00  0.1000000000D+01
 ****
     45 0
 S   3 1.00       0.000000000000
      0.1873113696D+02  0.3349460434D-01
      0.2825394365D+01  0.2347269535D+00
      0.6401216923D+00  0.8137573261D+00
 S   1 1.00       0.000000000000
      0.1612777588D+00  0.1000000000D+01
 ****
     46 0
 S   3 1.00       0.000000000000
      0.1873113696D+02  0.3349460434D-01
      0.2825394365D+01  0.2347269535D+00
      0.6401216923D+00  0.8137573261D+00
 S   1 1.00       0.000000000000
      0.1612777588D+00  0.1000000000D+01
 ****
     47 0
 S   6 1.00       0.000000000000
      0.3047524880D+04  0.1834737132D-02
      0.4573695180D+03  0.1403732281D-01
      0.1039486850D+03  0.6884262226D-01
      0.2921015530D+02  0.2321844432D+00
      0.9286662960D+01  0.4679413484D+00
      0.3163926960D+01  0.3623119853D+00
 SP   3 1.00       0.000000000000
      0.7868272350D+01 -0.1193324198D+00  0.6899906659D-01
      0.1881288540D+01 -0.1608541517D+00  0.3164239610D+00
      0.5442492580D+00  0.1143456438D+01  0.7443082909D+00
 SP   1 1.00       0.000000000000
      0.1687144782D+00  0.1000000000D+01  0.1000000000D+01
 D   1 1.00       0.000000000000
      0.8000000000D+00  0.1000000000D+01
 ****
     48 0
 S   3 1.00       0.000000000000
      0.1873113696D+02  0.3349460434D-01
      0.2825394365D+01  0.2347269535D+00
      0.6401216923D+00  0.8137573261D+00
 S   1 1.00       0.000000000000
      0.1612777588D+00  0.1000000000D+01
 ****
     49 0
 S   3 1.00       0.000000000000
      0.1873113696D+02  0.3349460434D-01
      0.2825394365D+01  0.2347269535D+00
      0.6401216923D+00  0.8137573261D+00
 S   1 1.00       0.000000000000
      0.1612777588D+00  0.1000000000D+01
 ****
     50 0
 S   6 1.00       0.000000000000
      0.3047524880D+04  0.1834737132D-02
      0.4573695180D+03  0.1403732281D-01
      0.1039486850D+03  0.6884262226D-01
      0.2921015530D+02  0.2321844432D+00
      0.9286662960D+01  0.4679413484D+00
      0.3163926960D+01  0.3623119853D+00
 SP   3 1.00       0.000000000000
      0.7868272350D+01 -0.1193324198D+00  0.6899906659D-01
      0.1881288540D+01 -0.1608541517D+00  0.3164239610D+00
      0.5442492580D+00  0.1143456438D+01  0.7443082909D+00
 SP   1 1.00       0.000000000000
      0.1687144782D+00  0.1000000000D+01  0.1000000000D+01
 D   1 1.00       0.000000000000
      0.8000000000D+00  0.1000000000D+01
 ****
     51 0
 S   3 1.00       0.000000000000
      0.1873113696D+02  0.3349460434D-01
      0.2825394365D+01  0.2347269535D+00
      0.6401216923D+00  0.8137573261D+00
 S   1 1.00       0.000000000000
      0.1612777588D+00  0.1000000000D+01
 ****
     52 0
 S   3 1.00       0.000000000000
      0.1873113696D+02  0.3349460434D-01
      0.2825394365D+01  0.2347269535D+00
      0.6401216923D+00  0.8137573261D+00
 S   1 1.00       0.000000000000
      0.1612777588D+00  0.1000000000D+01
 ****
     53 0
 S   6 1.00       0.000000000000
      0.3047524880D+04  0.1834737132D-02
      0.4573695180D+03  0.1403732281D-01
      0.1039486850D+03  0.6884262226D-01
      0.2921015530D+02  0.2321844432D+00
      0.9286662960D+01  0.4679413484D+00
      0.3163926960D+01  0.3623119853D+00
 SP   3 1.00       0.000000000000
      0.7868272350D+01 -0.1193324198D+00  0.6899906659D-01
      0.1881288540D+01 -0.1608541517D+00  0.3164239610D+00
      0.5442492580D+00  0.1143456438D+01  0.7443082909D+00
 SP   1 1.00       0.000000000000
      0.1687144782D+00  0.1000000000D+01  0.1000000000D+01
 D   1 1.00       0.000000000000
      0.8000000000D+00  0.1000000000D+01
 ****
     54 0
 S   3 1.00       0.000000000000
      0.1873113696D+02  0.3349460434D-01
      0.2825394365D+01  0.2347269535D+00
      0.6401216923D+00  0.8137573261D+00
 S   1 1.00       0.000000000000
      0.1612777588D+00  0.1000000000D+01
 ****
     55 0
 S   6 1.00       0.000000000000
      0.3047524880D+04  0.1834737132D-02
      0.4573695180D+03  0.1403732281D-01
      0.1039486850D+03  0.6884262226D-01
      0.2921015530D+02  0.2321844432D+00
      0.9286662960D+01  0.4679413484D+00
      0.3163926960D+01  0.3623119853D+00
 SP   3 1.00       0.000000000000
      0.7868272350D+01 -0.1193324198D+00  0.6899906659D-01
      0.1881288540D+01 -0.1608541517D+00  0.3164239610D+00
      0.5442492580D+00  0.1143456438D+01  0.7443082909D+00
 SP   1 1.00       0.000000000000
      0.1687144782D+00  0.1000000000D+01  0.1000000000D+01
 D   1 1.00       0.000000000000
      0.8000000000D+00  0.1000000000D+01
 ****
     56 0
 S   3 1.00       0.000000000000
      0.1873113696D+02  0.3349460434D-01
      0.2825394365D+01  0.2347269535D+00
      0.6401216923D+00  0.8137573261D+00
 S   1 1.00       0.000000000000
      0.1612777588D+00  0.1000000000D+01
 ****
     57 0
 S   3 1.00       0.000000000000
      0.1873113696D+02  0.3349460434D-01
      0.2825394365D+01  0.2347269535D+00
      0.6401216923D+00  0.8137573261D+00
 S   1 1.00       0.000000000000
      0.1612777588D+00  0.1000000000D+01
 ****
     58 0
 S   3 1.00       0.000000000000
      0.1873113696D+02  0.3349460434D-01
      0.2825394365D+01  0.2347269535D+00
      0.6401216923D+00  0.8137573261D+00
 S   1 1.00       0.000000000000
      0.1612777588D+00  0.1000000000D+01
 ****
     59 0
 S   6 1.00       0.000000000000
      0.3047524880D+04  0.1834737132D-02
      0.4573695180D+03  0.1403732281D-01
      0.1039486850D+03  0.6884262226D-01
      0.2921015530D+02  0.2321844432D+00
      0.9286662960D+01  0.4679413484D+00
      0.3163926960D+01  0.3623119853D+00
 SP   3 1.00       0.000000000000
      0.7868272350D+01 -0.1193324198D+00  0.6899906659D-01
      0.1881288540D+01 -0.1608541517D+00  0.3164239610D+00
      0.5442492580D+00  0.1143456438D+01  0.7443082909D+00
 SP   1 1.00       0.000000000000
      0.1687144782D+00  0.1000000000D+01  0.1000000000D+01
 D   1 1.00       0.000000000000
      0.8000000000D+00  0.1000000000D+01
 ****
     60 0
 S   3 1.00       0.000000000000
      0.1873113696D+02  0.3349460434D-01
      0.2825394365D+01  0.2347269535D+00
      0.6401216923D+00  0.8137573261D+00
 S   1 1.00       0.000000000000
      0.1612777588D+00  0.1000000000D+01
 ****
     61 0
 S   3 1.00       0.000000000000
      0.1873113696D+02  0.3349460434D-01
      0.2825394365D+01  0.2347269535D+00
      0.6401216923D+00  0.8137573261D+00
 S   1 1.00       0.000000000000
      0.1612777588D+00  0.1000000000D+01
 ****
     62 0
 S   6 1.00       0.000000000000
      0.3047524880D+04  0.1834737132D-02
      0.4573695180D+03  0.1403732281D-01
      0.1039486850D+03  0.6884262226D-01
      0.2921015530D+02  0.2321844432D+00
      0.9286662960D+01  0.4679413484D+00
      0.3163926960D+01  0.3623119853D+00
 SP   3 1.00       0.000000000000
      0.7868272350D+01 -0.1193324198D+00  0.6899906659D-01
      0.1881288540D+01 -0.1608541517D+00  0.3164239610D+00
      0.5442492580D+00  0.1143456438D+01  0.7443082909D+00
 SP   1 1.00       0.000000000000
      0.1687144782D+00  0.1000000000D+01  0.1000000000D+01
 D   1 1.00       0.000000000000
      0.8000000000D+00  0.1000000000D+01
 ****
     63 0
 S   3 1.00       0.000000000000
      0.1873113696D+02  0.3349460434D-01
      0.2825394365D+01  0.2347269535D+00
      0.6401216923D+00  0.8137573261D+00
 S   1 1.00       0.000000000000
      0.1612777588D+00  0.1000000000D+01
 ****
     64 0
 S   3 1.00       0.000000000000
      0.1873113696D+02  0.3349460434D-01
      0.2825394365D+01  0.2347269535D+00
      0.6401216923D+00  0.8137573261D+00
 S   1 1.00       0.000000000000
      0.1612777588D+00  0.1000000000D+01
 ****
     65 0
 S   6 1.00       0.000000000000
      0.3047524880D+04  0.1834737132D-02
      0.4573695180D+03  0.1403732281D-01
      0.1039486850D+03  0.6884262226D-01
      0.2921015530D+02  0.2321844432D+00
      0.9286662960D+01  0.4679413484D+00
      0.3163926960D+01  0.3623119853D+00
 SP   3 1.00       0.000000000000
      0.7868272350D+01 -0.1193324198D+00  0.6899906659D-01
      0.1881288540D+01 -0.1608541517D+00  0.3164239610D+00
      0.5442492580D+00  0.1143456438D+01  0.7443082909D+00
 SP   1 1.00       0.000000000000
      0.1687144782D+00  0.1000000000D+01  0.1000000000D+01
 D   1 1.00       0.000000000000
      0.8000000000D+00  0.1000000000D+01
 ****
     66 0
 S   3 1.00       0.000000000000
      0.1873113696D+02  0.3349460434D-01
      0.2825394365D+01  0.2347269535D+00
      0.6401216923D+00  0.8137573261D+00
 S   1 1.00       0.000000000000
      0.1612777588D+00  0.1000000000D+01
 ****
     67 0
 S   6 1.00       0.000000000000
      0.3047524880D+04  0.1834737132D-02
      0.4573695180D+03  0.1403732281D-01
      0.1039486850D+03  0.6884262226D-01
      0.2921015530D+02  0.2321844432D+00
      0.9286662960D+01  0.4679413484D+00
      0.3163926960D+01  0.3623119853D+00
 SP   3 1.00       0.000000000000
      0.7868272350D+01 -0.1193324198D+00  0.6899906659D-01
      0.1881288540D+01 -0.1608541517D+00  0.3164239610D+00
      0.5442492580D+00  0.1143456438D+01  0.7443082909D+00
 SP   1 1.00       0.000000000000
      0.1687144782D+00  0.1000000000D+01  0.1000000000D+01
 D   1 1.00       0.000000000000
      0.8000000000D+00  0.1000000000D+01
 ****
     68 0
 S   3 1.00       0.000000000000
      0.1873113696D+02  0.3349460434D-01
      0.2825394365D+01  0.2347269535D+00
      0.6401216923D+00  0.8137573261D+00
 S   1 1.00       0.000000000000
      0.1612777588D+00  0.1000000000D+01
 ****
     69 0
 S   3 1.00       0.000000000000
      0.1873113696D+02  0.3349460434D-01
      0.2825394365D+01  0.2347269535D+00
      0.6401216923D+00  0.8137573261D+00
 S   1 1.00       0.000000000000
      0.1612777588D+00  0.1000000000D+01
 ****
     70 0
 S   3 1.00       0.000000000000
      0.1873113696D+02  0.3349460434D-01
      0.2825394365D+01  0.2347269535D+00
      0.6401216923D+00  0.8137573261D+00
 S   1 1.00       0.000000000000
      0.1612777588D+00  0.1000000000D+01
 ****
     71 0
 S   6 1.00       0.000000000000
      0.3047524880D+04  0.1834737132D-02
      0.4573695180D+03  0.1403732281D-01
      0.1039486850D+03  0.6884262226D-01
      0.2921015530D+02  0.2321844432D+00
      0.9286662960D+01  0.4679413484D+00
      0.3163926960D+01  0.3623119853D+00
 SP   3 1.00       0.000000000000
      0.7868272350D+01 -0.1193324198D+00  0.6899906659D-01
      0.1881288540D+01 -0.1608541517D+00  0.3164239610D+00
      0.5442492580D+00  0.1143456438D+01  0.7443082909D+00
 SP   1 1.00       0.000000000000
      0.1687144782D+00  0.1000000000D+01  0.1000000000D+01
 D   1 1.00       0.000000000000
      0.8000000000D+00  0.1000000000D+01
 ****
     72 0
 S   3 1.00       0.000000000000
      0.1873113696D+02  0.3349460434D-01
      0.2825394365D+01  0.2347269535D+00
      0.6401216923D+00  0.8137573261D+00
 S   1 1.00       0.000000000000
      0.1612777588D+00  0.1000000000D+01
 ****
     73 0
 S   3 1.00       0.000000000000
      0.1873113696D+02  0.3349460434D-01
      0.2825394365D+01  0.2347269535D+00
      0.6401216923D+00  0.8137573261D+00
 S   1 1.00       0.000000000000
      0.1612777588D+00  0.1000000000D+01
 ****
     74 0
 S   3 1.00       0.000000000000
      0.1873113696D+02  0.3349460434D-01
      0.2825394365D+01  0.2347269535D+00
      0.6401216923D+00  0.8137573261D+00
 S   1 1.00       0.000000000000
      0.1612777588D+00  0.1000000000D+01
 ****

 AO basis set (Overlap normalization):
 Atom O1       Shell     1 S   6     bf    1 -     1         -7.064679315954         -6.784856418073         -7.816584053235
      0.5484671660D+04  0.1831074430D-02
      0.8252349460D+03  0.1395017220D-01
      0.1880469580D+03  0.6844507810D-01
      0.5296450000D+02  0.2327143360D+00
      0.1689757040D+02  0.4701928980D+00
      0.5799635340D+01  0.3585208530D+00
 Atom O1       Shell     2 SP   3    bf    2 -     5         -7.064679315954         -6.784856418073         -7.816584053235
      0.1553961625D+02 -0.1107775495D+00  0.7087426823D-01
      0.3599933586D+01 -0.1480262627D+00  0.3397528391D+00
      0.1013761750D+01  0.1130767015D+01  0.7271585773D+00
 Atom O1       Shell     3 SP   1    bf    6 -     9         -7.064679315954         -6.784856418073         -7.816584053235
      0.2700058226D+00  0.1000000000D+01  0.1000000000D+01
 Atom O1       Shell     4 D   1     bf   10 -    15         -7.064679315954         -6.784856418073         -7.816584053235
      0.8000000000D+00  0.1000000000D+01
 Atom H2       Shell     5 S   3     bf   16 -    16         -7.340231754028         -8.381803463944         -6.974547165087
      0.1873113696D+02  0.3349460434D-01
      0.2825394365D+01  0.2347269535D+00
      0.6401216923D+00  0.8137573261D+00
 Atom H2       Shell     6 S   1     bf   17 -    17         -7.340231754028         -8.381803463944         -6.974547165087
      0.1612777588D+00  0.1000000000D+01
 Atom C3       Shell     7 S   6     bf   18 -    18          3.020202484265          3.906004333610          0.000000000000
      0.3047524880D+04  0.1834737132D-02
      0.4573695180D+03  0.1403732281D-01
      0.1039486850D+03  0.6884262226D-01
      0.2921015530D+02  0.2321844432D+00
      0.9286662960D+01  0.4679413484D+00
      0.3163926960D+01  0.3623119853D+00
 Atom C3       Shell     8 SP   3    bf   19 -    22          3.020202484265          3.906004333610          0.000000000000
      0.7868272350D+01 -0.1193324198D+00  0.6899906659D-01
      0.1881288540D+01 -0.1608541517D+00  0.3164239610D+00
      0.5442492580D+00  0.1143456438D+01  0.7443082909D+00
 Atom C3       Shell     9 SP   1    bf   23 -    26          3.020202484265          3.906004333610          0.000000000000
      0.1687144782D+00  0.1000000000D+01  0.1000000000D+01
 Atom C3       Shell    10 D   1     bf   27 -    32          3.020202484265          3.906004333610          0.000000000000
      0.8000000000D+00  0.1000000000D+01
 Atom C4       Shell    11 S   6     bf   33 -    33          2.505619116766          1.151686240652          0.895161700675
      0.3047524880D+04  0.1834737132D-02
      0.4573695180D+03  0.1403732281D-01
      0.1039486850D+03  0.6884262226D-01
      0.2921015530D+02  0.2321844432D+00
      0.9286662960D+01  0.4679413484D+00
      0.3163926960D+01  0.3623119853D+00
 Atom C4       Shell    12 SP   3    bf   34 -    37          2.505619116766          1.151686240652          0.895161700675
      0.7868272350D+01 -0.1193324198D+00  0.6899906659D-01
      0.1881288540D+01 -0.1608541517D+00  0.3164239610D+00
      0.5442492580D+00  0.1143456438D+01  0.7443082909D+00
 Atom C4       Shell    13 SP   1    bf   38 -    41          2.505619116766          1.151686240652          0.895161700675
      0.1687144782D+00  0.1000000000D+01  0.1000000000D+01
 Atom C4       Shell    14 D   1     bf   42 -    47          2.505619116766          1.151686240652          0.895161700675
      0.8000000000D+00  0.1000000000D+01
 Atom H5       Shell    15 S   3     bf   48 -    48          3.995531904395          0.000000000000          0.000000000000
      0.1873113696D+02  0.3349460434D-01
      0.2825394365D+01  0.2347269535D+00
      0.6401216923D+00  0.8137573261D+00
 Atom H5       Shell    16 S   1     bf   49 -    49          3.995531904395          0.000000000000          0.000000000000
      0.1612777588D+00  0.1000000000D+01
 Atom C6       Shell    17 S   6     bf   50 -    50          0.000000000000          0.000000000000          0.000000000000
      0.3047524880D+04  0.1834737132D-02
      0.4573695180D+03  0.1403732281D-01
      0.1039486850D+03  0.6884262226D-01
      0.2921015530D+02  0.2321844432D+00
      0.9286662960D+01  0.4679413484D+00
      0.3163926960D+01  0.3623119853D+00
 Atom C6       Shell    18 SP   3    bf   51 -    54          0.000000000000          0.000000000000          0.000000000000
      0.7868272350D+01 -0.1193324198D+00  0.6899906659D-01
      0.1881288540D+01 -0.1608541517D+00  0.3164239610D+00
      0.5442492580D+00  0.1143456438D+01  0.7443082909D+00
 Atom C6       Shell    19 SP   1    bf   55 -    58          0.000000000000          0.000000000000          0.000000000000
      0.1687144782D+00  0.1000000000D+01  0.1000000000D+01
 Atom C6       Shell    20 D   1     bf   59 -    64          0.000000000000          0.000000000000          0.000000000000
      0.8000000000D+00  0.1000000000D+01
 Atom H7       Shell    21 S   3     bf   65 -    65         -1.581068451964          1.072796372906          0.813916969606
      0.1873113696D+02  0.3349460434D-01
      0.2825394365D+01  0.2347269535D+00
      0.6401216923D+00  0.8137573261D+00
 Atom H7       Shell    22 S   1     bf   66 -    66         -1.581068451964          1.072796372906          0.813916969606
      0.1612777588D+00  0.1000000000D+01
 Atom C8       Shell    23 S   6     bf   67 -    67         -0.161972130713          0.119448965250         -2.926441360024
      0.3047524880D+04  0.1834737132D-02
      0.4573695180D+03  0.1403732281D-01
      0.1039486850D+03  0.6884262226D-01
      0.2921015530D+02  0.2321844432D+00
      0.9286662960D+01  0.4679413484D+00
      0.3163926960D+01  0.3623119853D+00
 Atom C8       Shell    24 SP   3    bf   68 -    71         -0.161972130713          0.119448965250         -2.926441360024
      0.7868272350D+01 -0.1193324198D+00  0.6899906659D-01
      0.1881288540D+01 -0.1608541517D+00  0.3164239610D+00
      0.5442492580D+00  0.1143456438D+01  0.7443082909D+00
 Atom C8       Shell    25 SP   1    bf   72 -    75         -0.161972130713          0.119448965250         -2.926441360024
      0.1687144782D+00  0.1000000000D+01  0.1000000000D+01
 Atom C8       Shell    26 D   1     bf   76 -    81         -0.161972130713          0.119448965250         -2.926441360024
      0.8000000000D+00  0.1000000000D+01
 Atom H9       Shell    27 S   3     bf   82 -    82          1.310412577760         -1.183506148477         -3.616979754476
      0.1873113696D+02  0.3349460434D-01
      0.2825394365D+01  0.2347269535D+00
      0.6401216923D+00  0.8137573261D+00
 Atom H9       Shell    28 S   1     bf   83 -    83          1.310412577760         -1.183506148477         -3.616979754476
      0.1612777588D+00  0.1000000000D+01
 Atom C10      Shell    29 S   6     bf   84 -    84          5.654242305659          4.328585174904          1.290132282566
      0.3047524880D+04  0.1834737132D-02
      0.4573695180D+03  0.1403732281D-01
      0.1039486850D+03  0.6884262226D-01
      0.2921015530D+02  0.2321844432D+00
      0.9286662960D+01  0.4679413484D+00
      0.3163926960D+01  0.3623119853D+00
 Atom C10      Shell    30 SP   3    bf   85 -    88          5.654242305659          4.328585174904          1.290132282566
      0.7868272350D+01 -0.1193324198D+00  0.6899906659D-01
      0.1881288540D+01 -0.1608541517D+00  0.3164239610D+00
      0.5442492580D+00  0.1143456438D+01  0.7443082909D+00
 Atom C10      Shell    31 SP   1    bf   89 -    92          5.654242305659          4.328585174904          1.290132282566
      0.1687144782D+00  0.1000000000D+01  0.1000000000D+01
 Atom C10      Shell    32 D   1     bf   93 -    98          5.654242305659          4.328585174904          1.290132282566
      0.8000000000D+00  0.1000000000D+01
 Atom H11      Shell    33 S   3     bf   99 -    99          6.935906989985          3.058680369687          0.263179777472
      0.1873113696D+02  0.3349460434D-01
      0.2825394365D+01  0.2347269535D+00
      0.6401216923D+00  0.8137573261D+00
 Atom H11      Shell    34 S   1     bf  100 -   100          6.935906989985          3.058680369687          0.263179777472
      0.1612777588D+00  0.1000000000D+01
 Atom C12      Shell    35 S   6     bf  101 -   101          3.004370755566          3.856266496128         -2.911832510901
      0.3047524880D+04  0.1834737132D-02
      0.4573695180D+03  0.1403732281D-01
      0.1039486850D+03  0.6884262226D-01
      0.2921015530D+02  0.2321844432D+00
      0.9286662960D+01  0.4679413484D+00
      0.3163926960D+01  0.3623119853D+00
 Atom C12      Shell    36 SP   3    bf  102 -   105          3.004370755566          3.856266496128         -2.911832510901
      0.7868272350D+01 -0.1193324198D+00  0.6899906659D-01
      0.1881288540D+01 -0.1608541517D+00  0.3164239610D+00
      0.5442492580D+00  0.1143456438D+01  0.7443082909D+00
 Atom C12      Shell    37 SP   1    bf  106 -   109          3.004370755566          3.856266496128         -2.911832510901
      0.1687144782D+00  0.1000000000D+01  0.1000000000D+01
 Atom C12      Shell    38 D   1     bf  110 -   115          3.004370755566          3.856266496128         -2.911832510901
      0.8000000000D+00  0.1000000000D+01
 Atom H13      Shell    39 S   3     bf  116 -   116          4.592316960277          2.692679043749         -3.574332377314
      0.1873113696D+02  0.3349460434D-01
      0.2825394365D+01  0.2347269535D+00
      0.6401216923D+00  0.8137573261D+00
 Atom H13      Shell    40 S   1     bf  117 -   117          4.592316960277          2.692679043749         -3.574332377314
      0.1612777588D+00  0.1000000000D+01
 Atom H14      Shell    41 S   3     bf  118 -   118          3.287262927735          5.751719085011         -3.699668670948
      0.1873113696D+02  0.3349460434D-01
      0.2825394365D+01  0.2347269535D+00
      0.6401216923D+00  0.8137573261D+00
 Atom H14      Shell    42 S   1     bf  119 -   119          3.287262927735          5.751719085011         -3.699668670948
      0.1612777588D+00  0.1000000000D+01
 Atom C15      Shell    43 S   6     bf  120 -   120         -2.725934519825         -0.941888883174         -3.973081674477
      0.3047524880D+04  0.1834737132D-02
      0.4573695180D+03  0.1403732281D-01
      0.1039486850D+03  0.6884262226D-01
      0.2921015530D+02  0.2321844432D+00
      0.9286662960D+01  0.4679413484D+00
      0.3163926960D+01  0.3623119853D+00
 Atom C15      Shell    44 SP   3    bf  121 -   124         -2.725934519825         -0.941888883174         -3.973081674477
      0.7868272350D+01 -0.1193324198D+00  0.6899906659D-01
      0.1881288540D+01 -0.1608541517D+00  0.3164239610D+00
      0.5442492580D+00  0.1143456438D+01  0.7443082909D+00
 Atom C15      Shell    45 SP   1    bf  125 -   128         -2.725934519825         -0.941888883174         -3.973081674477
      0.1687144782D+00  0.1000000000D+01  0.1000000000D+01
 Atom C15      Shell    46 D   1     bf  129 -   134         -2.725934519825         -0.941888883174         -3.973081674477
      0.8000000000D+00  0.1000000000D+01
 Atom C16      Shell    47 S   6     bf  135 -   135          3.102713275152          1.198918169001          3.741792423895
      0.3047524880D+04  0.1834737132D-02
      0.4573695180D+03  0.1403732281D-01
      0.1039486850D+03  0.6884262226D-01
      0.2921015530D+02  0.2321844432D+00
      0.9286662960D+01  0.4679413484D+00
      0.3163926960D+01  0.3623119853D+00
 Atom C16      Shell    48 SP   3    bf  136 -   139          3.102713275152          1.198918169001          3.741792423895
      0.7868272350D+01 -0.1193324198D+00  0.6899906659D-01
      0.1881288540D+01 -0.1608541517D+00  0.3164239610D+00
      0.5442492580D+00  0.1143456438D+01  0.7443082909D+00
 Atom C16      Shell    49 SP   1    bf  140 -   143          3.102713275152          1.198918169001          3.741792423895
      0.1687144782D+00  0.1000000000D+01  0.1000000000D+01
 Atom C16      Shell    50 D   1     bf  144 -   149          3.102713275152          1.198918169001          3.741792423895
      0.8000000000D+00  0.1000000000D+01
 Atom H17      Shell    51 S   3     bf  150 -   150          3.617392357280         -0.667996248255          4.468717230473
      0.1873113696D+02  0.3349460434D-01
      0.2825394365D+01  0.2347269535D+00
      0.6401216923D+00  0.8137573261D+00
 Atom H17      Shell    52 S   1     bf  151 -   151          3.617392357280         -0.667996248255          4.468717230473
      0.1612777588D+00  0.1000000000D+01
 Atom H18      Shell    53 S   3     bf  152 -   152          1.449549276780          1.826052604523          4.824447535831
      0.1873113696D+02  0.3349460434D-01
      0.2825394365D+01  0.2347269535D+00
      0.6401216923D+00  0.8137573261D+00
 Atom H18      Shell    54 S   1     bf  153 -   153          1.449549276780          1.826052604523          4.824447535831
      0.1612777588D+00  0.1000000000D+01
 Atom C19      Shell    55 S   6     bf  154 -   154          0.510073951823          2.770705268858         -3.960402292427
      0.3047524880D+04  0.1834737132D-02
      0.4573695180D+03  0.1403732281D-01
      0.1039486850D+03  0.6884262226D-01
      0.2921015530D+02  0.2321844432D+00
      0.9286662960D+01  0.4679413484D+00
      0.3163926960D+01  0.3623119853D+00
 Atom C19      Shell    56 SP   3    bf  155 -   158          0.510073951823          2.770705268858         -3.960402292427
      0.7868272350D+01 -0.1193324198D+00  0.6899906659D-01
      0.1881288540D+01 -0.1608541517D+00  0.3164239610D+00
      0.5442492580D+00  0.1143456438D+01  0.7443082909D+00
 Atom C19      Shell    57 SP   1    bf  159 -   162          0.510073951823          2.770705268858         -3.960402292427
      0.1687144782D+00  0.1000000000D+01  0.1000000000D+01
 Atom C19      Shell    58 D   1     bf  163 -   168          0.510073951823          2.770705268858         -3.960402292427
      0.8000000000D+00  0.1000000000D+01
 Atom H20      Shell    59 S   3     bf  169 -   169         -1.017575986379          4.100689796868         -3.536934508172
      0.1873113696D+02  0.3349460434D-01
      0.2825394365D+01  0.2347269535D+00
      0.6401216923D+00  0.8137573261D+00
 Atom H20      Shell    60 S   1     bf  170 -   170         -1.017575986379          4.100689796868         -3.536934508172
      0.1612777588D+00  0.1000000000D+01
 Atom H21      Shell    61 S   3     bf  171 -   171          0.643738457496          2.697628160902         -6.025624192123
      0.1873113696D+02  0.3349460434D-01
      0.2825394365D+01  0.2347269535D+00
      0.6401216923D+00  0.8137573261D+00
 Atom H21      Shell    62 S   1     bf  172 -   172          0.643738457496          2.697628160902         -6.025624192123
      0.1612777588D+00  0.1000000000D+01
 Atom C22      Shell    63 S   6     bf  173 -   173          5.307464936904          3.130913261390          3.966719136663
      0.3047524880D+04  0.1834737132D-02
      0.4573695180D+03  0.1403732281D-01
      0.1039486850D+03  0.6884262226D-01
      0.2921015530D+02  0.2321844432D+00
      0.9286662960D+01  0.4679413484D+00
      0.3163926960D+01  0.3623119853D+00
 Atom C22      Shell    64 SP   3    bf  174 -   177          5.307464936904          3.130913261390          3.966719136663
      0.7868272350D+01 -0.1193324198D+00  0.6899906659D-01
      0.1881288540D+01 -0.1608541517D+00  0.3164239610D+00
      0.5442492580D+00  0.1143456438D+01  0.7443082909D+00
 Atom C22      Shell    65 SP   1    bf  178 -   181          5.307464936904          3.130913261390          3.966719136663
      0.1687144782D+00  0.1000000000D+01  0.1000000000D+01
 Atom C22      Shell    66 D   1     bf  182 -   187          5.307464936904          3.130913261390          3.966719136663
      0.8000000000D+00  0.1000000000D+01
 Atom H23      Shell    67 S   3     bf  188 -   188          4.874806412909          4.572523534124          5.385617943739
      0.1873113696D+02  0.3349460434D-01
      0.2825394365D+01  0.2347269535D+00
      0.6401216923D+00  0.8137573261D+00
 Atom H23      Shell    68 S   1     bf  189 -   189          4.874806412909          4.572523534124          5.385617943739
      0.1612777588D+00  0.1000000000D+01
 Atom H24      Shell    69 S   3     bf  190 -   190          7.066358186445          2.226874156466          4.579528975666
      0.1873113696D+02  0.3349460434D-01
      0.2825394365D+01  0.2347269535D+00
      0.6401216923D+00  0.8137573261D+00
 Atom H24      Shell    70 S   1     bf  191 -   191          7.066358186445          2.226874156466          4.579528975666
      0.1612777588D+00  0.1000000000D+01
 Atom C25      Shell    71 S   6     bf  192 -   192         -0.252208140928         -2.754053002175          0.889170342868
      0.3047524880D+04  0.1834737132D-02
      0.4573695180D+03  0.1403732281D-01
      0.1039486850D+03  0.6884262226D-01
      0.2921015530D+02  0.2321844432D+00
      0.9286662960D+01  0.4679413484D+00
      0.3163926960D+01  0.3623119853D+00
 Atom C25      Shell    72 SP   3    bf  193 -   196         -0.252208140928         -2.754053002175          0.889170342868
      0.7868272350D+01 -0.1193324198D+00  0.6899906659D-01
      0.1881288540D+01 -0.1608541517D+00  0.3164239610D+00
      0.5442492580D+00  0.1143456438D+01  0.7443082909D+00
 Atom C25      Shell    73 SP   1    bf  197 -   200         -0.252208140928         -2.754053002175          0.889170342868
      0.1687144782D+00  0.1000000000D+01  0.1000000000D+01
 Atom C25      Shell    74 D   1     bf  201 -   206         -0.252208140928         -2.754053002175          0.889170342868
      0.8000000000D+00  0.1000000000D+01
 Atom H26      Shell    75 S   3     bf  207 -   207         -0.645547586810         -2.811436010187          2.925963486080
      0.1873113696D+02  0.3349460434D-01
      0.2825394365D+01  0.2347269535D+00
      0.6401216923D+00  0.8137573261D+00
 Atom H26      Shell    76 S   1     bf  208 -   208         -0.645547586810         -2.811436010187          2.925963486080
      0.1612777588D+00  0.1000000000D+01
 Atom H27      Shell    77 S   3     bf  209 -   209          1.573758197597         -3.730586706975          0.654148977660
      0.1873113696D+02  0.3349460434D-01
      0.2825394365D+01  0.2347269535D+00
      0.6401216923D+00  0.8137573261D+00
 Atom H27      Shell    78 S   1     bf  210 -   210          1.573758197597         -3.730586706975          0.654148977660
      0.1612777588D+00  0.1000000000D+01
 Atom C28      Shell    79 S   6     bf  211 -   211          7.062555207089          6.909437614939          1.362773355114
      0.3047524880D+04  0.1834737132D-02
      0.4573695180D+03  0.1403732281D-01
      0.1039486850D+03  0.6884262226D-01
      0.2921015530D+02  0.2321844432D+00
      0.9286662960D+01  0.4679413484D+00
      0.3163926960D+01  0.3623119853D+00
 Atom C28      Shell    80 SP   3    bf  212 -   215          7.062555207089          6.909437614939          1.362773355114
      0.7868272350D+01 -0.1193324198D+00  0.6899906659D-01
      0.1881288540D+01 -0.1608541517D+00  0.3164239610D+00
      0.5442492580D+00  0.1143456438D+01  0.7443082909D+00
 Atom C28      Shell    81 SP   1    bf  216 -   219          7.062555207089          6.909437614939          1.362773355114
      0.1687144782D+00  0.1000000000D+01  0.1000000000D+01
 Atom C28      Shell    82 D   1     bf  220 -   225          7.062555207089          6.909437614939          1.362773355114
      0.8000000000D+00  0.1000000000D+01
 Atom H29      Shell    83 S   3     bf  226 -   226          8.777482258498          6.495679016787          2.471620052354
      0.1873113696D+02  0.3349460434D-01
      0.2825394365D+01  0.2347269535D+00
      0.6401216923D+00  0.8137573261D+00
 Atom H29      Shell    84 S   1     bf  227 -   227          8.777482258498          6.495679016787          2.471620052354
      0.1612777588D+00  0.1000000000D+01
 Atom C30      Shell    85 S   6     bf  228 -   228          0.992990384828          5.767740409933          0.982821447254
      0.3047524880D+04  0.1834737132D-02
      0.4573695180D+03  0.1403732281D-01
      0.1039486850D+03  0.6884262226D-01
      0.2921015530D+02  0.2321844432D+00
      0.9286662960D+01  0.4679413484D+00
      0.3163926960D+01  0.3623119853D+00
 Atom C30      Shell    86 SP   3    bf  229 -   232          0.992990384828          5.767740409933          0.982821447254
      0.7868272350D+01 -0.1193324198D+00  0.6899906659D-01
      0.1881288540D+01 -0.1608541517D+00  0.3164239610D+00
      0.5442492580D+00  0.1143456438D+01  0.7443082909D+00
 Atom C30      Shell    87 SP   1    bf  233 -   236          0.992990384828          5.767740409933          0.982821447254
      0.1687144782D+00  0.1000000000D+01  0.1000000000D+01
 Atom C30      Shell    88 D   1     bf  237 -   242          0.992990384828          5.767740409933          0.982821447254
      0.8000000000D+00  0.1000000000D+01
 Atom H31      Shell    89 S   3     bf  243 -   243          1.212362852341          7.621115581954          0.094054560915
      0.1873113696D+02  0.3349460434D-01
      0.2825394365D+01  0.2347269535D+00
      0.6401216923D+00  0.8137573261D+00
 Atom H31      Shell    90 S   1     bf  244 -   244          1.212362852341          7.621115581954          0.094054560915
      0.1612777588D+00  0.1000000000D+01
 Atom H32      Shell    91 S   3     bf  245 -   245         -0.921883826592          5.119111322307          0.561799270970
      0.1873113696D+02  0.3349460434D-01
      0.2825394365D+01  0.2347269535D+00
      0.6401216923D+00  0.8137573261D+00
 Atom H32      Shell    92 S   1     bf  246 -   246         -0.921883826592          5.119111322307          0.561799270970
      0.1612777588D+00  0.1000000000D+01
 Atom H33      Shell    93 S   3     bf  247 -   247          1.105861496868          6.042392185634          3.027003740898
      0.1873113696D+02  0.3349460434D-01
      0.2825394365D+01  0.2347269535D+00
      0.6401216923D+00  0.8137573261D+00
 Atom H33      Shell    94 S   1     bf  248 -   248          1.105861496868          6.042392185634          3.027003740898
      0.1612777588D+00  0.1000000000D+01
 Atom C34      Shell    95 S   6     bf  249 -   249         -3.407356780925         -3.420339237252         -2.627508663317
      0.3047524880D+04  0.1834737132D-02
      0.4573695180D+03  0.1403732281D-01
      0.1039486850D+03  0.6884262226D-01
      0.2921015530D+02  0.2321844432D+00
      0.9286662960D+01  0.4679413484D+00
      0.3163926960D+01  0.3623119853D+00
 Atom C34      Shell    96 SP   3    bf  250 -   253         -3.407356780925         -3.420339237252         -2.627508663317
      0.7868272350D+01 -0.1193324198D+00  0.6899906659D-01
      0.1881288540D+01 -0.1608541517D+00  0.3164239610D+00
      0.5442492580D+00  0.1143456438D+01  0.7443082909D+00
 Atom C34      Shell    97 SP   1    bf  254 -   257         -3.407356780925         -3.420339237252         -2.627508663317
      0.1687144782D+00  0.1000000000D+01  0.1000000000D+01
 Atom C34      Shell    98 D   1     bf  258 -   263         -3.407356780925         -3.420339237252         -2.627508663317
      0.8000000000D+00  0.1000000000D+01
 Atom C35      Shell    99 S   6     bf  264 -   264         -2.401900534202         -1.518960712881         -6.847263565365
      0.3047524880D+04  0.1834737132D-02
      0.4573695180D+03  0.1403732281D-01
      0.1039486850D+03  0.6884262226D-01
      0.2921015530D+02  0.2321844432D+00
      0.9286662960D+01  0.4679413484D+00
      0.3163926960D+01  0.3623119853D+00
 Atom C35      Shell   100 SP   3    bf  265 -   268         -2.401900534202         -1.518960712881         -6.847263565365
      0.7868272350D+01 -0.1193324198D+00  0.6899906659D-01
      0.1881288540D+01 -0.1608541517D+00  0.3164239610D+00
      0.5442492580D+00  0.1143456438D+01  0.7443082909D+00
 Atom C35      Shell   101 SP   1    bf  269 -   272         -2.401900534202         -1.518960712881         -6.847263565365
      0.1687144782D+00  0.1000000000D+01  0.1000000000D+01
 Atom C35      Shell   102 D   1     bf  273 -   278         -2.401900534202         -1.518960712881         -6.847263565365
      0.8000000000D+00  0.1000000000D+01
 Atom H36      Shell   103 S   3     bf  279 -   279         -0.632518151891         -2.576578578720         -7.099300459311
      0.1873113696D+02  0.3349460434D-01
      0.2825394365D+01  0.2347269535D+00
      0.6401216923D+00  0.8137573261D+00
 Atom H36      Shell   104 S   1     bf  280 -   280         -0.632518151891         -2.576578578720         -7.099300459311
      0.1612777588D+00  0.1000000000D+01
 Atom H37      Shell   105 S   3     bf  281 -   281         -2.176708730652          0.257569142789         -7.885691111147
      0.1873113696D+02  0.3349460434D-01
      0.2825394365D+01  0.2347269535D+00
      0.6401216923D+00  0.8137573261D+00
 Atom H37      Shell   106 S   1     bf  282 -   282         -2.176708730652          0.257569142789         -7.885691111147
      0.1612777588D+00  0.1000000000D+01
 Atom C38      Shell   107 S   6     bf  283 -   283         -2.265013289582         -4.194232695535         -0.501524622928
      0.3047524880D+04  0.1834737132D-02
      0.4573695180D+03  0.1403732281D-01
      0.1039486850D+03  0.6884262226D-01
      0.2921015530D+02  0.2321844432D+00
      0.9286662960D+01  0.4679413484D+00
      0.3163926960D+01  0.3623119853D+00
 Atom C38      Shell   108 SP   3    bf  284 -   287         -2.265013289582         -4.194232695535         -0.501524622928
      0.7868272350D+01 -0.1193324198D+00  0.6899906659D-01
      0.1881288540D+01 -0.1608541517D+00  0.3164239610D+00
      0.5442492580D+00  0.1143456438D+01  0.7443082909D+00
 Atom C38      Shell   109 SP   1    bf  288 -   291         -2.265013289582         -4.194232695535         -0.501524622928
      0.1687144782D+00  0.1000000000D+01  0.1000000000D+01
 Atom C38      Shell   110 D   1     bf  292 -   297         -2.265013289582         -4.194232695535         -0.501524622928
      0.8000000000D+00  0.1000000000D+01
 Atom H39      Shell   111 S   3     bf  298 -   298         -2.822279579991         -6.003920838665          0.312149989302
      0.1873113696D+02  0.3349460434D-01
      0.2825394365D+01  0.2347269535D+00
      0.6401216923D+00  0.8137573261D+00
 Atom H39      Shell   112 S   1     bf  299 -   299         -2.822279579991         -6.003920838665          0.312149989302
      0.1612777588D+00  0.1000000000D+01
 Atom C40      Shell   113 S   6     bf  300 -   300         -4.920195234669          0.968524894271         -3.600183150511
      0.3047524880D+04  0.1834737132D-02
      0.4573695180D+03  0.1403732281D-01
      0.1039486850D+03  0.6884262226D-01
      0.2921015530D+02  0.2321844432D+00
      0.9286662960D+01  0.4679413484D+00
      0.3163926960D+01  0.3623119853D+00
 Atom C40      Shell   114 SP   3    bf  301 -   304         -4.920195234669          0.968524894271         -3.600183150511
      0.7868272350D+01 -0.1193324198D+00  0.6899906659D-01
      0.1881288540D+01 -0.1608541517D+00  0.3164239610D+00
      0.5442492580D+00  0.1143456438D+01  0.7443082909D+00
[...]
 1532 Fit       0.001533
 1533 Fit       0.002896
 1534 Fit       0.003116
 1535 Fit       0.002216
 1536 Fit       0.000224
 1537 Fit      -0.000554
 1538 Fit       0.001417
 1539 Fit       0.001710
 1540 Fit      -0.000290
 1541 Fit      -0.000418
 1542 Fit      -0.000548
 1543 Fit       0.000895
 1544 Fit       0.002130
 1545 Fit       0.003038
 1546 Fit       0.002034
 1547 Fit      -0.000211
 1548 Fit       0.001621
 1549 Fit       0.002759
 1550 Fit       0.002025
 1551 Fit       0.000452
 1552 Fit      -0.000509
 1553 Fit       0.001609
 1554 Fit       0.000119
 1555 Fit       0.005208
 1556 Fit       0.003652
 1557 Fit       0.004983
 1558 Fit       0.003626
 1559 Fit       0.002132
 1560 Fit       0.002231
 1561 Fit       0.002062
 1562 Fit       0.001561
 1563 Fit       0.000575
 1564 Fit      -0.000835
 1565 Fit      -0.002160
 1566 Fit      -0.002481
 1567 Fit      -0.002438
 1568 Fit      -0.001729
 1569 Fit      -0.001702
 1570 Fit      -0.000147
 1571 Fit      -0.000379
 1572 Fit       0.001544
 1573 Fit       0.001349
 1574 Fit      -0.000732
 1575 Fit       0.001478
 1576 Fit       0.002756
 1577 Fit       0.003047
 1578 Fit      -0.001539
 1579 Fit       0.000614
 1580 Fit       0.002135
 1581 Fit       0.002819
 1582 Fit      -0.000472
 1583 Fit       0.000946
 1584 Fit       0.001408
 1585 Fit      -0.002131
 1586 Fit      -0.001502
 1587 Fit       0.000090
 1588 Fit      -0.001387
 1589 Fit      -0.000467
 1590 Fit       0.000669
 1591 Fit       0.000879
 1592 Fit       0.001663
 1593 Fit       0.000074
 1594 Fit       0.002297
 1595 Fit       0.002472
 1596 Fit       0.002292
 1597 Fit       0.000867
 1598 Fit       0.003198
 1599 Fit       0.002343
 1600 Fit       0.002899
 1601 Fit       0.000360
 1602 Fit       0.000044
 1603 Fit       0.003718
 1604 Fit       0.002349
 1605 Fit       0.003328
 1606 Fit       0.002947
 1607 Fit       0.001458
 1608 Fit      -0.000381
 1609 Fit       0.000326
 1610 Fit      -0.001128
 1611 Fit      -0.013413
 1612 Fit      -0.005571
 1613 Fit      -0.020620
 1614 Fit      -0.019311
 1615 Fit      -0.012790
 1616 Fit      -0.024269
 1617 Fit      -0.023672
 1618 Fit      -0.018270
 1619 Fit      -0.010157
 1620 Fit      -0.001062
 1621 Fit      -0.004114
 1622 Fit      -0.026422
 1623 Fit      -0.024668
 1624 Fit      -0.019721
 1625 Fit      -0.014784
 1626 Fit      -0.012759
 1627 Fit      -0.013325
 1628 Fit      -0.013349
 1629 Fit      -0.024975
 1630 Fit      -0.025780
 1631 Fit      -0.022284
 1632 Fit      -0.020405
 1633 Fit      -0.023968
 1634 Fit       0.008379
 1635 Fit       0.015042
 1636 Fit       0.018521
 1637 Fit       0.019181
 1638 Fit      -0.002801
 1639 Fit       0.006781
 1640 Fit       0.012879
 1641 Fit       0.016023
 1642 Fit       0.016681
 1643 Fit       0.015319
 1644 Fit       0.000523
 1645 Fit       0.007411
 1646 Fit       0.010665
 1647 Fit       0.010934
 1648 Fit       0.008746
 1649 Fit      -0.002398
 1650 Fit       0.001360
 1651 Fit      -0.000066
 1652 Fit       0.003731
 1653 Fit       0.003628
 1654 Fit       0.004092
 1655 Fit       0.004435
 1656 Fit       0.004040
 1657 Fit       0.004657
 1658 Fit       0.001899
 1659 Fit       0.002265
 1660 Fit      -0.000423
 1661 Fit      -0.000431
 1662 Fit       0.002318
 1663 Fit       0.003409
 1664 Fit       0.002821
 1665 Fit       0.003016
 1666 Fit       0.003296
 1667 Fit       0.002700
 1668 Fit       0.004166
 1669 Fit       0.005931
 1670 Fit       0.001403
 1671 Fit       0.001741
 1672 Fit       0.004445
 1673 Fit       0.002687
 1674 Fit       0.001578
 1675 Fit       0.004001
 1676 Fit       0.003031
 1677 Fit       0.003329
 1678 Fit       0.002453
 1679 Fit       0.001667
 1680 Fit       0.002670
 1681 Fit       0.002341
 1682 Fit      -0.000731
 1683 Fit      -0.000386
 1684 Fit      -0.000539
 1685 Fit       0.000588
 1686 Fit      -0.000171
 1687 Fit       0.000963
 1688 Fit       0.001246
 1689 Fit       0.002190
 1690 Fit       0.002586
 1691 Fit       0.002658
 1692 Fit       0.002036
 1693 Fit       0.002782
 1694 Fit       0.003285
 1695 Fit       0.003158
 1696 Fit       0.002664
 1697 Fit       0.003391
 1698 Fit       0.002922
 1699 Fit       0.000485
 1700 Fit       0.002144
 1701 Fit       0.001727
 1702 Fit       0.000520
 1703 Fit       0.004228
 1704 Fit       0.003142
 1705 Fit       0.002605
 1706 Fit       0.002091
 1707 Fit       0.001544
 1708 Fit       0.002486
 1709 Fit       0.002416
 1710 Fit       0.001620
 1711 Fit       0.002060
 1712 Fit       0.002091
 1713 Fit       0.002610
 1714 Fit       0.001669
 1715 Fit       0.002844
 1716 Fit       0.002001
 1717 Fit       0.002103
 1718 Fit       0.002249
 1719 Fit       0.002138
 1720 Fit       0.002797
 1721 Fit       0.001904
 1722 Fit       0.002767
 1723 Fit       0.002965
 1724 Fit       0.003492
 1725 Fit       0.003594
 1726 Fit      -0.000960
 1727 Fit      -0.001174
 1728 Fit      -0.001020
 1729 Fit      -0.000702
 1730 Fit      -0.000103
 1731 Fit       0.000889
 1732 Fit      -0.000174
 1733 Fit       0.001597
 1734 Fit       0.002799
 1735 Fit       0.001852
 1736 Fit      -0.000264
 1737 Fit       0.000044
 1738 Fit       0.003792
 1739 Fit       0.000264
 1740 Fit       0.000415
 1741 Fit       0.001528
 1742 Fit       0.000292
 1743 Fit       0.001760
 1744 Fit       0.002026
 1745 Fit       0.002376
 1746 Fit       0.002554
 1747 Fit       0.002777
 1748 Fit       0.002811
 1749 Fit       0.002692
 1750 Fit       0.002844
 1751 Fit       0.003017
 1752 Fit       0.003012
 1753 Fit       0.003262
 1754 Fit       0.002779
 1755 Fit       0.002576
 1756 Fit       0.002263
 1757 Fit       0.002626
 1758 Fit       0.003183
 1759 Fit       0.002966
 1760 Fit       0.001944
 1761 Fit       0.001117
 1762 Fit       0.001535
 1763 Fit       0.003077
 1764 Fit       0.003571
 1765 Fit       0.002878
 1766 Fit       0.002578
 1767 Fit       0.003207
 1768 Fit       0.003821
 1769 Fit       0.002530
 1770 Fit       0.003058
 1771 Fit       0.003630
 1772 Fit       0.001338
 1773 Fit       0.002651
 1774 Fit       0.003590
 1775 Fit       0.000185
 1776 Fit       0.002488
 1777 Fit      -0.000656
 1778 Fit       0.000657
 1779 Fit       0.001648
 1780 Fit       0.001179
 1781 Fit       0.001840
 1782 Fit       0.002185
 1783 Fit       0.001720
 1784 Fit       0.002554
 1785 Fit       0.002478
 1786 Fit      -0.001247
 1787 Fit      -0.000972
 1788 Fit      -0.000059
 1789 Fit      -0.001089
 1790 Fit      -0.000845
 1791 Fit      -0.000209
 1792 Fit       0.000721
 1793 Fit      -0.000008
 1794 Fit       0.002736
 1795 Fit       0.001296
 1796 Fit       0.003447
 1797 Fit       0.002119
 1798 Fit       0.003079
 1799 Fit       0.000775
 1800 Fit       0.002672
 1801 Fit       0.000934
 1802 Fit       0.003013
 1803 Fit       0.001480
 1804 Fit       0.004626
 1805 Fit       0.003064
 1806 Fit       0.003116
 1807 Fit       0.000711
 1808 Fit       0.000800
 1809 Fit       0.001069
 1810 Fit       0.001960
 1811 Fit       0.000237
 1812 Fit      -0.000051
 1813 Fit       0.001613
 1814 Fit       0.002790
 1815 Fit       0.002418
 1816 Fit       0.001825
 1817 Fit       0.002572
 1818 Fit       0.002633
 1819 Fit       0.001450
 1820 Fit       0.000968
 1821 Fit       0.001556
 1822 Fit       0.001781
 1823 Fit       0.000438
 1824 Fit       0.000485
 1825 Fit       0.003644
 1826 Fit       0.001137
 1827 Fit       0.003118
 1828 Fit       0.003588
 1829 Fit       0.002835
 1830 Fit       0.001141
 1831 Fit       0.000769
 1832 Fit       0.001841
 1833 Fit       0.000828
 1834 Fit       0.000094
 1835 Fit      -0.003536
 1836 Fit      -0.000981
 1837 Fit      -0.006270
 1838 Fit      -0.006559
 1839 Fit      -0.003091
 1840 Fit       0.000415
 1841 Fit      -0.000761
 1842 Fit       0.000116
 1843 Fit      -0.002896
 1844 Fit      -0.002535
 1845 Fit       0.001712
 1846 Fit       0.004418
 1847 Fit       0.004754
 1848 Fit       0.002161
 1849 Fit       0.005379
 1850 Fit       0.006153
 1851 Fit       0.005302
 1852 Fit       0.007739
 1853 Fit       0.007584
 1854 Fit       0.005945
 1855 Fit       0.003903
 1856 Fit       0.005535
 1857 Fit       0.001934
 1858 Fit      -0.001116
 1859 Fit      -0.001734
 1860 Fit       0.000190
 1861 Fit      -0.001197
 1862 Fit      -0.001815
 1863 Fit      -0.000992
 1864 Fit      -0.001807
 1865 Fit      -0.001509
 1866 Fit       0.001415
 1867 Fit      -0.000362
 1868 Fit       0.001999
 1869 Fit       0.000398
 1870 Fit       0.003000
 1871 Fit       0.002396
 1872 Fit       0.000781
 1873 Fit      -0.000980
 1874 Fit       0.001572
 1875 Fit      -0.000321
 1876 Fit      -0.001547
 1877 Fit      -0.000830
 1878 Fit      -0.001236
 1879 Fit      -0.000455
 1880 Fit      -0.001235
 1881 Fit      -0.001127
 1882 Fit      -0.001595
 1883 Fit       0.002794
 1884 Fit       0.000551
 1885 Fit      -0.002510
 1886 Fit       0.003020
 1887 Fit       0.001346
 1888 Fit      -0.000072
 1889 Fit      -0.001863
 1890 Fit      -0.005907
 1891 Fit       0.001266
 1892 Fit      -0.000128
 1893 Fit      -0.001178
 1894 Fit      -0.000478
 1895 Fit       0.004130
 1896 Fit       0.001159
 1897 Fit       0.005997
 1898 Fit       0.003254
 1899 Fit       0.007159
 1900 Fit       0.009171
 1901 Fit       0.006428
 1902 Fit       0.011240
 1903 Fit       0.012616
 1904 Fit       0.011113
 1905 Fit       0.007858
 1906 Fit       0.015834
 1907 Fit       0.009513
 1908 Fit      -0.005221
 1909 Fit      -0.002550
 1910 Fit      -0.001339
 1911 Fit      -0.000892
 1912 Fit      -0.000763
 1913 Fit      -0.000565
 1914 Fit      -0.001953
 1915 Fit      -0.001661
 1916 Fit      -0.002996
 1917 Fit      -0.006984
 1918 Fit      -0.008684
 1919 Fit      -0.013362
 1920 Fit      -0.002891
 1921 Fit      -0.006551
 1922 Fit      -0.012665
 1923 Fit      -0.022678
 1924 Fit      -0.002489
 1925 Fit      -0.008860
 1926 Fit      -0.001050
 1927 Fit      -0.002488
 1928 Fit      -0.005541
 1929 Fit      -0.012955
 1930 Fit      -0.002658
 1931 Fit      -0.004898
 1932 Fit      -0.009746
 1933 Fit      -0.020688
 1934 Fit      -0.002508
 1935 Fit       0.000139
 1936 Fit      -0.000406
 1937 Fit      -0.000232
 1938 Fit      -0.000679
 1939 Fit      -0.002834
 1940 Fit      -0.012611
 1941 Fit      -0.020733
 1942 Fit      -0.015417
 1943 Fit      -0.006240
 1944 Fit      -0.001836
 1945 Fit      -0.001857
 1946 Fit      -0.002039
 1947 Fit      -0.004885
 1948 Fit      -0.009368
 1949 Fit      -0.010021
 1950 Fit      -0.004866
 1951 Fit      -0.004652
 1952 Fit      -0.001825
 1953 Fit      -0.000544
 1954 Fit       0.002151
 1955 Fit       0.000023
 1956 Fit       0.002492
 1957 Fit       0.001712
 1958 Fit       0.002303
 1959 Fit       0.002246
 1960 Fit       0.002229
 1961 Fit       0.001556
 1962 Fit      -0.000051
 1963 Fit       0.002009
 1964 Fit       0.000870
 1965 Fit      -0.000444
 1966 Fit      -0.001238
 1967 Fit       0.005752
 1968 Fit      -0.000024
 1969 Fit       0.000876
 1970 Fit       0.007806
 1971 Fit       0.004262
 1972 Fit       0.002189
 1973 Fit       0.002860
 1974 Fit       0.004478
 1975 Fit       0.003072
 1976 Fit       0.002558
 1977 Fit       0.001438
 1978 Fit      -0.000651
 1979 Fit       0.000605
 1980 Fit      -0.005643
 1981 Fit      -0.000881
 1982 Fit      -0.000590
 1983 Fit      -0.001591
 1984 Fit      -0.000564
 1985 Fit      -0.001707
 1986 Fit      -0.002047
 1987 Fit      -0.001543
 1988 Fit      -0.001974
 1989 Fit      -0.001728
 1990 Fit      -0.001479
 1991 Fit      -0.000493
 1992 Fit      -0.000330
 1993 Fit      -0.000145
 1994 Fit       0.001180
 1995 Fit      -0.001566
 1996 Fit       0.000615
 1997 Fit       0.002651
 1998 Fit       0.002833
 1999 Fit      -0.000466
 2000 Fit      -0.000368
 2001 Fit       0.000773
 2002 Fit       0.001178
 2003 Fit       0.000695
 2004 Fit      -0.000636
 2005 Fit       0.001720
 2006 Fit       0.002075
 2007 Fit       0.001783
 2008 Fit       0.000758
 2009 Fit      -0.000795
 2010 Fit       0.002587
 2011 Fit       0.001920
 2012 Fit       0.000604
 2013 Fit      -0.001032
 2014 Fit       0.002227
 2015 Fit       0.000632
 2016 Fit       0.000157
 2017 Fit       0.001152
 2018 Fit       0.003121
 2019 Fit       0.000009
 2020 Fit       0.001908
 2021 Fit       0.004588
 2022 Fit      -0.000562
 2023 Fit       0.002548
 2024 Fit       0.001983
 2025 Fit       0.001696
 2026 Fit       0.001616
 2027 Fit       0.002741
 2028 Fit       0.002770
 2029 Fit       0.001400
 2030 Fit       0.002776
 2031 Fit       0.004788
 2032 Fit      -0.001633
 2033 Fit      -0.001235
 2034 Fit      -0.000396
 2035 Fit       0.002462
 2036 Fit       0.002403
 2037 Fit       0.002307
 2038 Fit       0.001754
 2039 Fit       0.000721
 2040 Fit       0.001621
 2041 Fit       0.000952
 2042 Fit      -0.000244
 2043 Fit       0.000367
 2044 Fit      -0.000769
 2045 Fit      -0.000967
 2046 Fit       0.000583
 2047 Fit       0.002368
 2048 Fit      -0.000019
 2049 Fit       0.001295
 2050 Fit       0.002400
 2051 Fit       0.002761
 2052 Fit       0.001270
 2053 Fit       0.002319
 2054 Fit       0.001412
 2055 Fit       0.000185
 2056 Fit       0.000830
 2057 Fit       0.000826
 2058 Fit       0.000113
 2059 Fit       0.000974
 2060 Fit       0.001111
 2061 Fit       0.001273
 2062 Fit       0.001022
 2063 Fit       0.000734
 2064 Fit       0.001007
 2065 Fit       0.001515
 2066 Fit       0.001115
 2067 Fit       0.001303
 2068 Fit       0.001044
 2069 Fit       0.000414
 2070 Fit       0.000754
 2071 Fit      -0.000786
 2072 Fit      -0.000871
 2073 Fit      -0.000598
 2074 Fit      -0.000996
 2075 Fit      -0.001009
 2076 Fit      -0.001331
 2077 Fit      -0.001219
 2078 Fit      -0.001095
 2079 Fit      -0.000368
 2080 Fit      -0.001132
 2081 Fit      -0.000871
 2082 Fit       0.002791
 2083 Fit       0.002347
 2084 Fit       0.001483
 2085 Fit       0.000031
 2086 Fit       0.001200
 2087 Fit       0.002167
 2088 Fit       0.002367
 2089 Fit       0.001691
 2090 Fit       0.000232
 2091 Fit       0.000982
 2092 Fit       0.001134
 2093 Fit      -0.000224
 2094 Fit      -0.000278
 2095 Fit      -0.000622
 2096 Fit       0.000171
 2097 Fit      -0.000889
 2098 Fit       0.000341
 2099 Fit       0.001368
 2100 Fit       0.002229
 2101 Fit       0.002297
 2102 Fit       0.001605
 2103 Fit      -0.000019
 2104 Fit       0.001301
 2105 Fit       0.002136
 2106 Fit       0.001432
 2107 Fit       0.000411
 2108 Fit      -0.000322
 2109 Fit       0.001101
 2110 Fit       0.000109
 2111 Fit       0.003372
 2112 Fit       0.005147
 2113 Fit       0.003627
 2114 Fit       0.002409
 2115 Fit       0.003188
 2116 Fit       0.002284
 2117 Fit       0.001284
 2118 Fit       0.000092
 2119 Fit       0.000645
 2120 Fit       0.000187
 2121 Fit      -0.000504
 2122 Fit      -0.000289
 2123 Fit       0.000242
 2124 Fit      -0.001247
 2125 Fit      -0.001654
 2126 Fit      -0.001669
 2127 Fit      -0.001579
 2128 Fit      -0.001017
 2129 Fit      -0.001172
 2130 Fit      -0.001246
 2131 Fit      -0.000558
 2132 Fit       0.000304
 2133 Fit       0.000028
 2134 Fit      -0.000156
 2135 Fit       0.001161
 2136 Fit       0.001239
 2137 Fit      -0.000466
 2138 Fit       0.001105
 2139 Fit       0.002082
 2140 Fit       0.002386
 2141 Fit      -0.000923
 2142 Fit       0.000634
 2143 Fit       0.001808
 2144 Fit       0.002459
 2145 Fit      -0.000036
 2146 Fit       0.001131
 2147 Fit       0.001799
 2148 Fit      -0.000597
 2149 Fit       0.000441
 2150 Fit      -0.000691
 2151 Fit      -0.000749
 2152 Fit      -0.000176
 2153 Fit      -0.000142
 2154 Fit       0.000636
 2155 Fit      -0.000375
 2156 Fit       0.000687
 2157 Fit       0.001249
 2158 Fit       0.001242
 2159 Fit       0.001507
 2160 Fit       0.000456
 2161 Fit       0.002241
 2162 Fit       0.002132
 2163 Fit       0.001895
 2164 Fit       0.001013
 2165 Fit       0.002707
 2166 Fit       0.002037
 2167 Fit       0.002591
 2168 Fit       0.000707
 2169 Fit       0.000723
 2170 Fit       0.003204
 2171 Fit       0.002073
 2172 Fit       0.002995
 2173 Fit       0.002730
 2174 Fit       0.001569
 2175 Fit       0.000181
 2176 Fit       0.002192
 2177 Fit       0.000917
 2178 Fit      -0.000280
 -----------------------------------------------------------------
 Leave Link  602 at Tue Mar 21 12:40:09 2017, MaxMem=    33554432 cpu:         3.2
 (Enter /home/michal/g09/l9999.exe)

 Test job not archived.
 1\1\GINC-LINUX\SP\RHF\6-31G(d)\C27H46O1\MICHAL\21-Mar-2017\0\\#P HF/6-
 31G* SCF(Conver=6) NoSymm Test Pop=mk IOp(6/33=2) GFInput GFPrint\\MEP
  - Input generated by R.E.D.-III.x MOLECULE\\0,1\O,0,-3.73846728,-3.59
 039138,-4.13635813\H,0,-3.88428335,-4.43545936,-3.6907714\C,0,1.598222
 32,2.06696847,0.\C,0,1.32591653,0.60944611,0.47369917\H,0,2.11434442,0
 .,0.\C,0,0.,0.,0.\H,0,-0.83666539,0.56769939,0.43070631\C,0,-0.0857119
 6,0.06320967,-1.54860607\H,0,0.69344047,-0.62628448,-1.91402325\C,0,2.
 99209616,2.29058862,0.6827086\H,0,3.6703239,1.61858394,0.13926874\C,0,
 1.58984453,2.04064834,-1.5408754\H,0,2.43014947,1.42490438,-1.89145523
 \H,0,1.73954462,3.04367865,-1.95778034\C,0,-1.44250242,-0.49842613,-2.
 10246427\C,0,1.64188515,0.63444017,1.98007127\H,0,1.91424159,-0.353488
 39,2.36474331\H,0,0.76706844,0.96630542,2.55298768\C,0,0.26991951,1.46
 619408,-2.09575463\H,0,-0.53847802,2.16999158,-1.87166513\H,0,0.340651
 72,1.42752334,-3.18862299\C,0,2.80858948,1.65680794,2.09909736\H,0,2.5
 7963645,2.41967524,2.84994627\H,0,3.7393557,1.17841105,2.42338236\C,0,
 -0.1334628,-1.45738208,0.47052868\H,0,-0.34160907,-1.48774786,1.548353
 19\H,0,0.83279697,-1.97414146,0.34616073\C,0,3.73734325,3.65631691,0.7
 211486\H,0,4.64484356,3.43736529,1.307925\C,0,0.52546788,3.05215677,0.
 52008671\H,0,0.64155479,4.03292067,0.04977153\H,0,-0.48783991,2.708917
 04,0.29729137\H,0,0.5851967,3.19749623,1.60182139\C,0,-1.80309555,-1.8
 0996557,-1.3904177\C,0,-1.27103102,-0.80379939,-3.62341582\H,0,-0.3347
 1419,-1.36346666,-3.756788\H,0,-1.15186465,0.13629972,-4.17292801\C,0,
 -1.19859341,-2.21949235,-0.2653954\H,0,-1.49348603,-3.17713807,0.16518
 266\C,0,-2.60365518,0.5125213,-1.90513487\H,0,-2.47681347,1.39590019,-
 2.53883897\H,0,-3.56910216,0.06948502,-2.16173466\H,0,-2.66715329,0.84
 330222,-0.86386177\C,0,-2.89627742,-2.64914175,-2.02550652\H,0,-2.9959
 2379,-3.59519806,-1.47787934\H,0,-3.86832004,-2.14045829,-1.95734633\C
 ,0,-2.41540912,-1.60943889,-4.25558764\H,0,-3.35456249,-1.04234364,-4.
 2424408\H,0,-2.1897702,-1.8178933,-5.30759292\C,0,4.23458367,4.1614054
 7,-0.65435515\H,0,3.3759918,4.36026305,-1.30934497\H,0,4.71275481,5.13
 804266,-0.49124674\C,0,-2.63460831,-2.92150057,-3.51386511\H,0,-1.7283
 3858,-3.54219128,-3.60979141\C,0,3.03095457,4.81389641,1.45584471\H,0,
 2.23760892,5.2618733,0.85054364\H,0,3.75611014,5.60593613,1.67477752\H
 ,0,2.59024992,4.50558461,2.40828949\C,0,5.24120293,3.2594957,-1.385768
 31\H,0,6.06667638,3.02376071,-0.70016823\H,0,4.77137877,2.30416999,-1.
 6446137\C,0,5.79267013,3.92078937,-2.6596409\H,0,6.25564131,4.87975212
 ,-2.38530243\H,0,4.94834933,4.17087131,-3.31839339\C,0,6.81966928,3.10
 284167,-3.47697888\H,0,7.09258634,3.73444652,-4.33537292\C,0,6.2267211
 1,1.80265106,-4.04492662\H,0,5.30823698,1.99671965,-4.61130224\H,0,6.9
 3761506,1.31233339,-4.71981337\H,0,5.98513864,1.08730261,-3.25030751\C
 ,0,8.11291138,2.82354569,-2.69326577\H,0,8.54496041,3.74845125,-2.2932
 8118\H,0,8.86565773,2.35495739,-3.33749224\H,0,7.93656326,2.14504629,-
 1.85063382\\Version=EM64L-G09RevD.01\HF=-1124.0727738\RMSD=4.913e-07\D
 ipole=0.4366494,-0.1037621,0.4906068\Quadrupole=-1.8866124,6.7817708,-
 4.8951583,-0.1102442,-6.2984451,-3.6589203\PG=C01 [X(C27H46O1)]\\@


 ALMOST ANYTHING IS EASIER TO GET INTO THAN OUT OF.

                         -- AGNES ALLEN'S LAW FROM
                PAUL DICKSON'S "THE OFFICIAL RULES"
 Job cpu time:       0 days  0 hours 10 minutes 51.5 seconds.
 File lengths (MBytes):  RWF=    142 Int=      0 D2E=      0 Chk=     10 Scr=      1
 Normal termination of Gaussian 09 at Tue Mar 21 12:40:09 2017.
