 Entering Gaussian System, Link 0=/home/michal/g09/g09
 Input=JOB2-gau_m1-5-1.com
 Output=JOB2-gau_m1-5-1.log
 Initial command:
 /home/michal/g09/l1.exe "/home/michal/gauss_scratch/Gau-13790.inp" -scrdir="/home/michal/gauss_scratch/"
 Entering Link 1 = /home/michal/g09/l1.exe PID=     13791.
  
 Copyright (c) 1988,1990,1992,1993,1995,1998,2003,2009,2013,
            Gaussian, Inc.  All Rights Reserved.
  
 This is part of the Gaussian(R) 09 program.  It is based on
 the Gaussian(R) 03 system (copyright 2003, Gaussian, Inc.),
 the Gaussian(R) 98 system (copyright 1998, Gaussian, Inc.),
 the Gaussian(R) 94 system (copyright 1995, Gaussian, Inc.),
 the Gaussian 92(TM) system (copyright 1992, Gaussian, Inc.),
 the Gaussian 90(TM) system (copyright 1990, Gaussian, Inc.),
 the Gaussian 88(TM) system (copyright 1988, Gaussian, Inc.),
 the Gaussian 86(TM) system (copyright 1986, Carnegie Mellon
 University), and the Gaussian 82(TM) system (copyright 1983,
 Carnegie Mellon University). Gaussian is a federally registered
 trademark of Gaussian, Inc.
  
 This software contains proprietary and confidential information,
 including trade secrets, belonging to Gaussian, Inc.
  
 This software is provided under written license and may be
 used, copied, transmitted, or stored only in accord with that
 written license.
  
 The following legend is applicable only to US Government
 contracts under FAR:
  
                    RESTRICTED RIGHTS LEGEND
  
 Use, reproduction and disclosure by the US Government is
 subject to restrictions as set forth in subparagraphs (a)
 and (c) of the Commercial Computer Software - Restricted
 Rights clause in FAR 52.227-19.
  
 Gaussian, Inc.
 340 Quinnipiac St., Bldg. 40, Wallingford CT 06492
  
  
 ---------------------------------------------------------------
 Warning -- This program may not be used in any manner that
 competes with the business of Gaussian, Inc. or will provide
 assistance to any competitor of Gaussian, Inc.  The licensee
 of this program is prohibited from giving any competitor of
 Gaussian, Inc. access to this program.  By using this program,
 the user acknowledges that Gaussian, Inc. is engaged in the
 business of creating and licensing software in the field of
 computational chemistry and represents and warrants to the
 licensee that it is not a competitor of Gaussian, Inc. and that
 it will not use this program in any manner prohibited above.
 ---------------------------------------------------------------
  

 Cite this work as:
 Gaussian 09, Revision D.01,
 M. J. Frisch, G. W. Trucks, H. B. Schlegel, G. E. Scuseria, 
 M. A. Robb, J. R. Cheeseman, G. Scalmani, V. Barone, B. Mennucci, 
 G. A. Petersson, H. Nakatsuji, M. Caricato, X. Li, H. P. Hratchian, 
 A. F. Izmaylov, J. Bloino, G. Zheng, J. L. Sonnenberg, M. Hada, 
 M. Ehara, K. Toyota, R. Fukuda, J. Hasegawa, M. Ishida, T. Nakajima, 
 Y. Honda, O. Kitao, H. Nakai, T. Vreven, J. A. Montgomery, Jr., 
 J. E. Peralta, F. Ogliaro, M. Bearpark, J. J. Heyd, E. Brothers, 
 K. N. Kudin, V. N. Staroverov, T. Keith, R. Kobayashi, J. Normand, 
 K. Raghavachari, A. Rendell, J. C. Burant, S. S. Iyengar, J. Tomasi, 
 M. Cossi, N. Rega, J. M. Millam, M. Klene, J. E. Knox, J. B. Cross, 
 V. Bakken, C. Adamo, J. Jaramillo, R. Gomperts, R. E. Stratmann, 
 O. Yazyev, A. J. Austin, R. Cammi, C. Pomelli, J. W. Ochterski, 
 R. L. Martin, K. Morokuma, V. G. Zakrzewski, G. A. Voth, 
 P. Salvador, J. J. Dannenberg, S. Dapprich, A. D. Daniels, 
 O. Farkas, J. B. Foresman, J. V. Ortiz, J. Cioslowski, 
 and D. J. Fox, Gaussian, Inc., Wallingford CT, 2013.
 
 ******************************************
 Gaussian 09:  EM64L-G09RevD.01 24-Apr-2013
                21-Mar-2017 
 ******************************************
 %Mem=256MB
 %NProc=12
 Will use up to   12 processors via shared memory.
 ----------------------------------------------------------------------
 #P HF/6-31G* SCF(Conver=6) NoSymm Test Pop=mk IOp(6/33=2) GFInput GFPr
 int
 ----------------------------------------------------------------------
 1/38=1/1;
 2/12=2,15=1,17=6,18=5,40=1/2;
 3/5=1,6=6,7=1,11=9,16=1,24=110,25=1,30=1/1,2,3;
 4//1;
 5/5=2,6=6,38=5/2;
 6/7=2,8=2,9=2,10=2,15=8,20=1,28=1,33=2/1,2;
 99/5=1,9=1/99;
 Leave Link    1 at Tue Mar 21 12:01:28 2017, MaxMem=    33554432 cpu:         0.6
 (Enter /home/michal/g09/l101.exe)
 ----------------------------------------------
 MEP - Input generated by R.E.D.-III.x MOLECULE
 ----------------------------------------------
 Symbolic Z-matrix:
 Charge =  0 Multiplicity = 1
 O                     4.99927  -0.24306  -7.25366 
 H                     5.95078  -0.32703  -7.10693 
 C                     0.        0.        0. 
 C                     1.55453   0.        0. 
 H                     1.84179   1.06589   0. 
 C                     2.21432  -0.60613  -1.24576 
 H                     1.95009  -1.67105  -1.31312 
 C                     1.70991   0.12405  -2.51783 
 H                     2.11222   1.14838  -2.44831 
 C                    -0.27362   0.65264   1.39971 
 H                    -0.04561   1.72468   1.28676 
 C                    -0.43612   0.81386  -1.23604 
 H                    -0.1113    1.85597  -1.10218 
 H                    -1.52536   0.83942  -1.34162 
 C                     2.30686  -0.47783  -3.83849 
 C                     1.93326  -0.54973   1.3831 
 H                     2.93677  -0.24404   1.69553 
 H                     1.92422  -1.64675   1.37941 
 C                     0.16898   0.25061  -2.53857 
 H                    -0.28193  -0.72743  -2.73754 
 H                    -0.13681   0.89646  -3.36943 
 C                     0.82899   0.01755   2.31699 
 H                     0.39765  -0.77369   2.94154 
 H                     1.24284   0.76048   3.00518 
 C                     3.746    -0.50678  -1.15926 
 H                     4.13065  -1.23337  -0.4312 
 H                     4.028     0.48188  -0.76019 
 C                    -1.6882    0.55762   2.02672 
 H                    -1.893    -0.50782   2.20834 
 C                    -0.58912  -1.42891  -0.0499 
 H                    -1.6819   -1.39529  -0.10893 
 H                    -0.2371   -1.99284  -0.91712 
 H                    -0.3299   -2.01075   0.83985 
 C                     3.81284  -0.72643  -3.67378 
 C                     2.10872   0.55618  -4.99052 
 H                     2.4317    1.54123  -4.62576 
 H                     1.04153   0.64507  -5.22113 
 C                     4.42727  -0.71698  -2.48166 
 H                     5.50572  -0.87646  -2.45034 
 C                     1.61894  -1.81606  -4.21982 
 H                     0.57895  -1.65903  -4.52278 
 H                     2.12642  -2.30423  -5.05551 
 H                     1.62981  -2.51894  -3.38102 
 C                     4.60109  -0.98863  -4.94367 
 H                     5.66981  -1.05797  -4.70303 
 H                     4.31432  -1.9517   -5.38924 
 C                     2.87438   0.23964  -6.2835 
 H                     2.50991  -0.68723  -6.74374 
 H                     2.71571   1.03776  -7.0176 
 C                    -1.73607   1.28281   3.40686 
 H                    -0.71943   1.50039   3.75017 
 H                    -2.21989   2.26187   3.27954 
 C                     4.36545   0.0888   -6.01205 
 H                     4.76081   1.05001  -5.64393 
 C                    -2.79989   1.10256   1.11062 
 H                    -2.57208   2.12664   0.78971 
 H                    -3.75853   1.13068   1.63711 
 H                    -2.93905   0.49475   0.21303 
 C                    -2.44413   0.51123   4.53766 
 H                    -1.9275   -0.44743   4.67864 
 H                    -2.30678   1.07104   5.47418 
 C                    -3.94754   0.268     4.33558 
 H                    -4.11209  -0.37217   3.45691 
 H                    -4.4297    1.22986   4.10867 
 C                    -4.67186  -0.36431   5.54242 
 H                    -4.46486   0.26622   6.42111 
 C                    -4.17182  -1.78446   5.85359 
 H                    -3.10487  -1.80319   6.09706 
 H                    -4.71199  -2.21099   6.70648 
 H                    -4.33125  -2.44901   4.99428 
 C                    -6.19228  -0.36818   5.31732 
 H                    -6.5727    0.64386   5.13724 
 H                    -6.72217  -0.77663   6.18542 
 H                    -6.45703  -0.9833    4.44763 
 
 NAtoms=     74 NQM=       74 NQMF=       0 NMMI=      0 NMMIF=      0
                NMic=       0 NMicF=      0.
                    Isotopes and Nuclear Properties:
 (Nuclear quadrupole moments (NQMom) in fm**2, nuclear magnetic moments (NMagM)
  in nuclear magnetons)

  Atom         1           2           3           4           5           6           7           8           9          10
 IAtWgt=          16           1          12          12           1          12           1          12           1          12
 AtmWgt=  15.9949146   1.0078250  12.0000000  12.0000000   1.0078250  12.0000000   1.0078250  12.0000000   1.0078250  12.0000000
 NucSpn=           0           1           0           0           1           0           1           0           1           0
 AtZEff=   0.0000000   0.0000000   0.0000000   0.0000000   0.0000000   0.0000000   0.0000000   0.0000000   0.0000000   0.0000000
 NQMom=    0.0000000   0.0000000   0.0000000   0.0000000   0.0000000   0.0000000   0.0000000   0.0000000   0.0000000   0.0000000
 NMagM=    0.0000000   2.7928460   0.0000000   0.0000000   2.7928460   0.0000000   2.7928460   0.0000000   2.7928460   0.0000000
 AtZNuc=   8.0000000   1.0000000   6.0000000   6.0000000   1.0000000   6.0000000   1.0000000   6.0000000   1.0000000   6.0000000

  Atom        11          12          13          14          15          16          17          18          19          20
 IAtWgt=           1          12           1           1          12          12           1           1          12           1
 AtmWgt=   1.0078250  12.0000000   1.0078250   1.0078250  12.0000000  12.0000000   1.0078250   1.0078250  12.0000000   1.0078250
 NucSpn=           1           0           1           1           0           0           1           1           0           1
 AtZEff=   0.0000000   0.0000000   0.0000000   0.0000000   0.0000000   0.0000000   0.0000000   0.0000000   0.0000000   0.0000000
 NQMom=    0.0000000   0.0000000   0.0000000   0.0000000   0.0000000   0.0000000   0.0000000   0.0000000   0.0000000   0.0000000
 NMagM=    2.7928460   0.0000000   2.7928460   2.7928460   0.0000000   0.0000000   2.7928460   2.7928460   0.0000000   2.7928460
 AtZNuc=   1.0000000   6.0000000   1.0000000   1.0000000   6.0000000   6.0000000   1.0000000   1.0000000   6.0000000   1.0000000

  Atom        21          22          23          24          25          26          27          28          29          30
 IAtWgt=           1          12           1           1          12           1           1          12           1          12
 AtmWgt=   1.0078250  12.0000000   1.0078250   1.0078250  12.0000000   1.0078250   1.0078250  12.0000000   1.0078250  12.0000000
 NucSpn=           1           0           1           1           0           1           1           0           1           0
 AtZEff=   0.0000000   0.0000000   0.0000000   0.0000000   0.0000000   0.0000000   0.0000000   0.0000000   0.0000000   0.0000000
 NQMom=    0.0000000   0.0000000   0.0000000   0.0000000   0.0000000   0.0000000   0.0000000   0.0000000   0.0000000   0.0000000
 NMagM=    2.7928460   0.0000000   2.7928460   2.7928460   0.0000000   2.7928460   2.7928460   0.0000000   2.7928460   0.0000000
 AtZNuc=   1.0000000   6.0000000   1.0000000   1.0000000   6.0000000   1.0000000   1.0000000   6.0000000   1.0000000   6.0000000

  Atom        31          32          33          34          35          36          37          38          39          40
 IAtWgt=           1           1           1          12          12           1           1          12           1          12
 AtmWgt=   1.0078250   1.0078250   1.0078250  12.0000000  12.0000000   1.0078250   1.0078250  12.0000000   1.0078250  12.0000000
 NucSpn=           1           1           1           0           0           1           1           0           1           0
 AtZEff=   0.0000000   0.0000000   0.0000000   0.0000000   0.0000000   0.0000000   0.0000000   0.0000000   0.0000000   0.0000000
 NQMom=    0.0000000   0.0000000   0.0000000   0.0000000   0.0000000   0.0000000   0.0000000   0.0000000   0.0000000   0.0000000
 NMagM=    2.7928460   2.7928460   2.7928460   0.0000000   0.0000000   2.7928460   2.7928460   0.0000000   2.7928460   0.0000000
 AtZNuc=   1.0000000   1.0000000   1.0000000   6.0000000   6.0000000   1.0000000   1.0000000   6.0000000   1.0000000   6.0000000

  Atom        41          42          43          44          45          46          47          48          49          50
 IAtWgt=           1           1           1          12           1           1          12           1           1          12
 AtmWgt=   1.0078250   1.0078250   1.0078250  12.0000000   1.0078250   1.0078250  12.0000000   1.0078250   1.0078250  12.0000000
 NucSpn=           1           1           1           0           1           1           0           1           1           0
 AtZEff=   0.0000000   0.0000000   0.0000000   0.0000000   0.0000000   0.0000000   0.0000000   0.0000000   0.0000000   0.0000000
 NQMom=    0.0000000   0.0000000   0.0000000   0.0000000   0.0000000   0.0000000   0.0000000   0.0000000   0.0000000   0.0000000
 NMagM=    2.7928460   2.7928460   2.7928460   0.0000000   2.7928460   2.7928460   0.0000000   2.7928460   2.7928460   0.0000000
 AtZNuc=   1.0000000   1.0000000   1.0000000   6.0000000   1.0000000   1.0000000   6.0000000   1.0000000   1.0000000   6.0000000

  Atom        51          52          53          54          55          56          57          58          59          60
 IAtWgt=           1           1          12           1          12           1           1           1          12           1
 AtmWgt=   1.0078250   1.0078250  12.0000000   1.0078250  12.0000000   1.0078250   1.0078250   1.0078250  12.0000000   1.0078250
 NucSpn=           1           1           0           1           0           1           1           1           0           1
 AtZEff=   0.0000000   0.0000000   0.0000000   0.0000000   0.0000000   0.0000000   0.0000000   0.0000000   0.0000000   0.0000000
 NQMom=    0.0000000   0.0000000   0.0000000   0.0000000   0.0000000   0.0000000   0.0000000   0.0000000   0.0000000   0.0000000
 NMagM=    2.7928460   2.7928460   0.0000000   2.7928460   0.0000000   2.7928460   2.7928460   2.7928460   0.0000000   2.7928460
 AtZNuc=   1.0000000   1.0000000   6.0000000   1.0000000   6.0000000   1.0000000   1.0000000   1.0000000   6.0000000   1.0000000

  Atom        61          62          63          64          65          66          67          68          69          70
 IAtWgt=           1          12           1           1          12           1          12           1           1           1
 AtmWgt=   1.0078250  12.0000000   1.0078250   1.0078250  12.0000000   1.0078250  12.0000000   1.0078250   1.0078250   1.0078250
 NucSpn=           1           0           1           1           0           1           0           1           1           1
 AtZEff=   0.0000000   0.0000000   0.0000000   0.0000000   0.0000000   0.0000000   0.0000000   0.0000000   0.0000000   0.0000000
 NQMom=    0.0000000   0.0000000   0.0000000   0.0000000   0.0000000   0.0000000   0.0000000   0.0000000   0.0000000   0.0000000
 NMagM=    2.7928460   0.0000000   2.7928460   2.7928460   0.0000000   2.7928460   0.0000000   2.7928460   2.7928460   2.7928460
 AtZNuc=   1.0000000   6.0000000   1.0000000   1.0000000   6.0000000   1.0000000   6.0000000   1.0000000   1.0000000   1.0000000

  Atom        71          72          73          74
 IAtWgt=          12           1           1           1
 AtmWgt=  12.0000000   1.0078250   1.0078250   1.0078250
 NucSpn=           0           1           1           1
 AtZEff=   0.0000000   0.0000000   0.0000000   0.0000000
 NQMom=    0.0000000   0.0000000   0.0000000   0.0000000
 NMagM=    0.0000000   2.7928460   2.7928460   2.7928460
 AtZNuc=   6.0000000   1.0000000   1.0000000   1.0000000
 Leave Link  101 at Tue Mar 21 12:01:28 2017, MaxMem=    33554432 cpu:         1.0
 (Enter /home/michal/g09/l202.exe)
 Symmetry turned off by external request.
 Stoichiometry    C27H46O
 Framework group  C1[X(C27H46O)]
 Deg. of freedom   216
 Full point group                 C1      NOp   1
                          Input orientation:                          
 ---------------------------------------------------------------------
 Center     Atomic      Atomic             Coordinates (Angstroms)
 Number     Number       Type             X           Y           Z
 ---------------------------------------------------------------------
      1          8           0        4.999272   -0.243063   -7.253661
      2          1           0        5.950777   -0.327028   -7.106930
      3          6           0        0.000000    0.000000    0.000000
      4          6           0        1.554526    0.000000    0.000000
      5          1           0        1.841792    1.065888    0.000000
      6          6           0        2.214318   -0.606130   -1.245764
      7          1           0        1.950091   -1.671055   -1.313115
      8          6           0        1.709907    0.124053   -2.517833
      9          1           0        2.112222    1.148385   -2.448313
     10          6           0       -0.273625    0.652635    1.399712
     11          1           0       -0.045613    1.724683    1.286756
     12          6           0       -0.436124    0.813862   -1.236041
     13          1           0       -0.111298    1.855973   -1.102179
     14          1           0       -1.525361    0.839419   -1.341621
     15          6           0        2.306858   -0.477834   -3.838488
     16          6           0        1.933257   -0.549730    1.383105
     17          1           0        2.936770   -0.244041    1.695529
     18          1           0        1.924223   -1.646754    1.379409
     19          6           0        0.168981    0.250607   -2.538569
     20          1           0       -0.281928   -0.727432   -2.737539
     21          1           0       -0.136813    0.896464   -3.369430
     22          6           0        0.828988    0.017547    2.316985
     23          1           0        0.397648   -0.773690    2.941540
     24          1           0        1.242842    0.760485    3.005182
     25          6           0        3.746004   -0.506783   -1.159259
     26          1           0        4.130654   -1.233373   -0.431200
     27          1           0        4.028004    0.481878   -0.760193
     28          6           0       -1.688197    0.557621    2.026719
     29          1           0       -1.893003   -0.507823    2.208336
     30          6           0       -0.589123   -1.428914   -0.049895
     31          1           0       -1.681897   -1.395285   -0.108931
     32          1           0       -0.237099   -1.992839   -0.917124
     33          1           0       -0.329899   -2.010751    0.839849
     34          6           0        3.812840   -0.726430   -3.673778
     35          6           0        2.108722    0.556176   -4.990520
     36          1           0        2.431697    1.541235   -4.625763
     37          1           0        1.041529    0.645070   -5.221126
     38          6           0        4.427267   -0.716978   -2.481659
     39          1           0        5.505718   -0.876458   -2.450342
     40          6           0        1.618938   -1.816058   -4.219819
     41          1           0        0.578946   -1.659031   -4.522783
     42          1           0        2.126417   -2.304230   -5.055514
     43          1           0        1.629814   -2.518942   -3.381021
     44          6           0        4.601087   -0.988633   -4.943670
     45          1           0        5.669810   -1.057972   -4.703032
     46          1           0        4.314318   -1.951705   -5.389236
     47          6           0        2.874382    0.239639   -6.283502
     48          1           0        2.509908   -0.687234   -6.743737
     49          1           0        2.715711    1.037762   -7.017597
     50          6           0       -1.736069    1.282814    3.406864
     51          1           0       -0.719431    1.500389    3.750173
     52          1           0       -2.219895    2.261868    3.279537
     53          6           0        4.365451    0.088800   -6.012049
     54          1           0        4.760811    1.050015   -5.643927
     55          6           0       -2.799888    1.102560    1.110617
     56          1           0       -2.572083    2.126643    0.789713
     57          1           0       -3.758534    1.130682    1.637114
     58          1           0       -2.939054    0.494751    0.213028
     59          6           0       -2.444133    0.511226    4.537662
     60          1           0       -1.927502   -0.447425    4.678636
     61          1           0       -2.306779    1.071037    5.474183
     62          6           0       -3.947536    0.268001    4.335579
     63          1           0       -4.112086   -0.372167    3.456910
     64          1           0       -4.429704    1.229860    4.108675
     65          6           0       -4.671858   -0.364306    5.542416
     66          1           0       -4.464864    0.266216    6.421114
     67          6           0       -4.171815   -1.784458    5.853590
     68          1           0       -3.104873   -1.803187    6.097064
     69          1           0       -4.711989   -2.210994    6.706480
     70          1           0       -4.331251   -2.449009    4.994282
     71          6           0       -6.192276   -0.368181    5.317325
     72          1           0       -6.572696    0.643857    5.137242
     73          1           0       -6.722174   -0.776634    6.185419
     74          1           0       -6.457032   -0.983303    4.447634
 ---------------------------------------------------------------------
 Rotational constants (GHZ):      0.5670413      0.0557789      0.0537028
 Leave Link  202 at Tue Mar 21 12:01:28 2017, MaxMem=    33554432 cpu:         0.0
 (Enter /home/michal/g09/l301.exe)
 Standard basis: 6-31G(d) (6D, 7F)
 Ernie: Thresh=  0.10000D-02 Tol=  0.10000D-05 Strict=F.
 AO basis set in the form of general basis input (Overlap normalization):
      1 0
 S   6 1.00       0.000000000000
      0.5484671660D+04  0.1831074430D-02
      0.8252349460D+03  0.1395017220D-01
      0.1880469580D+03  0.6844507810D-01
      0.5296450000D+02  0.2327143360D+00
      0.1689757040D+02  0.4701928980D+00
      0.5799635340D+01  0.3585208530D+00
 SP   3 1.00       0.000000000000
      0.1553961625D+02 -0.1107775495D+00  0.7087426823D-01
      0.3599933586D+01 -0.1480262627D+00  0.3397528391D+00
      0.1013761750D+01  0.1130767015D+01  0.7271585773D+00
 SP   1 1.00       0.000000000000
      0.2700058226D+00  0.1000000000D+01  0.1000000000D+01
 D   1 1.00       0.000000000000
      0.8000000000D+00  0.1000000000D+01
 ****
      2 0
 S   3 1.00       0.000000000000
      0.1873113696D+02  0.3349460434D-01
      0.2825394365D+01  0.2347269535D+00
      0.6401216923D+00  0.8137573261D+00
 S   1 1.00       0.000000000000
      0.1612777588D+00  0.1000000000D+01
 ****
      3 0
 S   6 1.00       0.000000000000
      0.3047524880D+04  0.1834737132D-02
      0.4573695180D+03  0.1403732281D-01
      0.1039486850D+03  0.6884262226D-01
      0.2921015530D+02  0.2321844432D+00
      0.9286662960D+01  0.4679413484D+00
      0.3163926960D+01  0.3623119853D+00
 SP   3 1.00       0.000000000000
      0.7868272350D+01 -0.1193324198D+00  0.6899906659D-01
      0.1881288540D+01 -0.1608541517D+00  0.3164239610D+00
      0.5442492580D+00  0.1143456438D+01  0.7443082909D+00
 SP   1 1.00       0.000000000000
      0.1687144782D+00  0.1000000000D+01  0.1000000000D+01
 D   1 1.00       0.000000000000
      0.8000000000D+00  0.1000000000D+01
 ****
      4 0
 S   6 1.00       0.000000000000
      0.3047524880D+04  0.1834737132D-02
      0.4573695180D+03  0.1403732281D-01
      0.1039486850D+03  0.6884262226D-01
      0.2921015530D+02  0.2321844432D+00
      0.9286662960D+01  0.4679413484D+00
      0.3163926960D+01  0.3623119853D+00
 SP   3 1.00       0.000000000000
      0.7868272350D+01 -0.1193324198D+00  0.6899906659D-01
      0.1881288540D+01 -0.1608541517D+00  0.3164239610D+00
      0.5442492580D+00  0.1143456438D+01  0.7443082909D+00
 SP   1 1.00       0.000000000000
      0.1687144782D+00  0.1000000000D+01  0.1000000000D+01
 D   1 1.00       0.000000000000
      0.8000000000D+00  0.1000000000D+01
 ****
      5 0
 S   3 1.00       0.000000000000
      0.1873113696D+02  0.3349460434D-01
      0.2825394365D+01  0.2347269535D+00
      0.6401216923D+00  0.8137573261D+00
 S   1 1.00       0.000000000000
      0.1612777588D+00  0.1000000000D+01
 ****
      6 0
 S   6 1.00       0.000000000000
      0.3047524880D+04  0.1834737132D-02
      0.4573695180D+03  0.1403732281D-01
      0.1039486850D+03  0.6884262226D-01
      0.2921015530D+02  0.2321844432D+00
      0.9286662960D+01  0.4679413484D+00
      0.3163926960D+01  0.3623119853D+00
 SP   3 1.00       0.000000000000
      0.7868272350D+01 -0.1193324198D+00  0.6899906659D-01
      0.1881288540D+01 -0.1608541517D+00  0.3164239610D+00
      0.5442492580D+00  0.1143456438D+01  0.7443082909D+00
 SP   1 1.00       0.000000000000
      0.1687144782D+00  0.1000000000D+01  0.1000000000D+01
 D   1 1.00       0.000000000000
      0.8000000000D+00  0.1000000000D+01
 ****
      7 0
 S   3 1.00       0.000000000000
      0.1873113696D+02  0.3349460434D-01
      0.2825394365D+01  0.2347269535D+00
      0.6401216923D+00  0.8137573261D+00
 S   1 1.00       0.000000000000
      0.1612777588D+00  0.1000000000D+01
 ****
      8 0
 S   6 1.00       0.000000000000
      0.3047524880D+04  0.1834737132D-02
      0.4573695180D+03  0.1403732281D-01
      0.1039486850D+03  0.6884262226D-01
      0.2921015530D+02  0.2321844432D+00
      0.9286662960D+01  0.4679413484D+00
      0.3163926960D+01  0.3623119853D+00
 SP   3 1.00       0.000000000000
      0.7868272350D+01 -0.1193324198D+00  0.6899906659D-01
      0.1881288540D+01 -0.1608541517D+00  0.3164239610D+00
      0.5442492580D+00  0.1143456438D+01  0.7443082909D+00
 SP   1 1.00       0.000000000000
      0.1687144782D+00  0.1000000000D+01  0.1000000000D+01
 D   1 1.00       0.000000000000
      0.8000000000D+00  0.1000000000D+01
 ****
      9 0
 S   3 1.00       0.000000000000
      0.1873113696D+02  0.3349460434D-01
      0.2825394365D+01  0.2347269535D+00
      0.6401216923D+00  0.8137573261D+00
 S   1 1.00       0.000000000000
      0.1612777588D+00  0.1000000000D+01
 ****
     10 0
 S   6 1.00       0.000000000000
      0.3047524880D+04  0.1834737132D-02
      0.4573695180D+03  0.1403732281D-01
      0.1039486850D+03  0.6884262226D-01
      0.2921015530D+02  0.2321844432D+00
      0.9286662960D+01  0.4679413484D+00
      0.3163926960D+01  0.3623119853D+00
 SP   3 1.00       0.000000000000
      0.7868272350D+01 -0.1193324198D+00  0.6899906659D-01
      0.1881288540D+01 -0.1608541517D+00  0.3164239610D+00
      0.5442492580D+00  0.1143456438D+01  0.7443082909D+00
 SP   1 1.00       0.000000000000
      0.1687144782D+00  0.1000000000D+01  0.1000000000D+01
 D   1 1.00       0.000000000000
      0.8000000000D+00  0.1000000000D+01
 ****
     11 0
 S   3 1.00       0.000000000000
      0.1873113696D+02  0.3349460434D-01
      0.2825394365D+01  0.2347269535D+00
      0.6401216923D+00  0.8137573261D+00
 S   1 1.00       0.000000000000
      0.1612777588D+00  0.1000000000D+01
 ****
     12 0
 S   6 1.00       0.000000000000
      0.3047524880D+04  0.1834737132D-02
      0.4573695180D+03  0.1403732281D-01
      0.1039486850D+03  0.6884262226D-01
      0.2921015530D+02  0.2321844432D+00
      0.9286662960D+01  0.4679413484D+00
      0.3163926960D+01  0.3623119853D+00
 SP   3 1.00       0.000000000000
      0.7868272350D+01 -0.1193324198D+00  0.6899906659D-01
      0.1881288540D+01 -0.1608541517D+00  0.3164239610D+00
      0.5442492580D+00  0.1143456438D+01  0.7443082909D+00
 SP   1 1.00       0.000000000000
      0.1687144782D+00  0.1000000000D+01  0.1000000000D+01
 D   1 1.00       0.000000000000
      0.8000000000D+00  0.1000000000D+01
 ****
     13 0
 S   3 1.00       0.000000000000
      0.1873113696D+02  0.3349460434D-01
      0.2825394365D+01  0.2347269535D+00
      0.6401216923D+00  0.8137573261D+00
 S   1 1.00       0.000000000000
      0.1612777588D+00  0.1000000000D+01
 ****
     14 0
 S   3 1.00       0.000000000000
      0.1873113696D+02  0.3349460434D-01
      0.2825394365D+01  0.2347269535D+00
      0.6401216923D+00  0.8137573261D+00
 S   1 1.00       0.000000000000
      0.1612777588D+00  0.1000000000D+01
 ****
     15 0
 S   6 1.00       0.000000000000
      0.3047524880D+04  0.1834737132D-02
      0.4573695180D+03  0.1403732281D-01
      0.1039486850D+03  0.6884262226D-01
      0.2921015530D+02  0.2321844432D+00
      0.9286662960D+01  0.4679413484D+00
      0.3163926960D+01  0.3623119853D+00
 SP   3 1.00       0.000000000000
      0.7868272350D+01 -0.1193324198D+00  0.6899906659D-01
      0.1881288540D+01 -0.1608541517D+00  0.3164239610D+00
      0.5442492580D+00  0.1143456438D+01  0.7443082909D+00
 SP   1 1.00       0.000000000000
      0.1687144782D+00  0.1000000000D+01  0.1000000000D+01
 D   1 1.00       0.000000000000
      0.8000000000D+00  0.1000000000D+01
 ****
     16 0
 S   6 1.00       0.000000000000
      0.3047524880D+04  0.1834737132D-02
      0.4573695180D+03  0.1403732281D-01
      0.1039486850D+03  0.6884262226D-01
      0.2921015530D+02  0.2321844432D+00
      0.9286662960D+01  0.4679413484D+00
      0.3163926960D+01  0.3623119853D+00
 SP   3 1.00       0.000000000000
      0.7868272350D+01 -0.1193324198D+00  0.6899906659D-01
      0.1881288540D+01 -0.1608541517D+00  0.3164239610D+00
      0.5442492580D+00  0.1143456438D+01  0.7443082909D+00
 SP   1 1.00       0.000000000000
      0.1687144782D+00  0.1000000000D+01  0.1000000000D+01
 D   1 1.00       0.000000000000
      0.8000000000D+00  0.1000000000D+01
 ****
     17 0
 S   3 1.00       0.000000000000
      0.1873113696D+02  0.3349460434D-01
      0.2825394365D+01  0.2347269535D+00
      0.6401216923D+00  0.8137573261D+00
 S   1 1.00       0.000000000000
      0.1612777588D+00  0.1000000000D+01
 ****
     18 0
 S   3 1.00       0.000000000000
      0.1873113696D+02  0.3349460434D-01
      0.2825394365D+01  0.2347269535D+00
      0.6401216923D+00  0.8137573261D+00
 S   1 1.00       0.000000000000
      0.1612777588D+00  0.1000000000D+01
 ****
     19 0
 S   6 1.00       0.000000000000
      0.3047524880D+04  0.1834737132D-02
      0.4573695180D+03  0.1403732281D-01
      0.1039486850D+03  0.6884262226D-01
      0.2921015530D+02  0.2321844432D+00
      0.9286662960D+01  0.4679413484D+00
      0.3163926960D+01  0.3623119853D+00
 SP   3 1.00       0.000000000000
      0.7868272350D+01 -0.1193324198D+00  0.6899906659D-01
      0.1881288540D+01 -0.1608541517D+00  0.3164239610D+00
      0.5442492580D+00  0.1143456438D+01  0.7443082909D+00
 SP   1 1.00       0.000000000000
      0.1687144782D+00  0.1000000000D+01  0.1000000000D+01
 D   1 1.00       0.000000000000
      0.8000000000D+00  0.1000000000D+01
 ****
     20 0
 S   3 1.00       0.000000000000
      0.1873113696D+02  0.3349460434D-01
      0.2825394365D+01  0.2347269535D+00
      0.6401216923D+00  0.8137573261D+00
 S   1 1.00       0.000000000000
      0.1612777588D+00  0.1000000000D+01
 ****
     21 0
 S   3 1.00       0.000000000000
      0.1873113696D+02  0.3349460434D-01
      0.2825394365D+01  0.2347269535D+00
      0.6401216923D+00  0.8137573261D+00
 S   1 1.00       0.000000000000
      0.1612777588D+00  0.1000000000D+01
 ****
     22 0
 S   6 1.00       0.000000000000
      0.3047524880D+04  0.1834737132D-02
      0.4573695180D+03  0.1403732281D-01
      0.1039486850D+03  0.6884262226D-01
      0.2921015530D+02  0.2321844432D+00
      0.9286662960D+01  0.4679413484D+00
      0.3163926960D+01  0.3623119853D+00
 SP   3 1.00       0.000000000000
      0.7868272350D+01 -0.1193324198D+00  0.6899906659D-01
      0.1881288540D+01 -0.1608541517D+00  0.3164239610D+00
      0.5442492580D+00  0.1143456438D+01  0.7443082909D+00
 SP   1 1.00       0.000000000000
      0.1687144782D+00  0.1000000000D+01  0.1000000000D+01
 D   1 1.00       0.000000000000
      0.8000000000D+00  0.1000000000D+01
 ****
     23 0
 S   3 1.00       0.000000000000
      0.1873113696D+02  0.3349460434D-01
      0.2825394365D+01  0.2347269535D+00
      0.6401216923D+00  0.8137573261D+00
 S   1 1.00       0.000000000000
      0.1612777588D+00  0.1000000000D+01
 ****
     24 0
 S   3 1.00       0.000000000000
      0.1873113696D+02  0.3349460434D-01
      0.2825394365D+01  0.2347269535D+00
      0.6401216923D+00  0.8137573261D+00
 S   1 1.00       0.000000000000
      0.1612777588D+00  0.1000000000D+01
 ****
     25 0
 S   6 1.00       0.000000000000
      0.3047524880D+04  0.1834737132D-02
      0.4573695180D+03  0.1403732281D-01
      0.1039486850D+03  0.6884262226D-01
      0.2921015530D+02  0.2321844432D+00
      0.9286662960D+01  0.4679413484D+00
      0.3163926960D+01  0.3623119853D+00
 SP   3 1.00       0.000000000000
      0.7868272350D+01 -0.1193324198D+00  0.6899906659D-01
      0.1881288540D+01 -0.1608541517D+00  0.3164239610D+00
      0.5442492580D+00  0.1143456438D+01  0.7443082909D+00
 SP   1 1.00       0.000000000000
      0.1687144782D+00  0.1000000000D+01  0.1000000000D+01
 D   1 1.00       0.000000000000
      0.8000000000D+00  0.1000000000D+01
 ****
     26 0
 S   3 1.00       0.000000000000
      0.1873113696D+02  0.3349460434D-01
      0.2825394365D+01  0.2347269535D+00
      0.6401216923D+00  0.8137573261D+00
 S   1 1.00       0.000000000000
      0.1612777588D+00  0.1000000000D+01
 ****
     27 0
 S   3 1.00       0.000000000000
      0.1873113696D+02  0.3349460434D-01
      0.2825394365D+01  0.2347269535D+00
      0.6401216923D+00  0.8137573261D+00
 S   1 1.00       0.000000000000
      0.1612777588D+00  0.1000000000D+01
 ****
     28 0
 S   6 1.00       0.000000000000
      0.3047524880D+04  0.1834737132D-02
      0.4573695180D+03  0.1403732281D-01
      0.1039486850D+03  0.6884262226D-01
      0.2921015530D+02  0.2321844432D+00
      0.9286662960D+01  0.4679413484D+00
      0.3163926960D+01  0.3623119853D+00
 SP   3 1.00       0.000000000000
      0.7868272350D+01 -0.1193324198D+00  0.6899906659D-01
      0.1881288540D+01 -0.1608541517D+00  0.3164239610D+00
      0.5442492580D+00  0.1143456438D+01  0.7443082909D+00
 SP   1 1.00       0.000000000000
      0.1687144782D+00  0.1000000000D+01  0.1000000000D+01
 D   1 1.00       0.000000000000
      0.8000000000D+00  0.1000000000D+01
 ****
     29 0
 S   3 1.00       0.000000000000
      0.1873113696D+02  0.3349460434D-01
      0.2825394365D+01  0.2347269535D+00
      0.6401216923D+00  0.8137573261D+00
 S   1 1.00       0.000000000000
      0.1612777588D+00  0.1000000000D+01
 ****
     30 0
 S   6 1.00       0.000000000000
      0.3047524880D+04  0.1834737132D-02
      0.4573695180D+03  0.1403732281D-01
      0.1039486850D+03  0.6884262226D-01
      0.2921015530D+02  0.2321844432D+00
      0.9286662960D+01  0.4679413484D+00
      0.3163926960D+01  0.3623119853D+00
 SP   3 1.00       0.000000000000
      0.7868272350D+01 -0.1193324198D+00  0.6899906659D-01
      0.1881288540D+01 -0.1608541517D+00  0.3164239610D+00
      0.5442492580D+00  0.1143456438D+01  0.7443082909D+00
 SP   1 1.00       0.000000000000
      0.1687144782D+00  0.1000000000D+01  0.1000000000D+01
 D   1 1.00       0.000000000000
      0.8000000000D+00  0.1000000000D+01
 ****
     31 0
 S   3 1.00       0.000000000000
      0.1873113696D+02  0.3349460434D-01
      0.2825394365D+01  0.2347269535D+00
      0.6401216923D+00  0.8137573261D+00
 S   1 1.00       0.000000000000
      0.1612777588D+00  0.1000000000D+01
 ****
     32 0
 S   3 1.00       0.000000000000
      0.1873113696D+02  0.3349460434D-01
      0.2825394365D+01  0.2347269535D+00
      0.6401216923D+00  0.8137573261D+00
 S   1 1.00       0.000000000000
      0.1612777588D+00  0.1000000000D+01
 ****
     33 0
 S   3 1.00       0.000000000000
      0.1873113696D+02  0.3349460434D-01
      0.2825394365D+01  0.2347269535D+00
      0.6401216923D+00  0.8137573261D+00
 S   1 1.00       0.000000000000
      0.1612777588D+00  0.1000000000D+01
 ****
     34 0
 S   6 1.00       0.000000000000
      0.3047524880D+04  0.1834737132D-02
      0.4573695180D+03  0.1403732281D-01
      0.1039486850D+03  0.6884262226D-01
      0.2921015530D+02  0.2321844432D+00
      0.9286662960D+01  0.4679413484D+00
      0.3163926960D+01  0.3623119853D+00
 SP   3 1.00       0.000000000000
      0.7868272350D+01 -0.1193324198D+00  0.6899906659D-01
      0.1881288540D+01 -0.1608541517D+00  0.3164239610D+00
      0.5442492580D+00  0.1143456438D+01  0.7443082909D+00
 SP   1 1.00       0.000000000000
      0.1687144782D+00  0.1000000000D+01  0.1000000000D+01
 D   1 1.00       0.000000000000
      0.8000000000D+00  0.1000000000D+01
 ****
     35 0
 S   6 1.00       0.000000000000
      0.3047524880D+04  0.1834737132D-02
      0.4573695180D+03  0.1403732281D-01
      0.1039486850D+03  0.6884262226D-01
      0.2921015530D+02  0.2321844432D+00
      0.9286662960D+01  0.4679413484D+00
      0.3163926960D+01  0.3623119853D+00
 SP   3 1.00       0.000000000000
      0.7868272350D+01 -0.1193324198D+00  0.6899906659D-01
      0.1881288540D+01 -0.1608541517D+00  0.3164239610D+00
      0.5442492580D+00  0.1143456438D+01  0.7443082909D+00
 SP   1 1.00       0.000000000000
      0.1687144782D+00  0.1000000000D+01  0.1000000000D+01
 D   1 1.00       0.000000000000
      0.8000000000D+00  0.1000000000D+01
 ****
     36 0
 S   3 1.00       0.000000000000
      0.1873113696D+02  0.3349460434D-01
      0.2825394365D+01  0.2347269535D+00
      0.6401216923D+00  0.8137573261D+00
 S   1 1.00       0.000000000000
      0.1612777588D+00  0.1000000000D+01
 ****
     37 0
 S   3 1.00       0.000000000000
      0.1873113696D+02  0.3349460434D-01
      0.2825394365D+01  0.2347269535D+00
      0.6401216923D+00  0.8137573261D+00
 S   1 1.00       0.000000000000
      0.1612777588D+00  0.1000000000D+01
 ****
     38 0
 S   6 1.00       0.000000000000
      0.3047524880D+04  0.1834737132D-02
      0.4573695180D+03  0.1403732281D-01
      0.1039486850D+03  0.6884262226D-01
      0.2921015530D+02  0.2321844432D+00
      0.9286662960D+01  0.4679413484D+00
      0.3163926960D+01  0.3623119853D+00
 SP   3 1.00       0.000000000000
      0.7868272350D+01 -0.1193324198D+00  0.6899906659D-01
      0.1881288540D+01 -0.1608541517D+00  0.3164239610D+00
      0.5442492580D+00  0.1143456438D+01  0.7443082909D+00
 SP   1 1.00       0.000000000000
      0.1687144782D+00  0.1000000000D+01  0.1000000000D+01
 D   1 1.00       0.000000000000
      0.8000000000D+00  0.1000000000D+01
 ****
     39 0
 S   3 1.00       0.000000000000
      0.1873113696D+02  0.3349460434D-01
      0.2825394365D+01  0.2347269535D+00
      0.6401216923D+00  0.8137573261D+00
 S   1 1.00       0.000000000000
      0.1612777588D+00  0.1000000000D+01
 ****
     40 0
 S   6 1.00       0.000000000000
      0.3047524880D+04  0.1834737132D-02
      0.4573695180D+03  0.1403732281D-01
      0.1039486850D+03  0.6884262226D-01
      0.2921015530D+02  0.2321844432D+00
      0.9286662960D+01  0.4679413484D+00
      0.3163926960D+01  0.3623119853D+00
 SP   3 1.00       0.000000000000
      0.7868272350D+01 -0.1193324198D+00  0.6899906659D-01
      0.1881288540D+01 -0.1608541517D+00  0.3164239610D+00
      0.5442492580D+00  0.1143456438D+01  0.7443082909D+00
 SP   1 1.00       0.000000000000
      0.1687144782D+00  0.1000000000D+01  0.1000000000D+01
 D   1 1.00       0.000000000000
      0.8000000000D+00  0.1000000000D+01
 ****
     41 0
 S   3 1.00       0.000000000000
      0.1873113696D+02  0.3349460434D-01
      0.2825394365D+01  0.2347269535D+00
      0.6401216923D+00  0.8137573261D+00
 S   1 1.00       0.000000000000
      0.1612777588D+00  0.1000000000D+01
 ****
     42 0
 S   3 1.00       0.000000000000
      0.1873113696D+02  0.3349460434D-01
      0.2825394365D+01  0.2347269535D+00
      0.6401216923D+00  0.8137573261D+00
 S   1 1.00       0.000000000000
      0.1612777588D+00  0.1000000000D+01
 ****
     43 0
 S   3 1.00       0.000000000000
      0.1873113696D+02  0.3349460434D-01
      0.2825394365D+01  0.2347269535D+00
      0.6401216923D+00  0.8137573261D+00
 S   1 1.00       0.000000000000
      0.1612777588D+00  0.1000000000D+01
 ****
     44 0
 S   6 1.00       0.000000000000
      0.3047524880D+04  0.1834737132D-02
      0.4573695180D+03  0.1403732281D-01
      0.1039486850D+03  0.6884262226D-01
      0.2921015530D+02  0.2321844432D+00
      0.9286662960D+01  0.4679413484D+00
      0.3163926960D+01  0.3623119853D+00
 SP   3 1.00       0.000000000000
      0.7868272350D+01 -0.1193324198D+00  0.6899906659D-01
      0.1881288540D+01 -0.1608541517D+00  0.3164239610D+00
      0.5442492580D+00  0.1143456438D+01  0.7443082909D+00
 SP   1 1.00       0.000000000000
      0.1687144782D+00  0.1000000000D+01  0.1000000000D+01
 D   1 1.00       0.000000000000
      0.8000000000D+00  0.1000000000D+01
 ****
     45 0
 S   3 1.00       0.000000000000
      0.1873113696D+02  0.3349460434D-01
      0.2825394365D+01  0.2347269535D+00
      0.6401216923D+00  0.8137573261D+00
 S   1 1.00       0.000000000000
      0.1612777588D+00  0.1000000000D+01
 ****
     46 0
 S   3 1.00       0.000000000000
      0.1873113696D+02  0.3349460434D-01
      0.2825394365D+01  0.2347269535D+00
      0.6401216923D+00  0.8137573261D+00
 S   1 1.00       0.000000000000
      0.1612777588D+00  0.1000000000D+01
 ****
     47 0
 S   6 1.00       0.000000000000
      0.3047524880D+04  0.1834737132D-02
      0.4573695180D+03  0.1403732281D-01
      0.1039486850D+03  0.6884262226D-01
      0.2921015530D+02  0.2321844432D+00
      0.9286662960D+01  0.4679413484D+00
      0.3163926960D+01  0.3623119853D+00
 SP   3 1.00       0.000000000000
      0.7868272350D+01 -0.1193324198D+00  0.6899906659D-01
      0.1881288540D+01 -0.1608541517D+00  0.3164239610D+00
      0.5442492580D+00  0.1143456438D+01  0.7443082909D+00
 SP   1 1.00       0.000000000000
      0.1687144782D+00  0.1000000000D+01  0.1000000000D+01
 D   1 1.00       0.000000000000
      0.8000000000D+00  0.1000000000D+01
 ****
     48 0
 S   3 1.00       0.000000000000
      0.1873113696D+02  0.3349460434D-01
      0.2825394365D+01  0.2347269535D+00
      0.6401216923D+00  0.8137573261D+00
 S   1 1.00       0.000000000000
      0.1612777588D+00  0.1000000000D+01
 ****
     49 0
 S   3 1.00       0.000000000000
      0.1873113696D+02  0.3349460434D-01
      0.2825394365D+01  0.2347269535D+00
      0.6401216923D+00  0.8137573261D+00
 S   1 1.00       0.000000000000
      0.1612777588D+00  0.1000000000D+01
 ****
     50 0
 S   6 1.00       0.000000000000
      0.3047524880D+04  0.1834737132D-02
      0.4573695180D+03  0.1403732281D-01
      0.1039486850D+03  0.6884262226D-01
      0.2921015530D+02  0.2321844432D+00
      0.9286662960D+01  0.4679413484D+00
      0.3163926960D+01  0.3623119853D+00
 SP   3 1.00       0.000000000000
      0.7868272350D+01 -0.1193324198D+00  0.6899906659D-01
      0.1881288540D+01 -0.1608541517D+00  0.3164239610D+00
      0.5442492580D+00  0.1143456438D+01  0.7443082909D+00
 SP   1 1.00       0.000000000000
      0.1687144782D+00  0.1000000000D+01  0.1000000000D+01
 D   1 1.00       0.000000000000
      0.8000000000D+00  0.1000000000D+01
 ****
     51 0
 S   3 1.00       0.000000000000
      0.1873113696D+02  0.3349460434D-01
      0.2825394365D+01  0.2347269535D+00
      0.6401216923D+00  0.8137573261D+00
 S   1 1.00       0.000000000000
      0.1612777588D+00  0.1000000000D+01
 ****
     52 0
 S   3 1.00       0.000000000000
      0.1873113696D+02  0.3349460434D-01
      0.2825394365D+01  0.2347269535D+00
      0.6401216923D+00  0.8137573261D+00
 S   1 1.00       0.000000000000
      0.1612777588D+00  0.1000000000D+01
 ****
     53 0
 S   6 1.00       0.000000000000
      0.3047524880D+04  0.1834737132D-02
      0.4573695180D+03  0.1403732281D-01
      0.1039486850D+03  0.6884262226D-01
      0.2921015530D+02  0.2321844432D+00
      0.9286662960D+01  0.4679413484D+00
      0.3163926960D+01  0.3623119853D+00
 SP   3 1.00       0.000000000000
      0.7868272350D+01 -0.1193324198D+00  0.6899906659D-01
      0.1881288540D+01 -0.1608541517D+00  0.3164239610D+00
      0.5442492580D+00  0.1143456438D+01  0.7443082909D+00
 SP   1 1.00       0.000000000000
      0.1687144782D+00  0.1000000000D+01  0.1000000000D+01
 D   1 1.00       0.000000000000
      0.8000000000D+00  0.1000000000D+01
 ****
     54 0
 S   3 1.00       0.000000000000
      0.1873113696D+02  0.3349460434D-01
      0.2825394365D+01  0.2347269535D+00
      0.6401216923D+00  0.8137573261D+00
 S   1 1.00       0.000000000000
      0.1612777588D+00  0.1000000000D+01
 ****
     55 0
 S   6 1.00       0.000000000000
      0.3047524880D+04  0.1834737132D-02
      0.4573695180D+03  0.1403732281D-01
      0.1039486850D+03  0.6884262226D-01
      0.2921015530D+02  0.2321844432D+00
      0.9286662960D+01  0.4679413484D+00
      0.3163926960D+01  0.3623119853D+00
 SP   3 1.00       0.000000000000
      0.7868272350D+01 -0.1193324198D+00  0.6899906659D-01
      0.1881288540D+01 -0.1608541517D+00  0.3164239610D+00
      0.5442492580D+00  0.1143456438D+01  0.7443082909D+00
 SP   1 1.00       0.000000000000
      0.1687144782D+00  0.1000000000D+01  0.1000000000D+01
 D   1 1.00       0.000000000000
      0.8000000000D+00  0.1000000000D+01
 ****
     56 0
 S   3 1.00       0.000000000000
      0.1873113696D+02  0.3349460434D-01
      0.2825394365D+01  0.2347269535D+00
      0.6401216923D+00  0.8137573261D+00
 S   1 1.00       0.000000000000
      0.1612777588D+00  0.1000000000D+01
 ****
     57 0
 S   3 1.00       0.000000000000
      0.1873113696D+02  0.3349460434D-01
      0.2825394365D+01  0.2347269535D+00
      0.6401216923D+00  0.8137573261D+00
 S   1 1.00       0.000000000000
      0.1612777588D+00  0.1000000000D+01
 ****
     58 0
 S   3 1.00       0.000000000000
      0.1873113696D+02  0.3349460434D-01
      0.2825394365D+01  0.2347269535D+00
      0.6401216923D+00  0.8137573261D+00
 S   1 1.00       0.000000000000
      0.1612777588D+00  0.1000000000D+01
 ****
     59 0
 S   6 1.00       0.000000000000
      0.3047524880D+04  0.1834737132D-02
      0.4573695180D+03  0.1403732281D-01
      0.1039486850D+03  0.6884262226D-01
      0.2921015530D+02  0.2321844432D+00
      0.9286662960D+01  0.4679413484D+00
      0.3163926960D+01  0.3623119853D+00
 SP   3 1.00       0.000000000000
      0.7868272350D+01 -0.1193324198D+00  0.6899906659D-01
      0.1881288540D+01 -0.1608541517D+00  0.3164239610D+00
      0.5442492580D+00  0.1143456438D+01  0.7443082909D+00
 SP   1 1.00       0.000000000000
      0.1687144782D+00  0.1000000000D+01  0.1000000000D+01
 D   1 1.00       0.000000000000
      0.8000000000D+00  0.1000000000D+01
 ****
     60 0
 S   3 1.00       0.000000000000
      0.1873113696D+02  0.3349460434D-01
      0.2825394365D+01  0.2347269535D+00
      0.6401216923D+00  0.8137573261D+00
 S   1 1.00       0.000000000000
      0.1612777588D+00  0.1000000000D+01
 ****
     61 0
 S   3 1.00       0.000000000000
      0.1873113696D+02  0.3349460434D-01
      0.2825394365D+01  0.2347269535D+00
      0.6401216923D+00  0.8137573261D+00
 S   1 1.00       0.000000000000
      0.1612777588D+00  0.1000000000D+01
 ****
     62 0
 S   6 1.00       0.000000000000
      0.3047524880D+04  0.1834737132D-02
      0.4573695180D+03  0.1403732281D-01
      0.1039486850D+03  0.6884262226D-01
      0.2921015530D+02  0.2321844432D+00
      0.9286662960D+01  0.4679413484D+00
      0.3163926960D+01  0.3623119853D+00
 SP   3 1.00       0.000000000000
      0.7868272350D+01 -0.1193324198D+00  0.6899906659D-01
      0.1881288540D+01 -0.1608541517D+00  0.3164239610D+00
      0.5442492580D+00  0.1143456438D+01  0.7443082909D+00
 SP   1 1.00       0.000000000000
      0.1687144782D+00  0.1000000000D+01  0.1000000000D+01
 D   1 1.00       0.000000000000
      0.8000000000D+00  0.1000000000D+01
 ****
     63 0
 S   3 1.00       0.000000000000
      0.1873113696D+02  0.3349460434D-01
      0.2825394365D+01  0.2347269535D+00
      0.6401216923D+00  0.8137573261D+00
 S   1 1.00       0.000000000000
      0.1612777588D+00  0.1000000000D+01
 ****
     64 0
 S   3 1.00       0.000000000000
      0.1873113696D+02  0.3349460434D-01
      0.2825394365D+01  0.2347269535D+00
      0.6401216923D+00  0.8137573261D+00
 S   1 1.00       0.000000000000
      0.1612777588D+00  0.1000000000D+01
 ****
     65 0
 S   6 1.00       0.000000000000
      0.3047524880D+04  0.1834737132D-02
      0.4573695180D+03  0.1403732281D-01
      0.1039486850D+03  0.6884262226D-01
      0.2921015530D+02  0.2321844432D+00
      0.9286662960D+01  0.4679413484D+00
      0.3163926960D+01  0.3623119853D+00
 SP   3 1.00       0.000000000000
      0.7868272350D+01 -0.1193324198D+00  0.6899906659D-01
      0.1881288540D+01 -0.1608541517D+00  0.3164239610D+00
      0.5442492580D+00  0.1143456438D+01  0.7443082909D+00
 SP   1 1.00       0.000000000000
      0.1687144782D+00  0.1000000000D+01  0.1000000000D+01
 D   1 1.00       0.000000000000
      0.8000000000D+00  0.1000000000D+01
 ****
     66 0
 S   3 1.00       0.000000000000
      0.1873113696D+02  0.3349460434D-01
      0.2825394365D+01  0.2347269535D+00
      0.6401216923D+00  0.8137573261D+00
 S   1 1.00       0.000000000000
      0.1612777588D+00  0.1000000000D+01
 ****
     67 0
 S   6 1.00       0.000000000000
      0.3047524880D+04  0.1834737132D-02
      0.4573695180D+03  0.1403732281D-01
      0.1039486850D+03  0.6884262226D-01
      0.2921015530D+02  0.2321844432D+00
      0.9286662960D+01  0.4679413484D+00
      0.3163926960D+01  0.3623119853D+00
 SP   3 1.00       0.000000000000
      0.7868272350D+01 -0.1193324198D+00  0.6899906659D-01
      0.1881288540D+01 -0.1608541517D+00  0.3164239610D+00
      0.5442492580D+00  0.1143456438D+01  0.7443082909D+00
 SP   1 1.00       0.000000000000
      0.1687144782D+00  0.1000000000D+01  0.1000000000D+01
 D   1 1.00       0.000000000000
      0.8000000000D+00  0.1000000000D+01
 ****
     68 0
 S   3 1.00       0.000000000000
      0.1873113696D+02  0.3349460434D-01
      0.2825394365D+01  0.2347269535D+00
      0.6401216923D+00  0.8137573261D+00
 S   1 1.00       0.000000000000
      0.1612777588D+00  0.1000000000D+01
 ****
     69 0
 S   3 1.00       0.000000000000
      0.1873113696D+02  0.3349460434D-01
      0.2825394365D+01  0.2347269535D+00
      0.6401216923D+00  0.8137573261D+00
 S   1 1.00       0.000000000000
      0.1612777588D+00  0.1000000000D+01
 ****
     70 0
 S   3 1.00       0.000000000000
      0.1873113696D+02  0.3349460434D-01
      0.2825394365D+01  0.2347269535D+00
      0.6401216923D+00  0.8137573261D+00
 S   1 1.00       0.000000000000
      0.1612777588D+00  0.1000000000D+01
 ****
     71 0
 S   6 1.00       0.000000000000
      0.3047524880D+04  0.1834737132D-02
      0.4573695180D+03  0.1403732281D-01
      0.1039486850D+03  0.6884262226D-01
      0.2921015530D+02  0.2321844432D+00
      0.9286662960D+01  0.4679413484D+00
      0.3163926960D+01  0.3623119853D+00
 SP   3 1.00       0.000000000000
      0.7868272350D+01 -0.1193324198D+00  0.6899906659D-01
      0.1881288540D+01 -0.1608541517D+00  0.3164239610D+00
      0.5442492580D+00  0.1143456438D+01  0.7443082909D+00
 SP   1 1.00       0.000000000000
      0.1687144782D+00  0.1000000000D+01  0.1000000000D+01
 D   1 1.00       0.000000000000
      0.8000000000D+00  0.1000000000D+01
 ****
     72 0
 S   3 1.00       0.000000000000
      0.1873113696D+02  0.3349460434D-01
      0.2825394365D+01  0.2347269535D+00
      0.6401216923D+00  0.8137573261D+00
 S   1 1.00       0.000000000000
      0.1612777588D+00  0.1000000000D+01
 ****
     73 0
 S   3 1.00       0.000000000000
      0.1873113696D+02  0.3349460434D-01
      0.2825394365D+01  0.2347269535D+00
      0.6401216923D+00  0.8137573261D+00
 S   1 1.00       0.000000000000
      0.1612777588D+00  0.1000000000D+01
 ****
     74 0
 S   3 1.00       0.000000000000
      0.1873113696D+02  0.3349460434D-01
      0.2825394365D+01  0.2347269535D+00
      0.6401216923D+00  0.8137573261D+00
 S   1 1.00       0.000000000000
      0.1612777588D+00  0.1000000000D+01
 ****

 AO basis set (Overlap normalization):
 Atom O1       Shell     1 S   6     bf    1 -     1          9.447255605208         -0.459323296723        -13.707432996458
      0.5484671660D+04  0.1831074430D-02
      0.8252349460D+03  0.1395017220D-01
      0.1880469580D+03  0.6844507810D-01
      0.5296450000D+02  0.2327143360D+00
      0.1689757040D+02  0.4701928980D+00
      0.5799635340D+01  0.3585208530D+00
 Atom O1       Shell     2 SP   3    bf    2 -     5          9.447255605208         -0.459323296723        -13.707432996458
      0.1553961625D+02 -0.1107775495D+00  0.7087426823D-01
      0.3599933586D+01 -0.1480262627D+00  0.3397528391D+00
      0.1013761750D+01  0.1130767015D+01  0.7271585773D+00
 Atom O1       Shell     3 SP   1    bf    6 -     9          9.447255605208         -0.459323296723        -13.707432996458
      0.2700058226D+00  0.1000000000D+01  0.1000000000D+01
 Atom O1       Shell     4 D   1     bf   10 -    15          9.447255605208         -0.459323296723        -13.707432996458
      0.8000000000D+00  0.1000000000D+01
 Atom H2       Shell     5 S   3     bf   16 -    16         11.245339223615         -0.617993395580        -13.430150797568
      0.1873113696D+02  0.3349460434D-01
      0.2825394365D+01  0.2347269535D+00
      0.6401216923D+00  0.8137573261D+00
 Atom H2       Shell     6 S   1     bf   17 -    17         11.245339223615         -0.617993395580        -13.430150797568
      0.1612777588D+00  0.1000000000D+01
 Atom C3       Shell     7 S   6     bf   18 -    18          0.000000000000          0.000000000000          0.000000000000
      0.3047524880D+04  0.1834737132D-02
      0.4573695180D+03  0.1403732281D-01
      0.1039486850D+03  0.6884262226D-01
      0.2921015530D+02  0.2321844432D+00
      0.9286662960D+01  0.4679413484D+00
      0.3163926960D+01  0.3623119853D+00
 Atom C3       Shell     8 SP   3    bf   19 -    22          0.000000000000          0.000000000000          0.000000000000
      0.7868272350D+01 -0.1193324198D+00  0.6899906659D-01
      0.1881288540D+01 -0.1608541517D+00  0.3164239610D+00
      0.5442492580D+00  0.1143456438D+01  0.7443082909D+00
 Atom C3       Shell     9 SP   1    bf   23 -    26          0.000000000000          0.000000000000          0.000000000000
      0.1687144782D+00  0.1000000000D+01  0.1000000000D+01
 Atom C3       Shell    10 D   1     bf   27 -    32          0.000000000000          0.000000000000          0.000000000000
      0.8000000000D+00  0.1000000000D+01
 Atom C4       Shell    11 S   6     bf   33 -    33          2.937628406450          0.000000000000          0.000000000000
      0.3047524880D+04  0.1834737132D-02
      0.4573695180D+03  0.1403732281D-01
      0.1039486850D+03  0.6884262226D-01
      0.2921015530D+02  0.2321844432D+00
      0.9286662960D+01  0.4679413484D+00
      0.3163926960D+01  0.3623119853D+00
 Atom C4       Shell    12 SP   3    bf   34 -    37          2.937628406450          0.000000000000          0.000000000000
      0.7868272350D+01 -0.1193324198D+00  0.6899906659D-01
      0.1881288540D+01 -0.1608541517D+00  0.3164239610D+00
      0.5442492580D+00  0.1143456438D+01  0.7443082909D+00
 Atom C4       Shell    13 SP   1    bf   38 -    41          2.937628406450          0.000000000000          0.000000000000
      0.1687144782D+00  0.1000000000D+01  0.1000000000D+01
 Atom C4       Shell    14 D   1     bf   42 -    47          2.937628406450          0.000000000000          0.000000000000
      0.8000000000D+00  0.1000000000D+01
 Atom H5       Shell    15 S   3     bf   48 -    48          3.480483248527          2.014236332740          0.000000000000
      0.1873113696D+02  0.3349460434D-01
      0.2825394365D+01  0.2347269535D+00
      0.6401216923D+00  0.8137573261D+00
 Atom H5       Shell    16 S   1     bf   49 -    49          3.480483248527          2.014236332740          0.000000000000
      0.1612777588D+00  0.1000000000D+01
 Atom C6       Shell    17 S   6     bf   50 -    50          4.184454005304         -1.145419871001         -2.354151973626
      0.3047524880D+04  0.1834737132D-02
      0.4573695180D+03  0.1403732281D-01
      0.1039486850D+03  0.6884262226D-01
      0.2921015530D+02  0.2321844432D+00
      0.9286662960D+01  0.4679413484D+00
      0.3163926960D+01  0.3623119853D+00
 Atom C6       Shell    18 SP   3    bf   51 -    54          4.184454005304         -1.145419871001         -2.354151973626
      0.7868272350D+01 -0.1193324198D+00  0.6899906659D-01
      0.1881288540D+01 -0.1608541517D+00  0.3164239610D+00
      0.5442492580D+00  0.1143456438D+01  0.7443082909D+00
 Atom C6       Shell    19 SP   1    bf   55 -    58          4.184454005304         -1.145419871001         -2.354151973626
      0.1687144782D+00  0.1000000000D+01  0.1000000000D+01
 Atom C6       Shell    20 D   1     bf   59 -    64          4.184454005304         -1.145419871001         -2.354151973626
      0.8000000000D+00  0.1000000000D+01
 Atom H7       Shell    21 S   3     bf   65 -    65          3.685137810822         -3.157835414818         -2.481428524669
      0.1873113696D+02  0.3349460434D-01
      0.2825394365D+01  0.2347269535D+00
      0.6401216923D+00  0.8137573261D+00
 Atom H7       Shell    22 S   1     bf   66 -    66          3.685137810822         -3.157835414818         -2.481428524669
      0.1612777588D+00  0.1000000000D+01
 Atom C8       Shell    23 S   6     bf   67 -    67          3.231256528519          0.234426252655         -4.758015687616
      0.3047524880D+04  0.1834737132D-02
      0.4573695180D+03  0.1403732281D-01
      0.1039486850D+03  0.6884262226D-01
      0.2921015530D+02  0.2321844432D+00
      0.9286662960D+01  0.4679413484D+00
      0.3163926960D+01  0.3623119853D+00
 Atom C8       Shell    24 SP   3    bf   68 -    71          3.231256528519          0.234426252655         -4.758015687616
      0.7868272350D+01 -0.1193324198D+00  0.6899906659D-01
      0.1881288540D+01 -0.1608541517D+00  0.3164239610D+00
      0.5442492580D+00  0.1143456438D+01  0.7443082909D+00
 Atom C8       Shell    25 SP   1    bf   72 -    75          3.231256528519          0.234426252655         -4.758015687616
      0.1687144782D+00  0.1000000000D+01  0.1000000000D+01
 Atom C8       Shell    26 D   1     bf   76 -    81          3.231256528519          0.234426252655         -4.758015687616
      0.8000000000D+00  0.1000000000D+01
 Atom H9       Shell    27 S   3     bf   82 -    82          3.991520185890          2.170132294737         -4.626641907960
      0.1873113696D+02  0.3349460434D-01
      0.2825394365D+01  0.2347269535D+00
      0.6401216923D+00  0.8137573261D+00
 Atom H9       Shell    28 S   1     bf   83 -    83          3.991520185890          2.170132294737         -4.626641907960
      0.1612777588D+00  0.1000000000D+01
 Atom C10      Shell    29 S   6     bf   84 -    84         -0.517075935166          1.233301887167          2.645072722859
      0.3047524880D+04  0.1834737132D-02
      0.4573695180D+03  0.1403732281D-01
      0.1039486850D+03  0.6884262226D-01
      0.2921015530D+02  0.2321844432D+00
      0.9286662960D+01  0.4679413484D+00
      0.3163926960D+01  0.3623119853D+00
 Atom C10      Shell    30 SP   3    bf   85 -    88         -0.517075935166          1.233301887167          2.645072722859
      0.7868272350D+01 -0.1193324198D+00  0.6899906659D-01
      0.1881288540D+01 -0.1608541517D+00  0.3164239610D+00
      0.5442492580D+00  0.1143456438D+01  0.7443082909D+00
 Atom C10      Shell    31 SP   1    bf   89 -    92         -0.517075935166          1.233301887167          2.645072722859
      0.1687144782D+00  0.1000000000D+01  0.1000000000D+01
 Atom C10      Shell    32 D   1     bf   93 -    98         -0.517075935166          1.233301887167          2.645072722859
      0.8000000000D+00  0.1000000000D+01
 Atom H11      Shell    33 S   3     bf   99 -    99         -0.086196588325          3.259177647872          2.431617290224
      0.1873113696D+02  0.3349460434D-01
      0.2825394365D+01  0.2347269535D+00
      0.6401216923D+00  0.8137573261D+00
 Atom H11      Shell    34 S   1     bf  100 -   100         -0.086196588325          3.259177647872          2.431617290224
      0.1612777588D+00  0.1000000000D+01
 Atom C12      Shell    35 S   6     bf  101 -   101         -0.824155222335          1.537975741942         -2.335779602628
      0.3047524880D+04  0.1834737132D-02
      0.4573695180D+03  0.1403732281D-01
      0.1039486850D+03  0.6884262226D-01
      0.2921015530D+02  0.2321844432D+00
      0.9286662960D+01  0.4679413484D+00
      0.3163926960D+01  0.3623119853D+00
 Atom C12      Shell    36 SP   3    bf  102 -   105         -0.824155222335          1.537975741942         -2.335779602628
      0.7868272350D+01 -0.1193324198D+00  0.6899906659D-01
      0.1881288540D+01 -0.1608541517D+00  0.3164239610D+00
      0.5442492580D+00  0.1143456438D+01  0.7443082909D+00
 Atom C12      Shell    37 SP   1    bf  106 -   109         -0.824155222335          1.537975741942         -2.335779602628
      0.1687144782D+00  0.1000000000D+01  0.1000000000D+01
 Atom C12      Shell    38 D   1     bf  110 -   115         -0.824155222335          1.537975741942         -2.335779602628
      0.8000000000D+00  0.1000000000D+01
 Atom H13      Shell    39 S   3     bf  116 -   116         -0.210322058836          3.507281133564         -2.082817309795
      0.1873113696D+02  0.3349460434D-01
      0.2825394365D+01  0.2347269535D+00
      0.6401216923D+00  0.8137573261D+00
 Atom H13      Shell    40 S   1     bf  117 -   117         -0.210322058836          3.507281133564         -2.082817309795
      0.1612777588D+00  0.1000000000D+01
 Atom H14      Shell    41 S   3     bf  118 -   118         -2.882514581579          1.586271926254         -2.535295829491
      0.1873113696D+02  0.3349460434D-01
      0.2825394365D+01  0.2347269535D+00
      0.6401216923D+00  0.8137573261D+00
 Atom H14      Shell    42 S   1     bf  119 -   119         -2.882514581579          1.586271926254         -2.535295829491
      0.1612777588D+00  0.1000000000D+01
 Atom C15      Shell    43 S   6     bf  120 -   120          4.359329110463         -0.902974773372         -7.253690970984
      0.3047524880D+04  0.1834737132D-02
      0.4573695180D+03  0.1403732281D-01
      0.1039486850D+03  0.6884262226D-01
      0.2921015530D+02  0.2321844432D+00
      0.9286662960D+01  0.4679413484D+00
      0.3163926960D+01  0.3623119853D+00
 Atom C15      Shell    44 SP   3    bf  121 -   124          4.359329110463         -0.902974773372         -7.253690970984
      0.7868272350D+01 -0.1193324198D+00  0.6899906659D-01
      0.1881288540D+01 -0.1608541517D+00  0.3164239610D+00
      0.5442492580D+00  0.1143456438D+01  0.7443082909D+00
 Atom C15      Shell    45 SP   1    bf  125 -   128          4.359329110463         -0.902974773372         -7.253690970984
      0.1687144782D+00  0.1000000000D+01  0.1000000000D+01
 Atom C15      Shell    46 D   1     bf  129 -   134          4.359329110463         -0.902974773372         -7.253690970984
      0.8000000000D+00  0.1000000000D+01
 Atom C16      Shell    47 S   6     bf  135 -   135          3.653326047717         -1.038838693497          2.613688831545
      0.3047524880D+04  0.1834737132D-02
      0.4573695180D+03  0.1403732281D-01
      0.1039486850D+03  0.6884262226D-01
      0.2921015530D+02  0.2321844432D+00
      0.9286662960D+01  0.4679413484D+00
      0.3163926960D+01  0.3623119853D+00
 Atom C16      Shell    48 SP   3    bf  136 -   139          3.653326047717         -1.038838693497          2.613688831545
      0.7868272350D+01 -0.1193324198D+00  0.6899906659D-01
      0.1881288540D+01 -0.1608541517D+00  0.3164239610D+00
      0.5442492580D+00  0.1143456438D+01  0.7443082909D+00
 Atom C16      Shell    49 SP   1    bf  140 -   143          3.653326047717         -1.038838693497          2.613688831545
      0.1687144782D+00  0.1000000000D+01  0.1000000000D+01
 Atom C16      Shell    50 D   1     bf  144 -   149          3.653326047717         -1.038838693497          2.613688831545
      0.8000000000D+00  0.1000000000D+01
 Atom H17      Shell    51 S   3     bf  150 -   150          5.549690183795         -0.461171581161          3.204084591091
      0.1873113696D+02  0.3349460434D-01
      0.2825394365D+01  0.2347269535D+00
      0.6401216923D+00  0.8137573261D+00
 Atom H17      Shell    52 S   1     bf  151 -   151          5.549690183795         -0.461171581161          3.204084591091
      0.1612777588D+00  0.1000000000D+01
 Atom H18      Shell    53 S   3     bf  152 -   152          3.636254828750         -3.111913765878          2.606705310827
      0.1873113696D+02  0.3349460434D-01
      0.2825394365D+01  0.2347269535D+00
      0.6401216923D+00  0.8137573261D+00
 Atom H18      Shell    54 S   1     bf  153 -   153          3.636254828750         -3.111913765878          2.606705310827
      0.1612777588D+00  0.1000000000D+01
 Atom C19      Shell    55 S   6     bf  154 -   154          0.319327811661          0.473578956032         -4.797199877077
      0.3047524880D+04  0.1834737132D-02
      0.4573695180D+03  0.1403732281D-01
      0.1039486850D+03  0.6884262226D-01
      0.2921015530D+02  0.2321844432D+00
      0.9286662960D+01  0.4679413484D+00
      0.3163926960D+01  0.3623119853D+00
 Atom C19      Shell    56 SP   3    bf  155 -   158          0.319327811661          0.473578956032         -4.797199877077
      0.7868272350D+01 -0.1193324198D+00  0.6899906659D-01
      0.1881288540D+01 -0.1608541517D+00  0.3164239610D+00
      0.5442492580D+00  0.1143456438D+01  0.7443082909D+00
 Atom C19      Shell    57 SP   1    bf  159 -   162          0.319327811661          0.473578956032         -4.797199877077
      0.1687144782D+00  0.1000000000D+01  0.1000000000D+01
 Atom C19      Shell    58 D   1     bf  163 -   168          0.319327811661          0.473578956032         -4.797199877077
      0.8000000000D+00  0.1000000000D+01
 Atom H20      Shell    59 S   3     bf  169 -   169         -0.532765877713         -1.374646315434         -5.173199422731
      0.1873113696D+02  0.3349460434D-01
      0.2825394365D+01  0.2347269535D+00
      0.6401216923D+00  0.8137573261D+00
 Atom H20      Shell    60 S   1     bf  170 -   170         -0.532765877713         -1.374646315434         -5.173199422731
      0.1612777588D+00  0.1000000000D+01
 Atom H21      Shell    61 S   3     bf  171 -   171         -0.258538269939          1.694071939320         -6.367300736511
      0.1873113696D+02  0.3349460434D-01
      0.2825394365D+01  0.2347269535D+00
      0.6401216923D+00  0.8137573261D+00
 Atom H21      Shell    62 S   1     bf  172 -   172         -0.258538269939          1.694071939320         -6.367300736511
      0.1612777588D+00  0.1000000000D+01
 Atom C22      Shell    63 S   6     bf  173 -   173          1.566559928401          0.033159402399          4.378467481949
      0.3047524880D+04  0.1834737132D-02
      0.4573695180D+03  0.1403732281D-01
      0.1039486850D+03  0.6884262226D-01
      0.2921015530D+02  0.2321844432D+00
      0.9286662960D+01  0.4679413484D+00
      0.3163926960D+01  0.3623119853D+00
 Atom C22      Shell    64 SP   3    bf  174 -   177          1.566559928401          0.033159402399          4.378467481949
      0.7868272350D+01 -0.1193324198D+00  0.6899906659D-01
      0.1881288540D+01 -0.1608541517D+00  0.3164239610D+00
      0.5442492580D+00  0.1143456438D+01  0.7443082909D+00
 Atom C22      Shell    65 SP   1    bf  178 -   181          1.566559928401          0.033159402399          4.378467481949
      0.1687144782D+00  0.1000000000D+01  0.1000000000D+01
 Atom C22      Shell    66 D   1     bf  182 -   187          1.566559928401          0.033159402399          4.378467481949
      0.8000000000D+00  0.1000000000D+01
 Atom H23      Shell    67 S   3     bf  188 -   188          0.751446573180         -1.462062797567          5.558705273490
      0.1873113696D+02  0.3349460434D-01
      0.2825394365D+01  0.2347269535D+00
      0.6401216923D+00  0.8137573261D+00
 Atom H23      Shell    68 S   1     bf  189 -   189          0.751446573180         -1.462062797567          5.558705273490
      0.1612777588D+00  0.1000000000D+01
 Atom H24      Shell    69 S   3     bf  190 -   190          2.348631516674          1.437107811250          5.678970298073
      0.1873113696D+02  0.3349460434D-01
      0.2825394365D+01  0.2347269535D+00
      0.6401216923D+00  0.8137573261D+00
 Atom H24      Shell    70 S   1     bf  191 -   191          2.348631516674          1.437107811250          5.678970298073
      0.1612777588D+00  0.1000000000D+01
 Atom C25      Shell    71 S   6     bf  192 -   192          7.078921123571         -0.957680455193         -2.190682461720
      0.3047524880D+04  0.1834737132D-02
      0.4573695180D+03  0.1403732281D-01
      0.1039486850D+03  0.6884262226D-01
      0.2921015530D+02  0.2321844432D+00
      0.9286662960D+01  0.4679413484D+00
      0.3163926960D+01  0.3623119853D+00
 Atom C25      Shell    72 SP   3    bf  193 -   196          7.078921123571         -0.957680455193         -2.190682461720
      0.7868272350D+01 -0.1193324198D+00  0.6899906659D-01
      0.1881288540D+01 -0.1608541517D+00  0.3164239610D+00
      0.5442492580D+00  0.1143456438D+01  0.7443082909D+00
 Atom C25      Shell    73 SP   1    bf  197 -   200          7.078921123571         -0.957680455193         -2.190682461720
      0.1687144782D+00  0.1000000000D+01  0.1000000000D+01
 Atom C25      Shell    74 D   1     bf  201 -   206          7.078921123571         -0.957680455193         -2.190682461720
      0.8000000000D+00  0.1000000000D+01
 Atom H26      Shell    75 S   3     bf  207 -   207          7.805804582941         -2.330737756613         -0.814850626596
      0.1873113696D+02  0.3349460434D-01
      0.2825394365D+01  0.2347269535D+00
      0.6401216923D+00  0.8137573261D+00
 Atom H26      Shell    76 S   1     bf  208 -   208          7.805804582941         -2.330737756613         -0.814850626596
      0.1612777588D+00  0.1000000000D+01
 Atom H27      Shell    77 S   3     bf  209 -   209          7.611824006428          0.910617714024         -1.436556804904
      0.1873113696D+02  0.3349460434D-01
      0.2825394365D+01  0.2347269535D+00
      0.6401216923D+00  0.8137573261D+00
 Atom H27      Shell    78 S   1     bf  210 -   210          7.611824006428          0.910617714024         -1.436556804904
      0.1612777588D+00  0.1000000000D+01
 Atom C28      Shell    79 S   6     bf  211 -   211         -3.190229232469          1.053751901912          3.829944028391
      0.3047524880D+04  0.1834737132D-02
      0.4573695180D+03  0.1403732281D-01
      0.1039486850D+03  0.6884262226D-01
      0.2921015530D+02  0.2321844432D+00
      0.9286662960D+01  0.4679413484D+00
      0.3163926960D+01  0.3623119853D+00
 Atom C28      Shell    80 SP   3    bf  212 -   215         -3.190229232469          1.053751901912          3.829944028391
      0.7868272350D+01 -0.1193324198D+00  0.6899906659D-01
      0.1881288540D+01 -0.1608541517D+00  0.3164239610D+00
      0.5442492580D+00  0.1143456438D+01  0.7443082909D+00
 Atom C28      Shell    81 SP   1    bf  216 -   219         -3.190229232469          1.053751901912          3.829944028391
      0.1687144782D+00  0.1000000000D+01  0.1000000000D+01
 Atom C28      Shell    82 D   1     bf  220 -   225         -3.190229232469          1.053751901912          3.829944028391
      0.8000000000D+00  0.1000000000D+01
 Atom H29      Shell    83 S   3     bf  226 -   226         -3.577257900135         -0.959645959343          4.173150476159
      0.1873113696D+02  0.3349460434D-01
      0.2825394365D+01  0.2347269535D+00
      0.6401216923D+00  0.8137573261D+00
 Atom H29      Shell    84 S   1     bf  227 -   227         -3.577257900135         -0.959645959343          4.173150476159
      0.1612777588D+00  0.1000000000D+01
 Atom C30      Shell    85 S   6     bf  228 -   228         -1.113281827783         -2.700255390453         -0.094288244448
      0.3047524880D+04  0.1834737132D-02
      0.4573695180D+03  0.1403732281D-01
      0.1039486850D+03  0.6884262226D-01
      0.2921015530D+02  0.2321844432D+00
      0.9286662960D+01  0.4679413484D+00
      0.3163926960D+01  0.3623119853D+00
 Atom C30      Shell    86 SP   3    bf  229 -   232         -1.113281827783         -2.700255390453         -0.094288244448
      0.7868272350D+01 -0.1193324198D+00  0.6899906659D-01
      0.1881288540D+01 -0.1608541517D+00  0.3164239610D+00
      0.5442492580D+00  0.1143456438D+01  0.7443082909D+00
 Atom C30      Shell    87 SP   1    bf  233 -   236         -1.113281827783         -2.700255390453         -0.094288244448
      0.1687144782D+00  0.1000000000D+01  0.1000000000D+01
 Atom C30      Shell    88 D   1     bf  237 -   242         -1.113281827783         -2.700255390453         -0.094288244448
      0.8000000000D+00  0.1000000000D+01
 Atom H31      Shell    89 S   3     bf  243 -   243         -3.178324052318         -2.636706678501         -0.205849020388
      0.1873113696D+02  0.3349460434D-01
      0.2825394365D+01  0.2347269535D+00
      0.6401216923D+00  0.8137573261D+00
 Atom H31      Shell    90 S   1     bf  244 -   244         -3.178324052318         -2.636706678501         -0.205849020388
      0.1612777588D+00  0.1000000000D+01
 Atom H32      Shell    91 S   3     bf  245 -   245         -0.448051458285         -3.765920182598         -1.733113926890
      0.1873113696D+02  0.3349460434D-01
      0.2825394365D+01  0.2347269535D+00
      0.6401216923D+00  0.8137573261D+00
 Atom H32      Shell    92 S   1     bf  246 -   246         -0.448051458285         -3.765920182598         -1.733113926890
      0.1612777588D+00  0.1000000000D+01
 Atom H33      Shell    93 S   3     bf  247 -   247         -0.623417967828         -3.799768371275          1.587085169896
      0.1873113696D+02  0.3349460434D-01
      0.2825394365D+01  0.2347269535D+00
      0.6401216923D+00  0.8137573261D+00
 Atom H33      Shell    94 S   1     bf  248 -   248         -0.623417967828         -3.799768371275          1.587085169896
      0.1612777588D+00  0.1000000000D+01
 Atom C34      Shell    95 S   6     bf  249 -   249          7.205224276683         -1.372753546842         -6.942433669411
      0.3047524880D+04  0.1834737132D-02
      0.4573695180D+03  0.1403732281D-01
      0.1039486850D+03  0.6884262226D-01
      0.2921015530D+02  0.2321844432D+00
      0.9286662960D+01  0.4679413484D+00
      0.3163926960D+01  0.3623119853D+00
 Atom C34      Shell    96 SP   3    bf  250 -   253          7.205224276683         -1.372753546842         -6.942433669411
      0.7868272350D+01 -0.1193324198D+00  0.6899906659D-01
      0.1881288540D+01 -0.1608541517D+00  0.3164239610D+00
      0.5442492580D+00  0.1143456438D+01  0.7443082909D+00
 Atom C34      Shell    97 SP   1    bf  254 -   257          7.205224276683         -1.372753546842         -6.942433669411
      0.1687144782D+00  0.1000000000D+01  0.1000000000D+01
 Atom C34      Shell    98 D   1     bf  258 -   263          7.205224276683         -1.372753546842         -6.942433669411
      0.8000000000D+00  0.1000000000D+01
 Atom C35      Shell    99 S   6     bf  264 -   264          3.984907712898          1.051019584691         -9.430715191414
      0.3047524880D+04  0.1834737132D-02
      0.4573695180D+03  0.1403732281D-01
      0.1039486850D+03  0.6884262226D-01
      0.2921015530D+02  0.2321844432D+00
      0.9286662960D+01  0.4679413484D+00
      0.3163926960D+01  0.3623119853D+00
 Atom C35      Shell   100 SP   3    bf  265 -   268          3.984907712898          1.051019584691         -9.430715191414
      0.7868272350D+01 -0.1193324198D+00  0.6899906659D-01
      0.1881288540D+01 -0.1608541517D+00  0.3164239610D+00
      0.5442492580D+00  0.1143456438D+01  0.7443082909D+00
 Atom C35      Shell   101 SP   1    bf  269 -   272          3.984907712898          1.051019584691         -9.430715191414
      0.1687144782D+00  0.1000000000D+01  0.1000000000D+01
 Atom C35      Shell   102 D   1     bf  273 -   278          3.984907712898          1.051019584691         -9.430715191414
      0.8000000000D+00  0.1000000000D+01
 Atom H36      Shell   103 S   3     bf  279 -   279          4.595242218536          2.912511848548         -8.741424280772
      0.1873113696D+02  0.3349460434D-01
      0.2825394365D+01  0.2347269535D+00
      0.6401216923D+00  0.8137573261D+00
 Atom H36      Shell   104 S   1     bf  280 -   280          4.595242218536          2.912511848548         -8.741424280772
      0.1612777588D+00  0.1000000000D+01
 Atom H37      Shell   105 S   3     bf  281 -   281          1.968205438732          1.219006524712         -9.866498434261
      0.1873113696D+02  0.3349460434D-01
      0.2825394365D+01  0.2347269535D+00
      0.6401216923D+00  0.8137573261D+00
 Atom H37      Shell   106 S   1     bf  282 -   282          1.968205438732          1.219006524712         -9.866498434261
      0.1612777588D+00  0.1000000000D+01
 Atom C38      Shell   107 S   6     bf  283 -   283          8.366322544005         -1.354891949921         -4.689656469923
      0.3047524880D+04  0.1834737132D-02
      0.4573695180D+03  0.1403732281D-01
      0.1039486850D+03  0.6884262226D-01
      0.2921015530D+02  0.2321844432D+00
      0.9286662960D+01  0.4679413484D+00
      0.3163926960D+01  0.3623119853D+00
 Atom C38      Shell   108 SP   3    bf  284 -   287          8.366322544005         -1.354891949921         -4.689656469923
      0.7868272350D+01 -0.1193324198D+00  0.6899906659D-01
      0.1881288540D+01 -0.1608541517D+00  0.3164239610D+00
      0.5442492580D+00  0.1143456438D+01  0.7443082909D+00
 Atom C38      Shell   109 SP   1    bf  288 -   291          8.366322544005         -1.354891949921         -4.689656469923
      0.1687144782D+00  0.1000000000D+01  0.1000000000D+01
 Atom C38      Shell   110 D   1     bf  292 -   297          8.366322544005         -1.354891949921         -4.689656469923
      0.8000000000D+00  0.1000000000D+01
 Atom H39      Shell   111 S   3     bf  298 -   298         10.404299562844         -1.656265379107         -4.630476237873
      0.1873113696D+02  0.3349460434D-01
      0.2825394365D+01  0.2347269535D+00
      0.6401216923D+00  0.8137573261D+00
 Atom H39      Shell   112 S   1     bf  299 -   299         10.404299562844         -1.656265379107         -4.630476237873
      0.1612777588D+00  0.1000000000D+01
 Atom C40      Shell   113 S   6     bf  300 -   300          3.059349521711         -3.431852790559         -7.974301749019
      0.3047524880D+04  0.1834737132D-02
      0.4573695180D+03  0.1403732281D-01
      0.1039486850D+03  0.6884262226D-01
      0.2921015530D+02  0.2321844432D+00
      0.9286662960D+01  0.4679413484D+00
      0.3163926960D+01  0.3623119853D+00
 Atom C40      Shell   114 SP   3    bf  301 -   304          3.059349521711         -3.431852790559         -7.974301749019
      0.7868272350D+01 -0.1193324198D+00  0.6899906659D-01
      0.1881288540D+01 -0.1608541517D+00  0.3164239610D+00
      0.5442492580D+00  0.1143456438D+01  0.7443082909D+00
[...]
 1529 Fit      -0.002091
 1530 Fit      -0.001018
 1531 Fit      -0.000507
 1532 Fit      -0.000574
 1533 Fit      -0.001068
 1534 Fit       0.001690
 1535 Fit       0.001788
 1536 Fit       0.001402
 1537 Fit       0.000897
 1538 Fit       0.002597
 1539 Fit       0.003808
 1540 Fit       0.003173
 1541 Fit       0.002775
 1542 Fit       0.003814
 1543 Fit      -0.000891
 1544 Fit      -0.001727
 1545 Fit      -0.002227
 1546 Fit      -0.002925
 1547 Fit      -0.002684
 1548 Fit      -0.002424
 1549 Fit      -0.002352
 1550 Fit      -0.002926
 1551 Fit      -0.002432
 1552 Fit      -0.001945
 1553 Fit      -0.001113
 1554 Fit       0.001416
 1555 Fit       0.001477
 1556 Fit       0.000521
 1557 Fit      -0.001442
 1558 Fit       0.002984
 1559 Fit       0.002525
 1560 Fit       0.001235
 1561 Fit      -0.000901
 1562 Fit       0.002633
 1563 Fit       0.001458
 1564 Fit      -0.000662
 1565 Fit       0.000201
 1566 Fit      -0.002051
 1567 Fit       0.002129
 1568 Fit       0.001580
 1569 Fit       0.000401
 1570 Fit       0.000560
 1571 Fit       0.001967
 1572 Fit       0.002858
 1573 Fit      -0.001239
 1574 Fit       0.000128
 1575 Fit       0.001259
 1576 Fit       0.001737
 1577 Fit       0.001972
 1578 Fit      -0.001933
 1579 Fit      -0.000977
 1580 Fit      -0.000591
 1581 Fit      -0.000856
 1582 Fit      -0.002254
 1583 Fit      -0.001146
 1584 Fit      -0.000490
 1585 Fit      -0.001689
 1586 Fit      -0.000134
 1587 Fit       0.001149
 1588 Fit       0.002058
 1589 Fit      -0.000950
 1590 Fit       0.000597
 1591 Fit       0.002226
 1592 Fit       0.003108
 1593 Fit       0.001400
 1594 Fit      -0.002877
 1595 Fit      -0.002404
 1596 Fit      -0.004408
 1597 Fit      -0.012737
 1598 Fit      -0.016276
 1599 Fit      -0.020007
 1600 Fit      -0.018473
 1601 Fit      -0.011910
 1602 Fit      -0.007851
 1603 Fit      -0.015628
 1604 Fit      -0.020988
 1605 Fit      -0.022580
 1606 Fit      -0.024770
 1607 Fit      -0.024458
 1608 Fit      -0.020943
 1609 Fit      -0.013621
 1610 Fit      -0.005623
 1611 Fit      -0.015781
 1612 Fit      -0.020571
 1613 Fit      -0.025281
 1614 Fit      -0.026647
 1615 Fit      -0.025366
 1616 Fit      -0.019609
 1617 Fit      -0.023862
 1618 Fit       0.019576
 1619 Fit       0.017359
 1620 Fit       0.018189
 1621 Fit       0.016438
 1622 Fit       0.011791
 1623 Fit       0.011917
 1624 Fit       0.016801
 1625 Fit       0.014623
 1626 Fit       0.012476
 1627 Fit       0.006636
 1628 Fit      -0.001545
 1629 Fit       0.008018
 1630 Fit       0.013214
 1631 Fit       0.007939
 1632 Fit       0.004385
 1633 Fit      -0.002530
 1634 Fit       0.005763
 1635 Fit      -0.002985
 1636 Fit       0.003230
 1637 Fit       0.003627
 1638 Fit       0.003560
 1639 Fit       0.003691
 1640 Fit       0.003657
 1641 Fit       0.002936
 1642 Fit       0.001918
 1643 Fit       0.000183
 1644 Fit      -0.003674
 1645 Fit       0.002036
 1646 Fit       0.002970
 1647 Fit       0.003095
 1648 Fit       0.001754
 1649 Fit       0.002923
 1650 Fit       0.002480
 1651 Fit       0.001998
 1652 Fit       0.003076
 1653 Fit       0.002853
 1654 Fit       0.002348
 1655 Fit       0.001681
 1656 Fit       0.003489
 1657 Fit       0.003006
 1658 Fit       0.002481
 1659 Fit      -0.000951
 1660 Fit      -0.000241
 1661 Fit       0.003600
 1662 Fit       0.002952
 1663 Fit       0.002018
 1664 Fit       0.003069
 1665 Fit       0.002427
 1666 Fit       0.001403
 1667 Fit      -0.000057
 1668 Fit       0.002002
 1669 Fit       0.001122
 1670 Fit      -0.000516
 1671 Fit       0.000379
 1672 Fit       0.000379
 1673 Fit       0.001384
 1674 Fit       0.002135
 1675 Fit       0.001964
 1676 Fit      -0.000191
 1677 Fit      -0.000230
 1678 Fit       0.000116
 1679 Fit       0.001197
 1680 Fit       0.001430
 1681 Fit       0.002567
 1682 Fit       0.003019
 1683 Fit       0.003049
 1684 Fit       0.001376
 1685 Fit       0.003124
 1686 Fit       0.003469
 1687 Fit       0.003441
 1688 Fit       0.003136
 1689 Fit       0.001119
 1690 Fit       0.002446
 1691 Fit       0.002656
 1692 Fit       0.001518
 1693 Fit       0.000271
 1694 Fit       0.003375
 1695 Fit       0.002610
 1696 Fit       0.001820
 1697 Fit       0.001190
 1698 Fit       0.002899
 1699 Fit       0.002674
 1700 Fit       0.002275
 1701 Fit       0.001081
 1702 Fit       0.002137
 1703 Fit       0.001551
 1704 Fit       0.002093
 1705 Fit       0.002482
 1706 Fit       0.002175
 1707 Fit       0.001477
 1708 Fit       0.001652
 1709 Fit       0.001541
 1710 Fit       0.001392
 1711 Fit       0.001172
 1712 Fit       0.002264
 1713 Fit       0.002601
 1714 Fit       0.002331
 1715 Fit       0.001966
 1716 Fit      -0.000072
 1717 Fit      -0.000587
 1718 Fit       0.003090
 1719 Fit       0.000608
 1720 Fit       0.001288
 1721 Fit       0.003281
 1722 Fit       0.001803
 1723 Fit      -0.000069
 1724 Fit       0.004231
 1725 Fit       0.004018
 1726 Fit       0.003026
 1727 Fit       0.001314
 1728 Fit       0.001617
 1729 Fit       0.002840
 1730 Fit      -0.000049
 1731 Fit       0.001839
 1732 Fit       0.003016
 1733 Fit       0.003524
 1734 Fit       0.003083
 1735 Fit       0.003398
 1736 Fit       0.003327
 1737 Fit       0.003118
 1738 Fit       0.002968
 1739 Fit       0.003050
 1740 Fit       0.003036
 1741 Fit       0.002928
 1742 Fit       0.002237
 1743 Fit       0.003135
 1744 Fit       0.002341
 1745 Fit       0.002857
 1746 Fit       0.003279
 1747 Fit       0.003792
 1748 Fit       0.001768
 1749 Fit       0.001870
 1750 Fit       0.002581
 1751 Fit       0.003456
 1752 Fit      -0.000694
 1753 Fit      -0.000958
 1754 Fit       0.000501
 1755 Fit       0.002460
 1756 Fit       0.003045
 1757 Fit       0.003573
 1758 Fit       0.003854
 1759 Fit       0.002592
 1760 Fit       0.002876
 1761 Fit       0.003306
 1762 Fit       0.001176
 1763 Fit       0.001201
 1764 Fit       0.001831
 1765 Fit       0.002875
 1766 Fit       0.002529
 1767 Fit       0.002284
 1768 Fit       0.000980
 1769 Fit      -0.000329
 1770 Fit      -0.000299
 1771 Fit      -0.000499
 1772 Fit      -0.000505
 1773 Fit       0.000394
 1774 Fit      -0.000038
 1775 Fit       0.001513
 1776 Fit       0.001276
 1777 Fit       0.002188
 1778 Fit       0.000843
 1779 Fit       0.002277
 1780 Fit       0.000764
 1781 Fit       0.002430
 1782 Fit       0.000862
 1783 Fit       0.002126
 1784 Fit       0.002375
 1785 Fit       0.000986
 1786 Fit       0.002382
 1787 Fit       0.001484
 1788 Fit       0.002277
 1789 Fit       0.004365
 1790 Fit       0.002425
 1791 Fit       0.003111
 1792 Fit       0.003941
 1793 Fit       0.000609
 1794 Fit       0.001403
 1795 Fit       0.002332
 1796 Fit      -0.007948
 1797 Fit      -0.000110
 1798 Fit      -0.000387
 1799 Fit       0.002619
 1800 Fit       0.002436
 1801 Fit       0.002537
 1802 Fit       0.002067
 1803 Fit       0.001349
 1804 Fit       0.002353
 1805 Fit       0.001755
 1806 Fit       0.001141
 1807 Fit       0.000453
 1808 Fit       0.000578
 1809 Fit       0.000294
 1810 Fit       0.001868
 1811 Fit       0.003057
 1812 Fit       0.003246
 1813 Fit       0.003356
 1814 Fit       0.000894
 1815 Fit       0.001695
 1816 Fit       0.001630
 1817 Fit       0.000697
 1818 Fit      -0.000606
 1819 Fit       0.001220
 1820 Fit      -0.001027
 1821 Fit      -0.004793
 1822 Fit      -0.004870
 1823 Fit      -0.002124
 1824 Fit       0.001090
 1825 Fit      -0.002440
 1826 Fit      -0.003689
 1827 Fit      -0.007286
 1828 Fit      -0.003592
 1829 Fit       0.005339
 1830 Fit       0.004336
 1831 Fit       0.002611
 1832 Fit       0.004671
 1833 Fit       0.006494
 1834 Fit       0.005455
 1835 Fit       0.002796
 1836 Fit       0.003244
 1837 Fit       0.005737
 1838 Fit       0.008200
 1839 Fit       0.006927
 1840 Fit       0.003273
 1841 Fit       0.003543
 1842 Fit       0.007028
 1843 Fit       0.000931
 1844 Fit      -0.000189
 1845 Fit      -0.005627
 1846 Fit      -0.001276
 1847 Fit      -0.001711
 1848 Fit      -0.001747
 1849 Fit      -0.001827
 1850 Fit      -0.001744
 1851 Fit       0.002260
 1852 Fit       0.000491
 1853 Fit       0.002820
 1854 Fit       0.002595
 1855 Fit       0.001609
 1856 Fit      -0.000076
 1857 Fit       0.002230
 1858 Fit       0.001206
 1859 Fit      -0.000407
 1860 Fit       0.000188
 1861 Fit      -0.001279
 1862 Fit      -0.002007
 1863 Fit      -0.001412
 1864 Fit      -0.000727
 1865 Fit      -0.001591
 1866 Fit      -0.001018
 1867 Fit      -0.000689
 1868 Fit      -0.001675
 1869 Fit      -0.002776
 1870 Fit       0.002858
 1871 Fit       0.001317
 1872 Fit       0.002130
 1873 Fit       0.001441
 1874 Fit       0.001086
 1875 Fit       0.000179
 1876 Fit      -0.002129
 1877 Fit      -0.000896
 1878 Fit      -0.001453
 1879 Fit      -0.004908
 1880 Fit      -0.001028
 1881 Fit       0.001030
 1882 Fit       0.010209
 1883 Fit       0.010508
 1884 Fit       0.008301
 1885 Fit       0.004130
 1886 Fit       0.007864
 1887 Fit       0.014157
 1888 Fit       0.016572
 1889 Fit       0.004945
 1890 Fit       0.009892
 1891 Fit      -0.005027
 1892 Fit      -0.001088
 1893 Fit      -0.001353
 1894 Fit      -0.000874
 1895 Fit      -0.000344
 1896 Fit      -0.001155
 1897 Fit      -0.000897
 1898 Fit      -0.003625
 1899 Fit      -0.004663
 1900 Fit      -0.003956
 1901 Fit      -0.012973
 1902 Fit      -0.002179
 1903 Fit      -0.002753
 1904 Fit      -0.020470
 1905 Fit      -0.001175
 1906 Fit      -0.001466
 1907 Fit      -0.001647
 1908 Fit      -0.005035
 1909 Fit      -0.004032
 1910 Fit      -0.004454
 1911 Fit      -0.007296
 1912 Fit      -0.016727
 1913 Fit      -0.008835
 1914 Fit      -0.010252
 1915 Fit      -0.020737
 1916 Fit      -0.017480
 1917 Fit      -0.000303
 1918 Fit       0.000005
 1919 Fit      -0.006773
 1920 Fit      -0.002802
 1921 Fit      -0.001215
 1922 Fit      -0.000784
 1923 Fit      -0.000887
 1924 Fit      -0.007809
 1925 Fit      -0.003795
 1926 Fit      -0.002730
 1927 Fit      -0.003372
 1928 Fit      -0.012182
 1929 Fit      -0.006831
 1930 Fit      -0.007761
 1931 Fit      -0.014012
 1932 Fit       0.000462
 1933 Fit      -0.000353
 1934 Fit      -0.000312
 1935 Fit       0.000148
 1936 Fit       0.001269
 1937 Fit       0.001168
 1938 Fit       0.002520
 1939 Fit       0.001090
 1940 Fit       0.002072
 1941 Fit       0.000099
 1942 Fit       0.002028
 1943 Fit      -0.000253
 1944 Fit       0.000745
 1945 Fit       0.001409
 1946 Fit      -0.000436
 1947 Fit       0.000545
 1948 Fit       0.001339
 1949 Fit       0.001783
 1950 Fit       0.000281
 1951 Fit       0.001006
 1952 Fit       0.001462
 1953 Fit       0.001346
 1954 Fit       0.001151
 1955 Fit      -0.009786
 1956 Fit       0.003532
 1957 Fit       0.002227
 1958 Fit       0.002075
 1959 Fit       0.012529
 1960 Fit       0.006694
 1961 Fit       0.003728
 1962 Fit       0.002469
 1963 Fit       0.002395
 1964 Fit       0.006847
 1965 Fit       0.002092
 1966 Fit       0.000373
 1967 Fit       0.000055
 1968 Fit      -0.004762
 1969 Fit      -0.005179
 1970 Fit      -0.000760
 1971 Fit      -0.001370
 1972 Fit      -0.001482
 1973 Fit      -0.000245
 1974 Fit       0.001057
 1975 Fit      -0.001843
 1976 Fit      -0.001597
 1977 Fit      -0.000885
 1978 Fit      -0.001328
 1979 Fit      -0.000975
 1980 Fit       0.002110
 1981 Fit       0.001803
 1982 Fit       0.001069
 1983 Fit      -0.000266
 1984 Fit       0.002224
 1985 Fit       0.001838
 1986 Fit       0.001054
 1987 Fit      -0.000285
 1988 Fit       0.000909
 1989 Fit       0.000625
 1990 Fit      -0.000521
 1991 Fit      -0.000726
 1992 Fit       0.000588
 1993 Fit       0.000860
 1994 Fit       0.000034
 1995 Fit      -0.001024
 1996 Fit      -0.000311
 1997 Fit      -0.000121
 1998 Fit      -0.000044
 1999 Fit       0.000344
 2000 Fit       0.000543
 2001 Fit       0.002288
 2002 Fit      -0.000055
 2003 Fit       0.001427
 2004 Fit       0.003065
 2005 Fit       0.002420
 2006 Fit       0.000289
 2007 Fit       0.000052
 2008 Fit       0.000243
 2009 Fit       0.001977
 2010 Fit       0.003301
 2011 Fit       0.003036
 2012 Fit       0.001517
 2013 Fit       0.001114
 2014 Fit       0.001854
 2015 Fit       0.002169
 2016 Fit       0.000507
 2017 Fit       0.000605
 2018 Fit       0.001366
 2019 Fit       0.001709
 2020 Fit       0.001874
 2021 Fit       0.002040
 2022 Fit      -0.000107
 2023 Fit       0.000884
 2024 Fit       0.000917
 2025 Fit       0.001211
 2026 Fit       0.001417
 2027 Fit       0.001279
 2028 Fit       0.002463
 2029 Fit       0.002792
 2030 Fit       0.001426
 2031 Fit       0.001721
 2032 Fit       0.001816
 2033 Fit       0.002229
 2034 Fit       0.002723
 2035 Fit       0.002161
 2036 Fit       0.002252
 2037 Fit       0.001421
 2038 Fit       0.000517
 2039 Fit       0.000974
 2040 Fit       0.000888
 2041 Fit       0.001560
 2042 Fit       0.001220
 2043 Fit       0.000804
 2044 Fit       0.000743
 2045 Fit       0.000736
 2046 Fit       0.001867
 2047 Fit       0.001973
 2048 Fit       0.001528
 2049 Fit       0.000667
 2050 Fit       0.001823
 2051 Fit       0.001334
 2052 Fit      -0.000805
 2053 Fit      -0.000328
 2054 Fit      -0.001538
 2055 Fit      -0.001544
 2056 Fit      -0.001790
 2057 Fit      -0.001539
 2058 Fit      -0.001878
 2059 Fit      -0.001088
 2060 Fit       0.001881
 2061 Fit       0.000251
 2062 Fit      -0.000183
 2063 Fit      -0.000741
 2064 Fit       0.001539
 2065 Fit       0.000872
 2066 Fit       0.000276
 2067 Fit      -0.000632
 2068 Fit       0.000956
 2069 Fit       0.002439
 2070 Fit       0.000530
 2071 Fit       0.002040
 2072 Fit       0.000687
 2073 Fit       0.002659
 2074 Fit       0.002419
 2075 Fit       0.001068
 2076 Fit      -0.000348
 2077 Fit       0.000088
 2078 Fit       0.001301
 2079 Fit       0.002077
 2080 Fit       0.001614
 2081 Fit       0.000470
 2082 Fit       0.002312
 2083 Fit       0.001599
 2084 Fit       0.000722
 2085 Fit      -0.000353
 2086 Fit       0.001065
 2087 Fit       0.000430
 2088 Fit      -0.000290
 2089 Fit      -0.001200
 2090 Fit      -0.001214
 2091 Fit      -0.001223
 2092 Fit      -0.001259
 2093 Fit      -0.000169
 2094 Fit       0.000248
 2095 Fit       0.000430
 2096 Fit       0.000314
 2097 Fit       0.000082
 2098 Fit       0.001820
 2099 Fit       0.001799
 2100 Fit       0.001597
 2101 Fit       0.001510
 2102 Fit       0.003377
 2103 Fit       0.002748
 2104 Fit       0.002510
 2105 Fit      -0.000380
 2106 Fit      -0.000873
 2107 Fit      -0.001255
 2108 Fit      -0.001900
 2109 Fit      -0.001684
 2110 Fit      -0.001598
 2111 Fit      -0.002095
 2112 Fit      -0.002215
 2113 Fit      -0.001850
 2114 Fit      -0.001953
 2115 Fit      -0.001553
 2116 Fit      -0.001145
 2117 Fit       0.000943
 2118 Fit       0.000776
 2119 Fit       0.000009
 2120 Fit       0.002099
 2121 Fit       0.001851
 2122 Fit       0.001085
 2123 Fit      -0.000243
 2124 Fit       0.002264
 2125 Fit       0.001413
 2126 Fit       0.000036
 2127 Fit       0.001836
 2128 Fit       0.000827
 2129 Fit      -0.000718
 2130 Fit      -0.000090
 2131 Fit       0.001738
 2132 Fit       0.000651
 2133 Fit       0.000686
 2134 Fit       0.001581
 2135 Fit       0.002288
 2136 Fit      -0.000468
 2137 Fit       0.000424
 2138 Fit       0.001231
 2139 Fit       0.001673
 2140 Fit       0.002129
 2141 Fit      -0.001199
 2142 Fit      -0.000428
 2143 Fit       0.000131
 2144 Fit       0.000313
 2145 Fit       0.000197
 2146 Fit      -0.001560
 2147 Fit      -0.001416
 2148 Fit      -0.001481
 2149 Fit      -0.001359
 2150 Fit      -0.001721
 2151 Fit      -0.000754
 2152 Fit       0.000022
 2153 Fit       0.000598
 2154 Fit      -0.000976
 2155 Fit       0.000129
 2156 Fit       0.001127
 2157 Fit       0.001939
 2158 Fit       0.003031
 2159 Fit      -0.000477
 2160 Fit       0.000519
 2161 Fit       0.001727
 2162 Fit       0.002521
 2163 Fit       0.001135
 -----------------------------------------------------------------
 Leave Link  602 at Tue Mar 21 12:02:22 2017, MaxMem=    33554432 cpu:         3.5
 (Enter /home/michal/g09/l9999.exe)

 Test job not archived.
 1\1\GINC-LINUX\SP\RHF\6-31G(d)\C27H46O1\MICHAL\21-Mar-2017\0\\#P HF/6-
 31G* SCF(Conver=6) NoSymm Test Pop=mk IOp(6/33=2) GFInput GFPrint\\MEP
  - Input generated by R.E.D.-III.x MOLECULE\\0,1\O,0,4.99927235,-0.243
 06342,-7.25366113\H,0,5.95077722,-0.32702802,-7.10692971\C,0,0.,0.,0.\
 C,0,1.554526,0.,0.\H,0,1.84179241,1.06588796,0.\C,0,2.21431769,-0.6061
 3009,-1.24576357\H,0,1.95009094,-1.67105453,-1.31311542\C,0,1.70990731
 ,0.12405303,-2.51783346\H,0,2.11222151,1.14838455,-2.44831345\C,0,-0.2
 736248,0.65263525,1.3997122\H,0,-0.04561327,1.72468253,1.28675645\C,0,
 -0.43612416,0.81386171,-1.23604133\H,0,-0.11129764,1.85597324,-1.10217
 945\H,0,-1.52536102,0.83941895,-1.34162077\C,0,2.30685761,-0.47783367,
 -3.83848794\C,0,1.93325688,-0.54972976,1.38310456\H,0,2.93676956,-0.24
 404149,1.69552854\H,0,1.92422318,-1.64675384,1.37940904\C,0,0.168981,0
 .25060719,-2.53856884\H,0,-0.28192756,-0.7274315,-2.73753923\H,0,-0.13
 681256,0.89646426,-3.36943043\C,0,0.82898781,0.0175472,2.3169852\H,0,0
 .3976484,-0.77369031,2.94154014\H,0,1.24284227,0.7604847,3.00518165\C,
 0,3.74600372,-0.50678267,-1.15925923\H,0,4.13065388,-1.2333733,-0.4312
 0038\H,0,4.02800378,0.48187814,-0.76019312\C,0,-1.6881966,0.55762149,2
 .02671909\H,0,-1.89300335,-0.50782277,2.20833612\C,0,-0.58912337,-1.42
 891361,-0.04989519\H,0,-1.68189665,-1.39528508,-0.10893061\H,0,-0.2370
 9862,-1.99283913,-0.91712439\H,0,-0.32989858,-2.01075082,0.8398493\C,0
 ,3.81284047,-0.72642989,-3.67377767\C,0,2.10872234,0.55617561,-4.99051
 954\H,0,2.43169745,1.54123489,-4.6257625\H,0,1.04152946,0.64507047,-5.
 2211261\C,0,4.42726721,-0.71697794,-2.48165932\H,0,5.5057182,-0.876457
 89,-2.45034249\C,0,1.61893804,-1.81605828,-4.21981874\H,0,0.57894633,-
 1.65903101,-4.52278339\H,0,2.12641656,-2.30422964,-5.0555141\H,0,1.629
 81353,-2.51894231,-3.3810212\C,0,4.60108681,-0.98863275,-4.94367026\H,
 0,5.66980971,-1.05797195,-4.70303241\H,0,4.31431792,-1.95170482,-5.389
 2364\C,0,2.87438243,0.2396391,-6.28350237\H,0,2.509908,-0.68723374,-6.
 74373689\H,0,2.71571105,1.03776246,-7.01759688\C,0,-1.73606899,1.28281
 373,3.40686391\H,0,-0.7194305,1.50038861,3.75017259\H,0,-2.21989486,2.
 26186847,3.27953716\C,0,4.36545087,0.08879974,-6.01204881\H,0,4.760811
 07,1.05001462,-5.64392698\C,0,-2.7998875,1.10256023,1.11061661\H,0,-2.
 57208295,2.12664303,0.78971327\H,0,-3.75853385,1.13068196,1.63711449\H
 ,0,-2.93905439,0.49475136,0.21302803\C,0,-2.4441327,0.51122581,4.53766
 236\H,0,-1.92750174,-0.44742535,4.67863576\H,0,-2.3067794,1.07103744,5
 .47418277\C,0,-3.94753559,0.2680009,4.33557859\H,0,-4.11208564,-0.3721
 67,3.45690981\H,0,-4.42970381,1.22985998,4.10867466\C,0,-4.67185798,-0
 .36430592,5.54241632\H,0,-4.46486398,0.26621568,6.42111434\C,0,-4.1718
 1543,-1.78445842,5.85359043\H,0,-3.10487263,-1.80318678,6.09706424\H,0
 ,-4.71198915,-2.21099433,6.7064804\H,0,-4.33125094,-2.44900853,4.99428
 204\C,0,-6.19227634,-0.36818072,5.31732469\H,0,-6.57269629,0.64385722,
 5.13724221\H,0,-6.72217351,-0.7766344,6.18541864\H,0,-6.4570323,-0.983
 30293,4.44763371\\Version=EM64L-G09RevD.01\HF=-1124.075778\RMSD=4.595e
 -07\Dipole=0.2111148,0.1047332,0.6809732\Quadrupole=9.4110928,2.904563
 4,-12.3156562,0.2903603,2.727815,-0.541197\PG=C01 [X(C27H46O1)]\\@


      HUMANKIND PERIODICALLY GOES THROUGH A SPEEDUP OF ITS AFFAIRS, 
      THEREBY EXPERIENCING THE RACE BETWEEN THE RENEWABLE VITALITY
      OF THE LIVING, AND THE BECKONING VITIATION OF DECADENCE.
      IN THIS PERIODIC RACE, ANY PAUSE BECOMES A LUXURY.
      ONLY THEN CAN ONE REFLECT THAT ALL IS PERMITTED;
      ALL IS POSSIBLE.

                              -- THE APOCRYPHA OF MUAD'DIB
                                 CHILDREN OF DUNE, BY FRANK HERBERT
 Job cpu time:       0 days  0 hours 10 minutes 17.8 seconds.
 File lengths (MBytes):  RWF=    142 Int=      0 D2E=      0 Chk=     10 Scr=      1
 Normal termination of Gaussian 09 at Tue Mar 21 12:02:22 2017.
