 Entering Gaussian System, Link 0=/home/michal/g09/g09
 Input=JOB2-gau_m1-25-3.com
 Output=JOB2-gau_m1-25-3.log
 Initial command:
 /home/michal/g09/l1.exe "/home/michal/gauss_scratch/Gau-24377.inp" -scrdir="/home/michal/gauss_scratch/"
 Entering Link 1 = /home/michal/g09/l1.exe PID=     24378.
  
 Copyright (c) 1988,1990,1992,1993,1995,1998,2003,2009,2013,
            Gaussian, Inc.  All Rights Reserved.
  
 This is part of the Gaussian(R) 09 program.  It is based on
 the Gaussian(R) 03 system (copyright 2003, Gaussian, Inc.),
 the Gaussian(R) 98 system (copyright 1998, Gaussian, Inc.),
 the Gaussian(R) 94 system (copyright 1995, Gaussian, Inc.),
 the Gaussian 92(TM) system (copyright 1992, Gaussian, Inc.),
 the Gaussian 90(TM) system (copyright 1990, Gaussian, Inc.),
 the Gaussian 88(TM) system (copyright 1988, Gaussian, Inc.),
 the Gaussian 86(TM) system (copyright 1986, Carnegie Mellon
 University), and the Gaussian 82(TM) system (copyright 1983,
 Carnegie Mellon University). Gaussian is a federally registered
 trademark of Gaussian, Inc.
  
 This software contains proprietary and confidential information,
 including trade secrets, belonging to Gaussian, Inc.
  
 This software is provided under written license and may be
 used, copied, transmitted, or stored only in accord with that
 written license.
  
 The following legend is applicable only to US Government
 contracts under FAR:
  
                    RESTRICTED RIGHTS LEGEND
  
 Use, reproduction and disclosure by the US Government is
 subject to restrictions as set forth in subparagraphs (a)
 and (c) of the Commercial Computer Software - Restricted
 Rights clause in FAR 52.227-19.
  
 Gaussian, Inc.
 340 Quinnipiac St., Bldg. 40, Wallingford CT 06492
  
  
 ---------------------------------------------------------------
 Warning -- This program may not be used in any manner that
 competes with the business of Gaussian, Inc. or will provide
 assistance to any competitor of Gaussian, Inc.  The licensee
 of this program is prohibited from giving any competitor of
 Gaussian, Inc. access to this program.  By using this program,
 the user acknowledges that Gaussian, Inc. is engaged in the
 business of creating and licensing software in the field of
 computational chemistry and represents and warrants to the
 licensee that it is not a competitor of Gaussian, Inc. and that
 it will not use this program in any manner prohibited above.
 ---------------------------------------------------------------
  

 Cite this work as:
 Gaussian 09, Revision D.01,
 M. J. Frisch, G. W. Trucks, H. B. Schlegel, G. E. Scuseria, 
 M. A. Robb, J. R. Cheeseman, G. Scalmani, V. Barone, B. Mennucci, 
 G. A. Petersson, H. Nakatsuji, M. Caricato, X. Li, H. P. Hratchian, 
 A. F. Izmaylov, J. Bloino, G. Zheng, J. L. Sonnenberg, M. Hada, 
 M. Ehara, K. Toyota, R. Fukuda, J. Hasegawa, M. Ishida, T. Nakajima, 
 Y. Honda, O. Kitao, H. Nakai, T. Vreven, J. A. Montgomery, Jr., 
 J. E. Peralta, F. Ogliaro, M. Bearpark, J. J. Heyd, E. Brothers, 
 K. N. Kudin, V. N. Staroverov, T. Keith, R. Kobayashi, J. Normand, 
 K. Raghavachari, A. Rendell, J. C. Burant, S. S. Iyengar, J. Tomasi, 
 M. Cossi, N. Rega, J. M. Millam, M. Klene, J. E. Knox, J. B. Cross, 
 V. Bakken, C. Adamo, J. Jaramillo, R. Gomperts, R. E. Stratmann, 
 O. Yazyev, A. J. Austin, R. Cammi, C. Pomelli, J. W. Ochterski, 
 R. L. Martin, K. Morokuma, V. G. Zakrzewski, G. A. Voth, 
 P. Salvador, J. J. Dannenberg, S. Dapprich, A. D. Daniels, 
 O. Farkas, J. B. Foresman, J. V. Ortiz, J. Cioslowski, 
 and D. J. Fox, Gaussian, Inc., Wallingford CT, 2013.
 
 ******************************************
 Gaussian 09:  EM64L-G09RevD.01 24-Apr-2013
                21-Mar-2017 
 ******************************************
 %Mem=256MB
 %NProc=12
 Will use up to   12 processors via shared memory.
 ----------------------------------------------------------------------
 #P HF/6-31G* SCF(Conver=6) NoSymm Test Pop=mk IOp(6/33=2) GFInput GFPr
 int
 ----------------------------------------------------------------------
 1/38=1/1;
 2/12=2,15=1,17=6,18=5,40=1/2;
 3/5=1,6=6,7=1,11=9,16=1,24=110,25=1,30=1/1,2,3;
 4//1;
 5/5=2,6=6,38=5/2;
 6/7=2,8=2,9=2,10=2,15=8,20=1,28=1,33=2/1,2;
 99/5=1,9=1/99;
 Leave Link    1 at Tue Mar 21 13:14:55 2017, MaxMem=    33554432 cpu:         0.6
 (Enter /home/michal/g09/l101.exe)
 ----------------------------------------------
 MEP - Input generated by R.E.D.-III.x MOLECULE
 ----------------------------------------------
 Symbolic Z-matrix:
 Charge =  0 Multiplicity = 1
 O                    -3.73552  -3.6148   -4.11845 
 H                    -3.88636  -4.45528  -3.66593 
 C                     1.60089   2.06396   0. 
 C                     1.32713   0.60811   0.47231 
 H                     2.11812   0.        0. 
 C                     0.        0.        0. 
 H                    -0.83327   0.57949   0.42217 
 C                    -0.08001   0.0476   -1.54818 
 H                     0.69822  -0.64764  -1.90444 
 C                     2.98549   2.31972   0.69263 
 H                     3.72558   1.7447    0.11335 
 C                     1.59757   2.02625  -1.54262 
 H                     2.44353   1.40993  -1.88007 
 H                     1.74682   3.02076  -1.97466 
 C                    -1.43649  -0.51371  -2.10266 
 C                     1.63904   0.63014   1.9757 
 H                     1.89315  -0.36065   2.36541 
 H                     0.77018   0.98051   2.54663 
 C                     0.28234   1.44492  -2.10201 
 H                    -0.52791   2.15046  -1.88942 
 H                     0.36178   1.39967  -3.1941 
 C                     2.82381   1.62794   2.09008 
 H                     2.62931   2.37764   2.86644 
 H                     3.74527   1.11518   2.38165 
 C                    -0.14336  -1.45151   0.48562 
 H                    -0.35778  -1.46974   1.56247 
 H                     0.82138  -1.97366   0.37233 
 C                     3.53499   3.76568   0.80611 
 H                     2.84039   4.34037   1.43799 
 C                     0.54614   3.06451   0.52617 
 H                     0.73705   4.0692    0.13482 
 H                    -0.46984   2.79147   0.23055 
 H                     0.55656   3.13439   1.61817 
 C                    -1.80501  -1.81718  -1.38019 
 C                    -1.25949  -0.83328  -3.61995 
 H                    -0.32495  -1.39801  -3.74417 
 H                    -1.13391   0.10147  -4.17714 
 C                    -1.20742  -2.21743  -0.24817 
 H                    -1.50747  -3.16981   0.19047 
 C                    -2.59483   0.50325  -1.91919 
 H                    -2.46354   1.37957  -2.56176 
 H                    -3.56129   0.06111  -2.17359 
 H                    -2.65987   0.84504  -0.88155 
 C                    -2.8979   -2.6587   -2.01263 
 H                    -3.00261  -3.59966  -1.45721 
 H                    -3.86874  -2.14669  -1.95282 
 C                    -2.40447  -1.6399   -4.2497 
 H                    -3.34144  -1.06912  -4.24487 
 H                    -2.17574  -1.85824  -5.29902 
 C                     4.90679   3.76127   1.52636 
 H                     4.83001   3.16947   2.44612 
 H                     5.63216   3.23706   0.88724 
 C                    -2.63144  -2.94472  -3.49759 
 H                    -1.72723  -3.56967  -3.58485 
 C                     3.64539   4.48312  -0.5507 
 H                     4.27145   3.91082  -1.24706 
 H                     4.09447   5.47442  -0.43891 
 H                     2.67071   4.62738  -1.0216 
 C                     5.44923   5.14896   1.9093 
 H                     5.6983    5.72679   1.01196 
 H                     4.6503    5.70996   2.41485 
 C                     6.66876   5.11009   2.8489 
 H                     6.37884   4.59551   3.77651 
 H                     6.92132   6.14053   3.14018 
 C                     7.94563   4.43889   2.29938 
 H                     7.69832   3.40386   2.02302 
 C                     9.02503   4.37807   3.39207 
 H                     8.6662    3.8431    4.27893 
 H                     9.92623   3.86737   3.03392 
 H                     9.31857   5.38737   3.70837 
 C                     8.48698   5.14499   1.04615 
 H                     7.76714   5.13292   0.22133 
 H                     9.40364   4.66127   0.68993 
 H                     8.72797   6.19377   1.26368 
 
 NAtoms=     74 NQM=       74 NQMF=       0 NMMI=      0 NMMIF=      0
                NMic=       0 NMicF=      0.
                    Isotopes and Nuclear Properties:
 (Nuclear quadrupole moments (NQMom) in fm**2, nuclear magnetic moments (NMagM)
  in nuclear magnetons)

  Atom         1           2           3           4           5           6           7           8           9          10
 IAtWgt=          16           1          12          12           1          12           1          12           1          12
 AtmWgt=  15.9949146   1.0078250  12.0000000  12.0000000   1.0078250  12.0000000   1.0078250  12.0000000   1.0078250  12.0000000
 NucSpn=           0           1           0           0           1           0           1           0           1           0
 AtZEff=   0.0000000   0.0000000   0.0000000   0.0000000   0.0000000   0.0000000   0.0000000   0.0000000   0.0000000   0.0000000
 NQMom=    0.0000000   0.0000000   0.0000000   0.0000000   0.0000000   0.0000000   0.0000000   0.0000000   0.0000000   0.0000000
 NMagM=    0.0000000   2.7928460   0.0000000   0.0000000   2.7928460   0.0000000   2.7928460   0.0000000   2.7928460   0.0000000
 AtZNuc=   8.0000000   1.0000000   6.0000000   6.0000000   1.0000000   6.0000000   1.0000000   6.0000000   1.0000000   6.0000000

  Atom        11          12          13          14          15          16          17          18          19          20
 IAtWgt=           1          12           1           1          12          12           1           1          12           1
 AtmWgt=   1.0078250  12.0000000   1.0078250   1.0078250  12.0000000  12.0000000   1.0078250   1.0078250  12.0000000   1.0078250
 NucSpn=           1           0           1           1           0           0           1           1           0           1
 AtZEff=   0.0000000   0.0000000   0.0000000   0.0000000   0.0000000   0.0000000   0.0000000   0.0000000   0.0000000   0.0000000
 NQMom=    0.0000000   0.0000000   0.0000000   0.0000000   0.0000000   0.0000000   0.0000000   0.0000000   0.0000000   0.0000000
 NMagM=    2.7928460   0.0000000   2.7928460   2.7928460   0.0000000   0.0000000   2.7928460   2.7928460   0.0000000   2.7928460
 AtZNuc=   1.0000000   6.0000000   1.0000000   1.0000000   6.0000000   6.0000000   1.0000000   1.0000000   6.0000000   1.0000000

  Atom        21          22          23          24          25          26          27          28          29          30
 IAtWgt=           1          12           1           1          12           1           1          12           1          12
 AtmWgt=   1.0078250  12.0000000   1.0078250   1.0078250  12.0000000   1.0078250   1.0078250  12.0000000   1.0078250  12.0000000
 NucSpn=           1           0           1           1           0           1           1           0           1           0
 AtZEff=   0.0000000   0.0000000   0.0000000   0.0000000   0.0000000   0.0000000   0.0000000   0.0000000   0.0000000   0.0000000
 NQMom=    0.0000000   0.0000000   0.0000000   0.0000000   0.0000000   0.0000000   0.0000000   0.0000000   0.0000000   0.0000000
 NMagM=    2.7928460   0.0000000   2.7928460   2.7928460   0.0000000   2.7928460   2.7928460   0.0000000   2.7928460   0.0000000
 AtZNuc=   1.0000000   6.0000000   1.0000000   1.0000000   6.0000000   1.0000000   1.0000000   6.0000000   1.0000000   6.0000000

  Atom        31          32          33          34          35          36          37          38          39          40
 IAtWgt=           1           1           1          12          12           1           1          12           1          12
 AtmWgt=   1.0078250   1.0078250   1.0078250  12.0000000  12.0000000   1.0078250   1.0078250  12.0000000   1.0078250  12.0000000
 NucSpn=           1           1           1           0           0           1           1           0           1           0
 AtZEff=   0.0000000   0.0000000   0.0000000   0.0000000   0.0000000   0.0000000   0.0000000   0.0000000   0.0000000   0.0000000
 NQMom=    0.0000000   0.0000000   0.0000000   0.0000000   0.0000000   0.0000000   0.0000000   0.0000000   0.0000000   0.0000000
 NMagM=    2.7928460   2.7928460   2.7928460   0.0000000   0.0000000   2.7928460   2.7928460   0.0000000   2.7928460   0.0000000
 AtZNuc=   1.0000000   1.0000000   1.0000000   6.0000000   6.0000000   1.0000000   1.0000000   6.0000000   1.0000000   6.0000000

  Atom        41          42          43          44          45          46          47          48          49          50
 IAtWgt=           1           1           1          12           1           1          12           1           1          12
 AtmWgt=   1.0078250   1.0078250   1.0078250  12.0000000   1.0078250   1.0078250  12.0000000   1.0078250   1.0078250  12.0000000
 NucSpn=           1           1           1           0           1           1           0           1           1           0
 AtZEff=   0.0000000   0.0000000   0.0000000   0.0000000   0.0000000   0.0000000   0.0000000   0.0000000   0.0000000   0.0000000
 NQMom=    0.0000000   0.0000000   0.0000000   0.0000000   0.0000000   0.0000000   0.0000000   0.0000000   0.0000000   0.0000000
 NMagM=    2.7928460   2.7928460   2.7928460   0.0000000   2.7928460   2.7928460   0.0000000   2.7928460   2.7928460   0.0000000
 AtZNuc=   1.0000000   1.0000000   1.0000000   6.0000000   1.0000000   1.0000000   6.0000000   1.0000000   1.0000000   6.0000000

  Atom        51          52          53          54          55          56          57          58          59          60
 IAtWgt=           1           1          12           1          12           1           1           1          12           1
 AtmWgt=   1.0078250   1.0078250  12.0000000   1.0078250  12.0000000   1.0078250   1.0078250   1.0078250  12.0000000   1.0078250
 NucSpn=           1           1           0           1           0           1           1           1           0           1
 AtZEff=   0.0000000   0.0000000   0.0000000   0.0000000   0.0000000   0.0000000   0.0000000   0.0000000   0.0000000   0.0000000
 NQMom=    0.0000000   0.0000000   0.0000000   0.0000000   0.0000000   0.0000000   0.0000000   0.0000000   0.0000000   0.0000000
 NMagM=    2.7928460   2.7928460   0.0000000   2.7928460   0.0000000   2.7928460   2.7928460   2.7928460   0.0000000   2.7928460
 AtZNuc=   1.0000000   1.0000000   6.0000000   1.0000000   6.0000000   1.0000000   1.0000000   1.0000000   6.0000000   1.0000000

  Atom        61          62          63          64          65          66          67          68          69          70
 IAtWgt=           1          12           1           1          12           1          12           1           1           1
 AtmWgt=   1.0078250  12.0000000   1.0078250   1.0078250  12.0000000   1.0078250  12.0000000   1.0078250   1.0078250   1.0078250
 NucSpn=           1           0           1           1           0           1           0           1           1           1
 AtZEff=   0.0000000   0.0000000   0.0000000   0.0000000   0.0000000   0.0000000   0.0000000   0.0000000   0.0000000   0.0000000
 NQMom=    0.0000000   0.0000000   0.0000000   0.0000000   0.0000000   0.0000000   0.0000000   0.0000000   0.0000000   0.0000000
 NMagM=    2.7928460   0.0000000   2.7928460   2.7928460   0.0000000   2.7928460   0.0000000   2.7928460   2.7928460   2.7928460
 AtZNuc=   1.0000000   6.0000000   1.0000000   1.0000000   6.0000000   1.0000000   6.0000000   1.0000000   1.0000000   1.0000000

  Atom        71          72          73          74
 IAtWgt=          12           1           1           1
 AtmWgt=  12.0000000   1.0078250   1.0078250   1.0078250
 NucSpn=           0           1           1           1
 AtZEff=   0.0000000   0.0000000   0.0000000   0.0000000
 NQMom=    0.0000000   0.0000000   0.0000000   0.0000000
 NMagM=    0.0000000   2.7928460   2.7928460   2.7928460
 AtZNuc=   6.0000000   1.0000000   1.0000000   1.0000000
 Leave Link  101 at Tue Mar 21 13:14:55 2017, MaxMem=    33554432 cpu:         1.0
 (Enter /home/michal/g09/l202.exe)
 Symmetry turned off by external request.
 Stoichiometry    C27H46O
 Framework group  C1[X(C27H46O)]
 Deg. of freedom   216
 Full point group                 C1      NOp   1
                          Input orientation:                          
 ---------------------------------------------------------------------
 Center     Atomic      Atomic             Coordinates (Angstroms)
 Number     Number       Type             X           Y           Z
 ---------------------------------------------------------------------
      1          8           0       -3.735517   -3.614795   -4.118449
      2          1           0       -3.886365   -4.455282   -3.665928
      3          6           0        1.600892    2.063964    0.000000
      4          6           0        1.327127    0.608107    0.472313
      5          1           0        2.118123    0.000000    0.000000
      6          6           0        0.000000    0.000000    0.000000
      7          1           0       -0.833269    0.579492    0.422167
      8          6           0       -0.080011    0.047605   -1.548182
      9          1           0        0.698220   -0.647640   -1.904437
     10          6           0        2.985489    2.319717    0.692630
     11          1           0        3.725580    1.744698    0.113352
     12          6           0        1.597572    2.026248   -1.542622
     13          1           0        2.443533    1.409934   -1.880070
     14          1           0        1.746824    3.020764   -1.974664
     15          6           0       -1.436491   -0.513713   -2.102660
     16          6           0        1.639045    0.630136    1.975704
     17          1           0        1.893147   -0.360655    2.365412
     18          1           0        0.770184    0.980509    2.546627
     19          6           0        0.282341    1.444918   -2.102011
     20          1           0       -0.527908    2.150461   -1.889417
     21          1           0        0.361775    1.399669   -3.194096
     22          6           0        2.823813    1.627938    2.090077
     23          1           0        2.629305    2.377635    2.866437
     24          1           0        3.745266    1.115176    2.381650
     25          6           0       -0.143363   -1.451510    0.485619
     26          1           0       -0.357777   -1.469743    1.562472
     27          1           0        0.821378   -1.973658    0.372326
     28          6           0        3.534992    3.765680    0.806111
     29          1           0        2.840394    4.340372    1.437985
     30          6           0        0.546137    3.064512    0.526174
     31          1           0        0.737048    4.069197    0.134822
     32          1           0       -0.469838    2.791475    0.230546
     33          1           0        0.556556    3.134392    1.618166
     34          6           0       -1.805010   -1.817181   -1.380191
     35          6           0       -1.259489   -0.833276   -3.619947
     36          1           0       -0.324953   -1.398006   -3.744174
     37          1           0       -1.133910    0.101467   -4.177135
     38          6           0       -1.207423   -2.217425   -0.248168
     39          1           0       -1.507468   -3.169814    0.190467
     40          6           0       -2.594833    0.503251   -1.919193
     41          1           0       -2.463537    1.379570   -2.561761
     42          1           0       -3.561288    0.061112   -2.173592
     43          1           0       -2.659870    0.845035   -0.881552
     44          6           0       -2.897895   -2.658697   -2.012635
     45          1           0       -3.002609   -3.599662   -1.457213
     46          1           0       -3.868736   -2.146692   -1.952824
     47          6           0       -2.404469   -1.639903   -4.249697
     48          1           0       -3.341443   -1.069118   -4.244866
     49          1           0       -2.175738   -1.858239   -5.299025
     50          6           0        4.906793    3.761266    1.526362
     51          1           0        4.830012    3.169467    2.446116
     52          1           0        5.632163    3.237064    0.887235
     53          6           0       -2.631440   -2.944721   -3.497591
     54          1           0       -1.727231   -3.569671   -3.584853
     55          6           0        3.645393    4.483115   -0.550704
     56          1           0        4.271448    3.910823   -1.247061
     57          1           0        4.094468    5.474419   -0.438912
     58          1           0        2.670713    4.627379   -1.021595
     59          6           0        5.449232    5.148962    1.909304
     60          1           0        5.698301    5.726790    1.011964
     61          1           0        4.650299    5.709959    2.414854
     62          6           0        6.668761    5.110091    2.848898
     63          1           0        6.378843    4.595506    3.776507
     64          1           0        6.921322    6.140525    3.140183
     65          6           0        7.945632    4.438885    2.299380
     66          1           0        7.698324    3.403858    2.023019
     67          6           0        9.025029    4.378072    3.392073
     68          1           0        8.666202    3.843096    4.278933
     69          1           0        9.926232    3.867365    3.033916
     70          1           0        9.318570    5.387374    3.708373
     71          6           0        8.486981    5.144989    1.046152
     72          1           0        7.767135    5.132923    0.221326
     73          1           0        9.403644    4.661268    0.689928
     74          1           0        8.727970    6.193766    1.263679
 ---------------------------------------------------------------------
 Rotational constants (GHZ):      0.5373453      0.0549481      0.0534128
 Leave Link  202 at Tue Mar 21 13:14:55 2017, MaxMem=    33554432 cpu:         0.0
 (Enter /home/michal/g09/l301.exe)
 Standard basis: 6-31G(d) (6D, 7F)
 Ernie: Thresh=  0.10000D-02 Tol=  0.10000D-05 Strict=F.
 AO basis set in the form of general basis input (Overlap normalization):
      1 0
 S   6 1.00       0.000000000000
      0.5484671660D+04  0.1831074430D-02
      0.8252349460D+03  0.1395017220D-01
      0.1880469580D+03  0.6844507810D-01
      0.5296450000D+02  0.2327143360D+00
      0.1689757040D+02  0.4701928980D+00
      0.5799635340D+01  0.3585208530D+00
 SP   3 1.00       0.000000000000
      0.1553961625D+02 -0.1107775495D+00  0.7087426823D-01
      0.3599933586D+01 -0.1480262627D+00  0.3397528391D+00
      0.1013761750D+01  0.1130767015D+01  0.7271585773D+00
 SP   1 1.00       0.000000000000
      0.2700058226D+00  0.1000000000D+01  0.1000000000D+01
 D   1 1.00       0.000000000000
      0.8000000000D+00  0.1000000000D+01
 ****
      2 0
 S   3 1.00       0.000000000000
      0.1873113696D+02  0.3349460434D-01
      0.2825394365D+01  0.2347269535D+00
      0.6401216923D+00  0.8137573261D+00
 S   1 1.00       0.000000000000
      0.1612777588D+00  0.1000000000D+01
 ****
      3 0
 S   6 1.00       0.000000000000
      0.3047524880D+04  0.1834737132D-02
      0.4573695180D+03  0.1403732281D-01
      0.1039486850D+03  0.6884262226D-01
      0.2921015530D+02  0.2321844432D+00
      0.9286662960D+01  0.4679413484D+00
      0.3163926960D+01  0.3623119853D+00
 SP   3 1.00       0.000000000000
      0.7868272350D+01 -0.1193324198D+00  0.6899906659D-01
      0.1881288540D+01 -0.1608541517D+00  0.3164239610D+00
      0.5442492580D+00  0.1143456438D+01  0.7443082909D+00
 SP   1 1.00       0.000000000000
      0.1687144782D+00  0.1000000000D+01  0.1000000000D+01
 D   1 1.00       0.000000000000
      0.8000000000D+00  0.1000000000D+01
 ****
      4 0
 S   6 1.00       0.000000000000
      0.3047524880D+04  0.1834737132D-02
      0.4573695180D+03  0.1403732281D-01
      0.1039486850D+03  0.6884262226D-01
      0.2921015530D+02  0.2321844432D+00
      0.9286662960D+01  0.4679413484D+00
      0.3163926960D+01  0.3623119853D+00
 SP   3 1.00       0.000000000000
      0.7868272350D+01 -0.1193324198D+00  0.6899906659D-01
      0.1881288540D+01 -0.1608541517D+00  0.3164239610D+00
      0.5442492580D+00  0.1143456438D+01  0.7443082909D+00
 SP   1 1.00       0.000000000000
      0.1687144782D+00  0.1000000000D+01  0.1000000000D+01
 D   1 1.00       0.000000000000
      0.8000000000D+00  0.1000000000D+01
 ****
      5 0
 S   3 1.00       0.000000000000
      0.1873113696D+02  0.3349460434D-01
      0.2825394365D+01  0.2347269535D+00
      0.6401216923D+00  0.8137573261D+00
 S   1 1.00       0.000000000000
      0.1612777588D+00  0.1000000000D+01
 ****
      6 0
 S   6 1.00       0.000000000000
      0.3047524880D+04  0.1834737132D-02
      0.4573695180D+03  0.1403732281D-01
      0.1039486850D+03  0.6884262226D-01
      0.2921015530D+02  0.2321844432D+00
      0.9286662960D+01  0.4679413484D+00
      0.3163926960D+01  0.3623119853D+00
 SP   3 1.00       0.000000000000
      0.7868272350D+01 -0.1193324198D+00  0.6899906659D-01
      0.1881288540D+01 -0.1608541517D+00  0.3164239610D+00
      0.5442492580D+00  0.1143456438D+01  0.7443082909D+00
 SP   1 1.00       0.000000000000
      0.1687144782D+00  0.1000000000D+01  0.1000000000D+01
 D   1 1.00       0.000000000000
      0.8000000000D+00  0.1000000000D+01
 ****
      7 0
 S   3 1.00       0.000000000000
      0.1873113696D+02  0.3349460434D-01
      0.2825394365D+01  0.2347269535D+00
      0.6401216923D+00  0.8137573261D+00
 S   1 1.00       0.000000000000
      0.1612777588D+00  0.1000000000D+01
 ****
      8 0
 S   6 1.00       0.000000000000
      0.3047524880D+04  0.1834737132D-02
      0.4573695180D+03  0.1403732281D-01
      0.1039486850D+03  0.6884262226D-01
      0.2921015530D+02  0.2321844432D+00
      0.9286662960D+01  0.4679413484D+00
      0.3163926960D+01  0.3623119853D+00
 SP   3 1.00       0.000000000000
      0.7868272350D+01 -0.1193324198D+00  0.6899906659D-01
      0.1881288540D+01 -0.1608541517D+00  0.3164239610D+00
      0.5442492580D+00  0.1143456438D+01  0.7443082909D+00
 SP   1 1.00       0.000000000000
      0.1687144782D+00  0.1000000000D+01  0.1000000000D+01
 D   1 1.00       0.000000000000
      0.8000000000D+00  0.1000000000D+01
 ****
      9 0
 S   3 1.00       0.000000000000
      0.1873113696D+02  0.3349460434D-01
      0.2825394365D+01  0.2347269535D+00
      0.6401216923D+00  0.8137573261D+00
 S   1 1.00       0.000000000000
      0.1612777588D+00  0.1000000000D+01
 ****
     10 0
 S   6 1.00       0.000000000000
      0.3047524880D+04  0.1834737132D-02
      0.4573695180D+03  0.1403732281D-01
      0.1039486850D+03  0.6884262226D-01
      0.2921015530D+02  0.2321844432D+00
      0.9286662960D+01  0.4679413484D+00
      0.3163926960D+01  0.3623119853D+00
 SP   3 1.00       0.000000000000
      0.7868272350D+01 -0.1193324198D+00  0.6899906659D-01
      0.1881288540D+01 -0.1608541517D+00  0.3164239610D+00
      0.5442492580D+00  0.1143456438D+01  0.7443082909D+00
 SP   1 1.00       0.000000000000
      0.1687144782D+00  0.1000000000D+01  0.1000000000D+01
 D   1 1.00       0.000000000000
      0.8000000000D+00  0.1000000000D+01
 ****
     11 0
 S   3 1.00       0.000000000000
      0.1873113696D+02  0.3349460434D-01
      0.2825394365D+01  0.2347269535D+00
      0.6401216923D+00  0.8137573261D+00
 S   1 1.00       0.000000000000
      0.1612777588D+00  0.1000000000D+01
 ****
     12 0
 S   6 1.00       0.000000000000
      0.3047524880D+04  0.1834737132D-02
      0.4573695180D+03  0.1403732281D-01
      0.1039486850D+03  0.6884262226D-01
      0.2921015530D+02  0.2321844432D+00
      0.9286662960D+01  0.4679413484D+00
      0.3163926960D+01  0.3623119853D+00
 SP   3 1.00       0.000000000000
      0.7868272350D+01 -0.1193324198D+00  0.6899906659D-01
      0.1881288540D+01 -0.1608541517D+00  0.3164239610D+00
      0.5442492580D+00  0.1143456438D+01  0.7443082909D+00
 SP   1 1.00       0.000000000000
      0.1687144782D+00  0.1000000000D+01  0.1000000000D+01
 D   1 1.00       0.000000000000
      0.8000000000D+00  0.1000000000D+01
 ****
     13 0
 S   3 1.00       0.000000000000
      0.1873113696D+02  0.3349460434D-01
      0.2825394365D+01  0.2347269535D+00
      0.6401216923D+00  0.8137573261D+00
 S   1 1.00       0.000000000000
      0.1612777588D+00  0.1000000000D+01
 ****
     14 0
 S   3 1.00       0.000000000000
      0.1873113696D+02  0.3349460434D-01
      0.2825394365D+01  0.2347269535D+00
      0.6401216923D+00  0.8137573261D+00
 S   1 1.00       0.000000000000
      0.1612777588D+00  0.1000000000D+01
 ****
     15 0
 S   6 1.00       0.000000000000
      0.3047524880D+04  0.1834737132D-02
      0.4573695180D+03  0.1403732281D-01
      0.1039486850D+03  0.6884262226D-01
      0.2921015530D+02  0.2321844432D+00
      0.9286662960D+01  0.4679413484D+00
      0.3163926960D+01  0.3623119853D+00
 SP   3 1.00       0.000000000000
      0.7868272350D+01 -0.1193324198D+00  0.6899906659D-01
      0.1881288540D+01 -0.1608541517D+00  0.3164239610D+00
      0.5442492580D+00  0.1143456438D+01  0.7443082909D+00
 SP   1 1.00       0.000000000000
      0.1687144782D+00  0.1000000000D+01  0.1000000000D+01
 D   1 1.00       0.000000000000
      0.8000000000D+00  0.1000000000D+01
 ****
     16 0
 S   6 1.00       0.000000000000
      0.3047524880D+04  0.1834737132D-02
      0.4573695180D+03  0.1403732281D-01
      0.1039486850D+03  0.6884262226D-01
      0.2921015530D+02  0.2321844432D+00
      0.9286662960D+01  0.4679413484D+00
      0.3163926960D+01  0.3623119853D+00
 SP   3 1.00       0.000000000000
      0.7868272350D+01 -0.1193324198D+00  0.6899906659D-01
      0.1881288540D+01 -0.1608541517D+00  0.3164239610D+00
      0.5442492580D+00  0.1143456438D+01  0.7443082909D+00
 SP   1 1.00       0.000000000000
      0.1687144782D+00  0.1000000000D+01  0.1000000000D+01
 D   1 1.00       0.000000000000
      0.8000000000D+00  0.1000000000D+01
 ****
     17 0
 S   3 1.00       0.000000000000
      0.1873113696D+02  0.3349460434D-01
      0.2825394365D+01  0.2347269535D+00
      0.6401216923D+00  0.8137573261D+00
 S   1 1.00       0.000000000000
      0.1612777588D+00  0.1000000000D+01
 ****
     18 0
 S   3 1.00       0.000000000000
      0.1873113696D+02  0.3349460434D-01
      0.2825394365D+01  0.2347269535D+00
      0.6401216923D+00  0.8137573261D+00
 S   1 1.00       0.000000000000
      0.1612777588D+00  0.1000000000D+01
 ****
     19 0
 S   6 1.00       0.000000000000
      0.3047524880D+04  0.1834737132D-02
      0.4573695180D+03  0.1403732281D-01
      0.1039486850D+03  0.6884262226D-01
      0.2921015530D+02  0.2321844432D+00
      0.9286662960D+01  0.4679413484D+00
      0.3163926960D+01  0.3623119853D+00
 SP   3 1.00       0.000000000000
      0.7868272350D+01 -0.1193324198D+00  0.6899906659D-01
      0.1881288540D+01 -0.1608541517D+00  0.3164239610D+00
      0.5442492580D+00  0.1143456438D+01  0.7443082909D+00
 SP   1 1.00       0.000000000000
      0.1687144782D+00  0.1000000000D+01  0.1000000000D+01
 D   1 1.00       0.000000000000
      0.8000000000D+00  0.1000000000D+01
 ****
     20 0
 S   3 1.00       0.000000000000
      0.1873113696D+02  0.3349460434D-01
      0.2825394365D+01  0.2347269535D+00
      0.6401216923D+00  0.8137573261D+00
 S   1 1.00       0.000000000000
      0.1612777588D+00  0.1000000000D+01
 ****
     21 0
 S   3 1.00       0.000000000000
      0.1873113696D+02  0.3349460434D-01
      0.2825394365D+01  0.2347269535D+00
      0.6401216923D+00  0.8137573261D+00
 S   1 1.00       0.000000000000
      0.1612777588D+00  0.1000000000D+01
 ****
     22 0
 S   6 1.00       0.000000000000
      0.3047524880D+04  0.1834737132D-02
      0.4573695180D+03  0.1403732281D-01
      0.1039486850D+03  0.6884262226D-01
      0.2921015530D+02  0.2321844432D+00
      0.9286662960D+01  0.4679413484D+00
      0.3163926960D+01  0.3623119853D+00
 SP   3 1.00       0.000000000000
      0.7868272350D+01 -0.1193324198D+00  0.6899906659D-01
      0.1881288540D+01 -0.1608541517D+00  0.3164239610D+00
      0.5442492580D+00  0.1143456438D+01  0.7443082909D+00
 SP   1 1.00       0.000000000000
      0.1687144782D+00  0.1000000000D+01  0.1000000000D+01
 D   1 1.00       0.000000000000
      0.8000000000D+00  0.1000000000D+01
 ****
     23 0
 S   3 1.00       0.000000000000
      0.1873113696D+02  0.3349460434D-01
      0.2825394365D+01  0.2347269535D+00
      0.6401216923D+00  0.8137573261D+00
 S   1 1.00       0.000000000000
      0.1612777588D+00  0.1000000000D+01
 ****
     24 0
 S   3 1.00       0.000000000000
      0.1873113696D+02  0.3349460434D-01
      0.2825394365D+01  0.2347269535D+00
      0.6401216923D+00  0.8137573261D+00
 S   1 1.00       0.000000000000
      0.1612777588D+00  0.1000000000D+01
 ****
     25 0
 S   6 1.00       0.000000000000
      0.3047524880D+04  0.1834737132D-02
      0.4573695180D+03  0.1403732281D-01
      0.1039486850D+03  0.6884262226D-01
      0.2921015530D+02  0.2321844432D+00
      0.9286662960D+01  0.4679413484D+00
      0.3163926960D+01  0.3623119853D+00
 SP   3 1.00       0.000000000000
      0.7868272350D+01 -0.1193324198D+00  0.6899906659D-01
      0.1881288540D+01 -0.1608541517D+00  0.3164239610D+00
      0.5442492580D+00  0.1143456438D+01  0.7443082909D+00
 SP   1 1.00       0.000000000000
      0.1687144782D+00  0.1000000000D+01  0.1000000000D+01
 D   1 1.00       0.000000000000
      0.8000000000D+00  0.1000000000D+01
 ****
     26 0
 S   3 1.00       0.000000000000
      0.1873113696D+02  0.3349460434D-01
      0.2825394365D+01  0.2347269535D+00
      0.6401216923D+00  0.8137573261D+00
 S   1 1.00       0.000000000000
      0.1612777588D+00  0.1000000000D+01
 ****
     27 0
 S   3 1.00       0.000000000000
      0.1873113696D+02  0.3349460434D-01
      0.2825394365D+01  0.2347269535D+00
      0.6401216923D+00  0.8137573261D+00
 S   1 1.00       0.000000000000
      0.1612777588D+00  0.1000000000D+01
 ****
     28 0
 S   6 1.00       0.000000000000
      0.3047524880D+04  0.1834737132D-02
      0.4573695180D+03  0.1403732281D-01
      0.1039486850D+03  0.6884262226D-01
      0.2921015530D+02  0.2321844432D+00
      0.9286662960D+01  0.4679413484D+00
      0.3163926960D+01  0.3623119853D+00
 SP   3 1.00       0.000000000000
      0.7868272350D+01 -0.1193324198D+00  0.6899906659D-01
      0.1881288540D+01 -0.1608541517D+00  0.3164239610D+00
      0.5442492580D+00  0.1143456438D+01  0.7443082909D+00
 SP   1 1.00       0.000000000000
      0.1687144782D+00  0.1000000000D+01  0.1000000000D+01
 D   1 1.00       0.000000000000
      0.8000000000D+00  0.1000000000D+01
 ****
     29 0
 S   3 1.00       0.000000000000
      0.1873113696D+02  0.3349460434D-01
      0.2825394365D+01  0.2347269535D+00
      0.6401216923D+00  0.8137573261D+00
 S   1 1.00       0.000000000000
      0.1612777588D+00  0.1000000000D+01
 ****
     30 0
 S   6 1.00       0.000000000000
      0.3047524880D+04  0.1834737132D-02
      0.4573695180D+03  0.1403732281D-01
      0.1039486850D+03  0.6884262226D-01
      0.2921015530D+02  0.2321844432D+00
      0.9286662960D+01  0.4679413484D+00
      0.3163926960D+01  0.3623119853D+00
 SP   3 1.00       0.000000000000
      0.7868272350D+01 -0.1193324198D+00  0.6899906659D-01
      0.1881288540D+01 -0.1608541517D+00  0.3164239610D+00
      0.5442492580D+00  0.1143456438D+01  0.7443082909D+00
 SP   1 1.00       0.000000000000
      0.1687144782D+00  0.1000000000D+01  0.1000000000D+01
 D   1 1.00       0.000000000000
      0.8000000000D+00  0.1000000000D+01
 ****
     31 0
 S   3 1.00       0.000000000000
      0.1873113696D+02  0.3349460434D-01
      0.2825394365D+01  0.2347269535D+00
      0.6401216923D+00  0.8137573261D+00
 S   1 1.00       0.000000000000
      0.1612777588D+00  0.1000000000D+01
 ****
     32 0
 S   3 1.00       0.000000000000
      0.1873113696D+02  0.3349460434D-01
      0.2825394365D+01  0.2347269535D+00
      0.6401216923D+00  0.8137573261D+00
 S   1 1.00       0.000000000000
      0.1612777588D+00  0.1000000000D+01
 ****
     33 0
 S   3 1.00       0.000000000000
      0.1873113696D+02  0.3349460434D-01
      0.2825394365D+01  0.2347269535D+00
      0.6401216923D+00  0.8137573261D+00
 S   1 1.00       0.000000000000
      0.1612777588D+00  0.1000000000D+01
 ****
     34 0
 S   6 1.00       0.000000000000
      0.3047524880D+04  0.1834737132D-02
      0.4573695180D+03  0.1403732281D-01
      0.1039486850D+03  0.6884262226D-01
      0.2921015530D+02  0.2321844432D+00
      0.9286662960D+01  0.4679413484D+00
      0.3163926960D+01  0.3623119853D+00
 SP   3 1.00       0.000000000000
      0.7868272350D+01 -0.1193324198D+00  0.6899906659D-01
      0.1881288540D+01 -0.1608541517D+00  0.3164239610D+00
      0.5442492580D+00  0.1143456438D+01  0.7443082909D+00
 SP   1 1.00       0.000000000000
      0.1687144782D+00  0.1000000000D+01  0.1000000000D+01
 D   1 1.00       0.000000000000
      0.8000000000D+00  0.1000000000D+01
 ****
     35 0
 S   6 1.00       0.000000000000
      0.3047524880D+04  0.1834737132D-02
      0.4573695180D+03  0.1403732281D-01
      0.1039486850D+03  0.6884262226D-01
      0.2921015530D+02  0.2321844432D+00
      0.9286662960D+01  0.4679413484D+00
      0.3163926960D+01  0.3623119853D+00
 SP   3 1.00       0.000000000000
      0.7868272350D+01 -0.1193324198D+00  0.6899906659D-01
      0.1881288540D+01 -0.1608541517D+00  0.3164239610D+00
      0.5442492580D+00  0.1143456438D+01  0.7443082909D+00
 SP   1 1.00       0.000000000000
      0.1687144782D+00  0.1000000000D+01  0.1000000000D+01
 D   1 1.00       0.000000000000
      0.8000000000D+00  0.1000000000D+01
 ****
     36 0
 S   3 1.00       0.000000000000
      0.1873113696D+02  0.3349460434D-01
      0.2825394365D+01  0.2347269535D+00
      0.6401216923D+00  0.8137573261D+00
 S   1 1.00       0.000000000000
      0.1612777588D+00  0.1000000000D+01
 ****
     37 0
 S   3 1.00       0.000000000000
      0.1873113696D+02  0.3349460434D-01
      0.2825394365D+01  0.2347269535D+00
      0.6401216923D+00  0.8137573261D+00
 S   1 1.00       0.000000000000
      0.1612777588D+00  0.1000000000D+01
 ****
     38 0
 S   6 1.00       0.000000000000
      0.3047524880D+04  0.1834737132D-02
      0.4573695180D+03  0.1403732281D-01
      0.1039486850D+03  0.6884262226D-01
      0.2921015530D+02  0.2321844432D+00
      0.9286662960D+01  0.4679413484D+00
      0.3163926960D+01  0.3623119853D+00
 SP   3 1.00       0.000000000000
      0.7868272350D+01 -0.1193324198D+00  0.6899906659D-01
      0.1881288540D+01 -0.1608541517D+00  0.3164239610D+00
      0.5442492580D+00  0.1143456438D+01  0.7443082909D+00
 SP   1 1.00       0.000000000000
      0.1687144782D+00  0.1000000000D+01  0.1000000000D+01
 D   1 1.00       0.000000000000
      0.8000000000D+00  0.1000000000D+01
 ****
     39 0
 S   3 1.00       0.000000000000
      0.1873113696D+02  0.3349460434D-01
      0.2825394365D+01  0.2347269535D+00
      0.6401216923D+00  0.8137573261D+00
 S   1 1.00       0.000000000000
      0.1612777588D+00  0.1000000000D+01
 ****
     40 0
 S   6 1.00       0.000000000000
      0.3047524880D+04  0.1834737132D-02
      0.4573695180D+03  0.1403732281D-01
      0.1039486850D+03  0.6884262226D-01
      0.2921015530D+02  0.2321844432D+00
      0.9286662960D+01  0.4679413484D+00
      0.3163926960D+01  0.3623119853D+00
 SP   3 1.00       0.000000000000
      0.7868272350D+01 -0.1193324198D+00  0.6899906659D-01
      0.1881288540D+01 -0.1608541517D+00  0.3164239610D+00
      0.5442492580D+00  0.1143456438D+01  0.7443082909D+00
 SP   1 1.00       0.000000000000
      0.1687144782D+00  0.1000000000D+01  0.1000000000D+01
 D   1 1.00       0.000000000000
      0.8000000000D+00  0.1000000000D+01
 ****
     41 0
 S   3 1.00       0.000000000000
      0.1873113696D+02  0.3349460434D-01
      0.2825394365D+01  0.2347269535D+00
      0.6401216923D+00  0.8137573261D+00
 S   1 1.00       0.000000000000
      0.1612777588D+00  0.1000000000D+01
 ****
     42 0
 S   3 1.00       0.000000000000
      0.1873113696D+02  0.3349460434D-01
      0.2825394365D+01  0.2347269535D+00
      0.6401216923D+00  0.8137573261D+00
 S   1 1.00       0.000000000000
      0.1612777588D+00  0.1000000000D+01
 ****
     43 0
 S   3 1.00       0.000000000000
      0.1873113696D+02  0.3349460434D-01
      0.2825394365D+01  0.2347269535D+00
      0.6401216923D+00  0.8137573261D+00
 S   1 1.00       0.000000000000
      0.1612777588D+00  0.1000000000D+01
 ****
     44 0
 S   6 1.00       0.000000000000
      0.3047524880D+04  0.1834737132D-02
      0.4573695180D+03  0.1403732281D-01
      0.1039486850D+03  0.6884262226D-01
      0.2921015530D+02  0.2321844432D+00
      0.9286662960D+01  0.4679413484D+00
      0.3163926960D+01  0.3623119853D+00
 SP   3 1.00       0.000000000000
      0.7868272350D+01 -0.1193324198D+00  0.6899906659D-01
      0.1881288540D+01 -0.1608541517D+00  0.3164239610D+00
      0.5442492580D+00  0.1143456438D+01  0.7443082909D+00
 SP   1 1.00       0.000000000000
      0.1687144782D+00  0.1000000000D+01  0.1000000000D+01
 D   1 1.00       0.000000000000
      0.8000000000D+00  0.1000000000D+01
 ****
     45 0
 S   3 1.00       0.000000000000
      0.1873113696D+02  0.3349460434D-01
      0.2825394365D+01  0.2347269535D+00
      0.6401216923D+00  0.8137573261D+00
 S   1 1.00       0.000000000000
      0.1612777588D+00  0.1000000000D+01
 ****
     46 0
 S   3 1.00       0.000000000000
      0.1873113696D+02  0.3349460434D-01
      0.2825394365D+01  0.2347269535D+00
      0.6401216923D+00  0.8137573261D+00
 S   1 1.00       0.000000000000
      0.1612777588D+00  0.1000000000D+01
 ****
     47 0
 S   6 1.00       0.000000000000
      0.3047524880D+04  0.1834737132D-02
      0.4573695180D+03  0.1403732281D-01
      0.1039486850D+03  0.6884262226D-01
      0.2921015530D+02  0.2321844432D+00
      0.9286662960D+01  0.4679413484D+00
      0.3163926960D+01  0.3623119853D+00
 SP   3 1.00       0.000000000000
      0.7868272350D+01 -0.1193324198D+00  0.6899906659D-01
      0.1881288540D+01 -0.1608541517D+00  0.3164239610D+00
      0.5442492580D+00  0.1143456438D+01  0.7443082909D+00
 SP   1 1.00       0.000000000000
      0.1687144782D+00  0.1000000000D+01  0.1000000000D+01
 D   1 1.00       0.000000000000
      0.8000000000D+00  0.1000000000D+01
 ****
     48 0
 S   3 1.00       0.000000000000
      0.1873113696D+02  0.3349460434D-01
      0.2825394365D+01  0.2347269535D+00
      0.6401216923D+00  0.8137573261D+00
 S   1 1.00       0.000000000000
      0.1612777588D+00  0.1000000000D+01
 ****
     49 0
 S   3 1.00       0.000000000000
      0.1873113696D+02  0.3349460434D-01
      0.2825394365D+01  0.2347269535D+00
      0.6401216923D+00  0.8137573261D+00
 S   1 1.00       0.000000000000
      0.1612777588D+00  0.1000000000D+01
 ****
     50 0
 S   6 1.00       0.000000000000
      0.3047524880D+04  0.1834737132D-02
      0.4573695180D+03  0.1403732281D-01
      0.1039486850D+03  0.6884262226D-01
      0.2921015530D+02  0.2321844432D+00
      0.9286662960D+01  0.4679413484D+00
      0.3163926960D+01  0.3623119853D+00
 SP   3 1.00       0.000000000000
      0.7868272350D+01 -0.1193324198D+00  0.6899906659D-01
      0.1881288540D+01 -0.1608541517D+00  0.3164239610D+00
      0.5442492580D+00  0.1143456438D+01  0.7443082909D+00
 SP   1 1.00       0.000000000000
      0.1687144782D+00  0.1000000000D+01  0.1000000000D+01
 D   1 1.00       0.000000000000
      0.8000000000D+00  0.1000000000D+01
 ****
     51 0
 S   3 1.00       0.000000000000
      0.1873113696D+02  0.3349460434D-01
      0.2825394365D+01  0.2347269535D+00
      0.6401216923D+00  0.8137573261D+00
 S   1 1.00       0.000000000000
      0.1612777588D+00  0.1000000000D+01
 ****
     52 0
 S   3 1.00       0.000000000000
      0.1873113696D+02  0.3349460434D-01
      0.2825394365D+01  0.2347269535D+00
      0.6401216923D+00  0.8137573261D+00
 S   1 1.00       0.000000000000
      0.1612777588D+00  0.1000000000D+01
 ****
     53 0
 S   6 1.00       0.000000000000
      0.3047524880D+04  0.1834737132D-02
      0.4573695180D+03  0.1403732281D-01
      0.1039486850D+03  0.6884262226D-01
      0.2921015530D+02  0.2321844432D+00
      0.9286662960D+01  0.4679413484D+00
      0.3163926960D+01  0.3623119853D+00
 SP   3 1.00       0.000000000000
      0.7868272350D+01 -0.1193324198D+00  0.6899906659D-01
      0.1881288540D+01 -0.1608541517D+00  0.3164239610D+00
      0.5442492580D+00  0.1143456438D+01  0.7443082909D+00
 SP   1 1.00       0.000000000000
      0.1687144782D+00  0.1000000000D+01  0.1000000000D+01
 D   1 1.00       0.000000000000
      0.8000000000D+00  0.1000000000D+01
 ****
     54 0
 S   3 1.00       0.000000000000
      0.1873113696D+02  0.3349460434D-01
      0.2825394365D+01  0.2347269535D+00
      0.6401216923D+00  0.8137573261D+00
 S   1 1.00       0.000000000000
      0.1612777588D+00  0.1000000000D+01
 ****
     55 0
 S   6 1.00       0.000000000000
      0.3047524880D+04  0.1834737132D-02
      0.4573695180D+03  0.1403732281D-01
      0.1039486850D+03  0.6884262226D-01
      0.2921015530D+02  0.2321844432D+00
      0.9286662960D+01  0.4679413484D+00
      0.3163926960D+01  0.3623119853D+00
 SP   3 1.00       0.000000000000
      0.7868272350D+01 -0.1193324198D+00  0.6899906659D-01
      0.1881288540D+01 -0.1608541517D+00  0.3164239610D+00
      0.5442492580D+00  0.1143456438D+01  0.7443082909D+00
 SP   1 1.00       0.000000000000
      0.1687144782D+00  0.1000000000D+01  0.1000000000D+01
 D   1 1.00       0.000000000000
      0.8000000000D+00  0.1000000000D+01
 ****
     56 0
 S   3 1.00       0.000000000000
      0.1873113696D+02  0.3349460434D-01
      0.2825394365D+01  0.2347269535D+00
      0.6401216923D+00  0.8137573261D+00
 S   1 1.00       0.000000000000
      0.1612777588D+00  0.1000000000D+01
 ****
     57 0
 S   3 1.00       0.000000000000
      0.1873113696D+02  0.3349460434D-01
      0.2825394365D+01  0.2347269535D+00
      0.6401216923D+00  0.8137573261D+00
 S   1 1.00       0.000000000000
      0.1612777588D+00  0.1000000000D+01
 ****
     58 0
 S   3 1.00       0.000000000000
      0.1873113696D+02  0.3349460434D-01
      0.2825394365D+01  0.2347269535D+00
      0.6401216923D+00  0.8137573261D+00
 S   1 1.00       0.000000000000
      0.1612777588D+00  0.1000000000D+01
 ****
     59 0
 S   6 1.00       0.000000000000
      0.3047524880D+04  0.1834737132D-02
      0.4573695180D+03  0.1403732281D-01
      0.1039486850D+03  0.6884262226D-01
      0.2921015530D+02  0.2321844432D+00
      0.9286662960D+01  0.4679413484D+00
      0.3163926960D+01  0.3623119853D+00
 SP   3 1.00       0.000000000000
      0.7868272350D+01 -0.1193324198D+00  0.6899906659D-01
      0.1881288540D+01 -0.1608541517D+00  0.3164239610D+00
      0.5442492580D+00  0.1143456438D+01  0.7443082909D+00
 SP   1 1.00       0.000000000000
      0.1687144782D+00  0.1000000000D+01  0.1000000000D+01
 D   1 1.00       0.000000000000
      0.8000000000D+00  0.1000000000D+01
 ****
     60 0
 S   3 1.00       0.000000000000
      0.1873113696D+02  0.3349460434D-01
      0.2825394365D+01  0.2347269535D+00
      0.6401216923D+00  0.8137573261D+00
 S   1 1.00       0.000000000000
      0.1612777588D+00  0.1000000000D+01
 ****
     61 0
 S   3 1.00       0.000000000000
      0.1873113696D+02  0.3349460434D-01
      0.2825394365D+01  0.2347269535D+00
      0.6401216923D+00  0.8137573261D+00
 S   1 1.00       0.000000000000
      0.1612777588D+00  0.1000000000D+01
 ****
     62 0
 S   6 1.00       0.000000000000
      0.3047524880D+04  0.1834737132D-02
      0.4573695180D+03  0.1403732281D-01
      0.1039486850D+03  0.6884262226D-01
      0.2921015530D+02  0.2321844432D+00
      0.9286662960D+01  0.4679413484D+00
      0.3163926960D+01  0.3623119853D+00
 SP   3 1.00       0.000000000000
      0.7868272350D+01 -0.1193324198D+00  0.6899906659D-01
      0.1881288540D+01 -0.1608541517D+00  0.3164239610D+00
      0.5442492580D+00  0.1143456438D+01  0.7443082909D+00
 SP   1 1.00       0.000000000000
      0.1687144782D+00  0.1000000000D+01  0.1000000000D+01
 D   1 1.00       0.000000000000
      0.8000000000D+00  0.1000000000D+01
 ****
     63 0
 S   3 1.00       0.000000000000
      0.1873113696D+02  0.3349460434D-01
      0.2825394365D+01  0.2347269535D+00
      0.6401216923D+00  0.8137573261D+00
 S   1 1.00       0.000000000000
      0.1612777588D+00  0.1000000000D+01
 ****
     64 0
 S   3 1.00       0.000000000000
      0.1873113696D+02  0.3349460434D-01
      0.2825394365D+01  0.2347269535D+00
      0.6401216923D+00  0.8137573261D+00
 S   1 1.00       0.000000000000
      0.1612777588D+00  0.1000000000D+01
 ****
     65 0
 S   6 1.00       0.000000000000
      0.3047524880D+04  0.1834737132D-02
      0.4573695180D+03  0.1403732281D-01
      0.1039486850D+03  0.6884262226D-01
      0.2921015530D+02  0.2321844432D+00
      0.9286662960D+01  0.4679413484D+00
      0.3163926960D+01  0.3623119853D+00
 SP   3 1.00       0.000000000000
      0.7868272350D+01 -0.1193324198D+00  0.6899906659D-01
      0.1881288540D+01 -0.1608541517D+00  0.3164239610D+00
      0.5442492580D+00  0.1143456438D+01  0.7443082909D+00
 SP   1 1.00       0.000000000000
      0.1687144782D+00  0.1000000000D+01  0.1000000000D+01
 D   1 1.00       0.000000000000
      0.8000000000D+00  0.1000000000D+01
 ****
     66 0
 S   3 1.00       0.000000000000
      0.1873113696D+02  0.3349460434D-01
      0.2825394365D+01  0.2347269535D+00
      0.6401216923D+00  0.8137573261D+00
 S   1 1.00       0.000000000000
      0.1612777588D+00  0.1000000000D+01
 ****
     67 0
 S   6 1.00       0.000000000000
      0.3047524880D+04  0.1834737132D-02
      0.4573695180D+03  0.1403732281D-01
      0.1039486850D+03  0.6884262226D-01
      0.2921015530D+02  0.2321844432D+00
      0.9286662960D+01  0.4679413484D+00
      0.3163926960D+01  0.3623119853D+00
 SP   3 1.00       0.000000000000
      0.7868272350D+01 -0.1193324198D+00  0.6899906659D-01
      0.1881288540D+01 -0.1608541517D+00  0.3164239610D+00
      0.5442492580D+00  0.1143456438D+01  0.7443082909D+00
 SP   1 1.00       0.000000000000
      0.1687144782D+00  0.1000000000D+01  0.1000000000D+01
 D   1 1.00       0.000000000000
      0.8000000000D+00  0.1000000000D+01
 ****
     68 0
 S   3 1.00       0.000000000000
      0.1873113696D+02  0.3349460434D-01
      0.2825394365D+01  0.2347269535D+00
      0.6401216923D+00  0.8137573261D+00
 S   1 1.00       0.000000000000
      0.1612777588D+00  0.1000000000D+01
 ****
     69 0
 S   3 1.00       0.000000000000
      0.1873113696D+02  0.3349460434D-01
      0.2825394365D+01  0.2347269535D+00
      0.6401216923D+00  0.8137573261D+00
 S   1 1.00       0.000000000000
      0.1612777588D+00  0.1000000000D+01
 ****
     70 0
 S   3 1.00       0.000000000000
      0.1873113696D+02  0.3349460434D-01
      0.2825394365D+01  0.2347269535D+00
      0.6401216923D+00  0.8137573261D+00
 S   1 1.00       0.000000000000
      0.1612777588D+00  0.1000000000D+01
 ****
     71 0
 S   6 1.00       0.000000000000
      0.3047524880D+04  0.1834737132D-02
      0.4573695180D+03  0.1403732281D-01
      0.1039486850D+03  0.6884262226D-01
      0.2921015530D+02  0.2321844432D+00
      0.9286662960D+01  0.4679413484D+00
      0.3163926960D+01  0.3623119853D+00
 SP   3 1.00       0.000000000000
      0.7868272350D+01 -0.1193324198D+00  0.6899906659D-01
      0.1881288540D+01 -0.1608541517D+00  0.3164239610D+00
      0.5442492580D+00  0.1143456438D+01  0.7443082909D+00
 SP   1 1.00       0.000000000000
      0.1687144782D+00  0.1000000000D+01  0.1000000000D+01
 D   1 1.00       0.000000000000
      0.8000000000D+00  0.1000000000D+01
 ****
     72 0
 S   3 1.00       0.000000000000
      0.1873113696D+02  0.3349460434D-01
      0.2825394365D+01  0.2347269535D+00
      0.6401216923D+00  0.8137573261D+00
 S   1 1.00       0.000000000000
      0.1612777588D+00  0.1000000000D+01
 ****
     73 0
 S   3 1.00       0.000000000000
      0.1873113696D+02  0.3349460434D-01
      0.2825394365D+01  0.2347269535D+00
      0.6401216923D+00  0.8137573261D+00
 S   1 1.00       0.000000000000
      0.1612777588D+00  0.1000000000D+01
 ****
     74 0
 S   3 1.00       0.000000000000
      0.1873113696D+02  0.3349460434D-01
      0.2825394365D+01  0.2347269535D+00
      0.6401216923D+00  0.8137573261D+00
 S   1 1.00       0.000000000000
      0.1612777588D+00  0.1000000000D+01
 ****

 AO basis set (Overlap normalization):
 Atom O1       Shell     1 S   6     bf    1 -     1         -7.059104567170         -6.830973313518         -7.782741288072
      0.5484671660D+04  0.1831074430D-02
      0.8252349460D+03  0.1395017220D-01
      0.1880469580D+03  0.6844507810D-01
      0.5296450000D+02  0.2327143360D+00
      0.1689757040D+02  0.4701928980D+00
      0.5799635340D+01  0.3585208530D+00
 Atom O1       Shell     2 SP   3    bf    2 -     5         -7.059104567170         -6.830973313518         -7.782741288072
      0.1553961625D+02 -0.1107775495D+00  0.7087426823D-01
      0.3599933586D+01 -0.1480262627D+00  0.3397528391D+00
      0.1013761750D+01  0.1130767015D+01  0.7271585773D+00
 Atom O1       Shell     3 SP   1    bf    6 -     9         -7.059104567170         -6.830973313518         -7.782741288072
      0.2700058226D+00  0.1000000000D+01  0.1000000000D+01
 Atom O1       Shell     4 D   1     bf   10 -    15         -7.059104567170         -6.830973313518         -7.782741288072
      0.8000000000D+00  0.1000000000D+01
 Atom H2       Shell     5 S   3     bf   16 -    16         -7.344165256768         -8.419261936604         -6.927599130295
      0.1873113696D+02  0.3349460434D-01
      0.2825394365D+01  0.2347269535D+00
      0.6401216923D+00  0.8137573261D+00
 Atom H2       Shell     6 S   1     bf   17 -    17         -7.344165256768         -8.419261936604         -6.927599130295
      0.1612777588D+00  0.1000000000D+01
 Atom C3       Shell     7 S   6     bf   18 -    18          3.025247731786          3.900326594752          0.000000000000
      0.3047524880D+04  0.1834737132D-02
      0.4573695180D+03  0.1403732281D-01
      0.1039486850D+03  0.6884262226D-01
      0.2921015530D+02  0.2321844432D+00
      0.9286662960D+01  0.4679413484D+00
      0.3163926960D+01  0.3623119853D+00
 Atom C3       Shell     8 SP   3    bf   19 -    22          3.025247731786          3.900326594752          0.000000000000
      0.7868272350D+01 -0.1193324198D+00  0.6899906659D-01
      0.1881288540D+01 -0.1608541517D+00  0.3164239610D+00
      0.5442492580D+00  0.1143456438D+01  0.7443082909D+00
 Atom C3       Shell     9 SP   1    bf   23 -    26          3.025247731786          3.900326594752          0.000000000000
      0.1687144782D+00  0.1000000000D+01  0.1000000000D+01
 Atom C3       Shell    10 D   1     bf   27 -    32          3.025247731786          3.900326594752          0.000000000000
      0.8000000000D+00  0.1000000000D+01
 Atom C4       Shell    11 S   6     bf   33 -    33          2.507907064887          1.149155122573          0.892542332385
      0.3047524880D+04  0.1834737132D-02
      0.4573695180D+03  0.1403732281D-01
      0.1039486850D+03  0.6884262226D-01
      0.2921015530D+02  0.2321844432D+00
      0.9286662960D+01  0.4679413484D+00
      0.3163926960D+01  0.3623119853D+00
 Atom C4       Shell    12 SP   3    bf   34 -    37          2.507907064887          1.149155122573          0.892542332385
      0.7868272350D+01 -0.1193324198D+00  0.6899906659D-01
      0.1881288540D+01 -0.1608541517D+00  0.3164239610D+00
      0.5442492580D+00  0.1143456438D+01  0.7443082909D+00
 Atom C4       Shell    13 SP   1    bf   38 -    41          2.507907064887          1.149155122573          0.892542332385
      0.1687144782D+00  0.1000000000D+01  0.1000000000D+01
 Atom C4       Shell    14 D   1     bf   42 -    47          2.507907064887          1.149155122573          0.892542332385
      0.8000000000D+00  0.1000000000D+01
 Atom H5       Shell    15 S   3     bf   48 -    48          4.002672404663          0.000000000000          0.000000000000
      0.1873113696D+02  0.3349460434D-01
      0.2825394365D+01  0.2347269535D+00
      0.6401216923D+00  0.8137573261D+00
 Atom H5       Shell    16 S   1     bf   49 -    49          4.002672404663          0.000000000000          0.000000000000
      0.1612777588D+00  0.1000000000D+01
 Atom C6       Shell    17 S   6     bf   50 -    50          0.000000000000          0.000000000000          0.000000000000
      0.3047524880D+04  0.1834737132D-02
      0.4573695180D+03  0.1403732281D-01
      0.1039486850D+03  0.6884262226D-01
      0.2921015530D+02  0.2321844432D+00
      0.9286662960D+01  0.4679413484D+00
      0.3163926960D+01  0.3623119853D+00
 Atom C6       Shell    18 SP   3    bf   51 -    54          0.000000000000          0.000000000000          0.000000000000
      0.7868272350D+01 -0.1193324198D+00  0.6899906659D-01
      0.1881288540D+01 -0.1608541517D+00  0.3164239610D+00
      0.5442492580D+00  0.1143456438D+01  0.7443082909D+00
 Atom C6       Shell    19 SP   1    bf   55 -    58          0.000000000000          0.000000000000          0.000000000000
      0.1687144782D+00  0.1000000000D+01  0.1000000000D+01
 Atom C6       Shell    20 D   1     bf   59 -    64          0.000000000000          0.000000000000          0.000000000000
      0.8000000000D+00  0.1000000000D+01
 Atom H7       Shell    21 S   3     bf   65 -    65         -1.574649978256          1.095081025020          0.797780711541
      0.1873113696D+02  0.3349460434D-01
      0.2825394365D+01  0.2347269535D+00
      0.6401216923D+00  0.8137573261D+00
 Atom H7       Shell    22 S   1     bf   66 -    66         -1.574649978256          1.095081025020          0.797780711541
      0.1612777588D+00  0.1000000000D+01
 Atom C8       Shell    23 S   6     bf   67 -    67         -0.151198291803          0.089959505487         -2.925640815343
      0.3047524880D+04  0.1834737132D-02
      0.4573695180D+03  0.1403732281D-01
      0.1039486850D+03  0.6884262226D-01
      0.2921015530D+02  0.2321844432D+00
      0.9286662960D+01  0.4679413484D+00
      0.3163926960D+01  0.3623119853D+00
 Atom C8       Shell    24 SP   3    bf   68 -    71         -0.151198291803          0.089959505487         -2.925640815343
      0.7868272350D+01 -0.1193324198D+00  0.6899906659D-01
      0.1881288540D+01 -0.1608541517D+00  0.3164239610D+00
      0.5442492580D+00  0.1143456438D+01  0.7443082909D+00
 Atom C8       Shell    25 SP   1    bf   72 -    75         -0.151198291803          0.089959505487         -2.925640815343
      0.1687144782D+00  0.1000000000D+01  0.1000000000D+01
 Atom C8       Shell    26 D   1     bf   76 -    81         -0.151198291803          0.089959505487         -2.925640815343
      0.8000000000D+00  0.1000000000D+01
 Atom H9       Shell    27 S   3     bf   82 -    82          1.319444958449         -1.223861779168         -3.598863649238
      0.1873113696D+02  0.3349460434D-01
      0.2825394365D+01  0.2347269535D+00
      0.6401216923D+00  0.8137573261D+00
 Atom H9       Shell    28 S   1     bf   83 -    83          1.319444958449         -1.223861779168         -3.598863649238
      0.1612777588D+00  0.1000000000D+01
 Atom C10      Shell    29 S   6     bf   84 -    84          5.641755978030          4.383630440511          1.308881370469
      0.3047524880D+04  0.1834737132D-02
      0.4573695180D+03  0.1403732281D-01
      0.1039486850D+03  0.6884262226D-01
      0.2921015530D+02  0.2321844432D+00
      0.9286662960D+01  0.4679413484D+00
      0.3163926960D+01  0.3623119853D+00
 Atom C10      Shell    30 SP   3    bf   85 -    88          5.641755978030          4.383630440511          1.308881370469
      0.7868272350D+01 -0.1193324198D+00  0.6899906659D-01
      0.1881288540D+01 -0.1608541517D+00  0.3164239610D+00
      0.5442492580D+00  0.1143456438D+01  0.7443082909D+00
 Atom C10      Shell    31 SP   1    bf   89 -    92          5.641755978030          4.383630440511          1.308881370469
      0.1687144782D+00  0.1000000000D+01  0.1000000000D+01
 Atom C10      Shell    32 D   1     bf   93 -    98          5.641755978030          4.383630440511          1.308881370469
      0.8000000000D+00  0.1000000000D+01
 Atom H11      Shell    33 S   3     bf   99 -    99          7.040325168060          3.297000951059          0.214204671252
      0.1873113696D+02  0.3349460434D-01
      0.2825394365D+01  0.2347269535D+00
      0.6401216923D+00  0.8137573261D+00
 Atom H11      Shell    34 S   1     bf  100 -   100          7.040325168060          3.297000951059          0.214204671252
      0.1612777588D+00  0.1000000000D+01
 Atom C12      Shell    35 S   6     bf  101 -   101          3.018973652053          3.829053967383         -2.915133503407
      0.3047524880D+04  0.1834737132D-02
      0.4573695180D+03  0.1403732281D-01
      0.1039486850D+03  0.6884262226D-01
      0.2921015530D+02  0.2321844432D+00
      0.9286662960D+01  0.4679413484D+00
      0.3163926960D+01  0.3623119853D+00
 Atom C12      Shell    36 SP   3    bf  102 -   105          3.018973652053          3.829053967383         -2.915133503407
      0.7868272350D+01 -0.1193324198D+00  0.6899906659D-01
      0.1881288540D+01 -0.1608541517D+00  0.3164239610D+00
      0.5442492580D+00  0.1143456438D+01  0.7443082909D+00
 Atom C12      Shell    37 SP   1    bf  106 -   109          3.018973652053          3.829053967383         -2.915133503407
      0.1687144782D+00  0.1000000000D+01  0.1000000000D+01
 Atom C12      Shell    38 D   1     bf  110 -   115          3.018973652053          3.829053967383         -2.915133503407
      0.8000000000D+00  0.1000000000D+01
 Atom H13      Shell    39 S   3     bf  116 -   116          4.617608450127          2.664389276622         -3.552817467346
      0.1873113696D+02  0.3349460434D-01
      0.2825394365D+01  0.2347269535D+00
      0.6401216923D+00  0.8137573261D+00
 Atom H13      Shell    40 S   1     bf  117 -   117          4.617608450127          2.664389276622         -3.552817467346
      0.1612777588D+00  0.1000000000D+01
 Atom H14      Shell    41 S   3     bf  118 -   118          3.301018338742          5.708416029573         -3.731573767626
      0.1873113696D+02  0.3349460434D-01
      0.2825394365D+01  0.2347269535D+00
      0.6401216923D+00  0.8137573261D+00
 Atom H14      Shell    42 S   1     bf  119 -   119          3.301018338742          5.708416029573         -3.731573767626
      0.1612777588D+00  0.1000000000D+01
 Atom C15      Shell    43 S   6     bf  120 -   120         -2.714573826465         -0.970777088773         -3.973451588368
      0.3047524880D+04  0.1834737132D-02
      0.4573695180D+03  0.1403732281D-01
      0.1039486850D+03  0.6884262226D-01
      0.2921015530D+02  0.2321844432D+00
      0.9286662960D+01  0.4679413484D+00
      0.3163926960D+01  0.3623119853D+00
 Atom C15      Shell    44 SP   3    bf  121 -   124         -2.714573826465         -0.970777088773         -3.973451588368
      0.7868272350D+01 -0.1193324198D+00  0.6899906659D-01
      0.1881288540D+01 -0.1608541517D+00  0.3164239610D+00
      0.5442492580D+00  0.1143456438D+01  0.7443082909D+00
 Atom C15      Shell    45 SP   1    bf  125 -   128         -2.714573826465         -0.970777088773         -3.973451588368
      0.1687144782D+00  0.1000000000D+01  0.1000000000D+01
 Atom C15      Shell    46 D   1     bf  129 -   134         -2.714573826465         -0.970777088773         -3.973451588368
      0.8000000000D+00  0.1000000000D+01
 Atom C16      Shell    47 S   6     bf  135 -   135          3.097346018297          1.190783975143          3.733539347366
      0.3047524880D+04  0.1834737132D-02
      0.4573695180D+03  0.1403732281D-01
      0.1039486850D+03  0.6884262226D-01
      0.2921015530D+02  0.2321844432D+00
      0.9286662960D+01  0.4679413484D+00
      0.3163926960D+01  0.3623119853D+00
 Atom C16      Shell    48 SP   3    bf  136 -   139          3.097346018297          1.190783975143          3.733539347366
      0.7868272350D+01 -0.1193324198D+00  0.6899906659D-01
      0.1881288540D+01 -0.1608541517D+00  0.3164239610D+00
      0.5442492580D+00  0.1143456438D+01  0.7443082909D+00
 Atom C16      Shell    49 SP   1    bf  140 -   143          3.097346018297          1.190783975143          3.733539347366
      0.1687144782D+00  0.1000000000D+01  0.1000000000D+01
 Atom C16      Shell    50 D   1     bf  144 -   149          3.097346018297          1.190783975143          3.733539347366
      0.8000000000D+00  0.1000000000D+01
 Atom H17      Shell    51 S   3     bf  150 -   150          3.577528584506         -0.681538706024          4.469981136003
      0.1873113696D+02  0.3349460434D-01
      0.2825394365D+01  0.2347269535D+00
      0.6401216923D+00  0.8137573261D+00
 Atom H17      Shell    52 S   1     bf  151 -   151          3.577528584506         -0.681538706024          4.469981136003
      0.1612777588D+00  0.1000000000D+01
 Atom H18      Shell    53 S   3     bf  152 -   152          1.455436624061          1.852893178473          4.812427857174
      0.1873113696D+02  0.3349460434D-01
      0.2825394365D+01  0.2347269535D+00
      0.6401216923D+00  0.8137573261D+00
 Atom H18      Shell    54 S   1     bf  153 -   153          1.455436624061          1.852893178473          4.812427857174
      0.1612777588D+00  0.1000000000D+01
 Atom C19      Shell    55 S   6     bf  154 -   154          0.533547714106          2.730500003676         -3.972225231697
      0.3047524880D+04  0.1834737132D-02
      0.4573695180D+03  0.1403732281D-01
      0.1039486850D+03  0.6884262226D-01
      0.2921015530D+02  0.2321844432D+00
      0.9286662960D+01  0.4679413484D+00
      0.3163926960D+01  0.3623119853D+00
 Atom C19      Shell    56 SP   3    bf  155 -   158          0.533547714106          2.730500003676         -3.972225231697
      0.7868272350D+01 -0.1193324198D+00  0.6899906659D-01
      0.1881288540D+01 -0.1608541517D+00  0.3164239610D+00
      0.5442492580D+00  0.1143456438D+01  0.7443082909D+00
 Atom C19      Shell    57 SP   1    bf  159 -   162          0.533547714106          2.730500003676         -3.972225231697
      0.1687144782D+00  0.1000000000D+01  0.1000000000D+01
 Atom C19      Shell    58 D   1     bf  163 -   168          0.533547714106          2.730500003676         -3.972225231697
      0.8000000000D+00  0.1000000000D+01
 Atom H20      Shell    59 S   3     bf  169 -   169         -0.997602450428          4.063782576219         -3.570480529640
      0.1873113696D+02  0.3349460434D-01
      0.2825394365D+01  0.2347269535D+00
      0.6401216923D+00  0.8137573261D+00
 Atom H20      Shell    60 S   1     bf  170 -   170         -0.997602450428          4.063782576219         -3.570480529640
      0.1612777588D+00  0.1000000000D+01
 Atom H21      Shell    61 S   3     bf  171 -   171          0.683655804006          2.644990954409         -6.035966644351
      0.1873113696D+02  0.3349460434D-01
      0.2825394365D+01  0.2347269535D+00
      0.6401216923D+00  0.8137573261D+00
 Atom H21      Shell    62 S   1     bf  172 -   172          0.683655804006          2.644990954409         -6.035966644351
      0.1612777588D+00  0.1000000000D+01
 Atom C22      Shell    63 S   6     bf  173 -   173          5.336232502386          3.076357812797          3.949672862082
      0.3047524880D+04  0.1834737132D-02
      0.4573695180D+03  0.1403732281D-01
      0.1039486850D+03  0.6884262226D-01
      0.2921015530D+02  0.2321844432D+00
      0.9286662960D+01  0.4679413484D+00
      0.3163926960D+01  0.3623119853D+00
 Atom C22      Shell    64 SP   3    bf  174 -   177          5.336232502386          3.076357812797          3.949672862082
      0.7868272350D+01 -0.1193324198D+00  0.6899906659D-01
      0.1881288540D+01 -0.1608541517D+00  0.3164239610D+00
      0.5442492580D+00  0.1143456438D+01  0.7443082909D+00
 Atom C22      Shell    65 SP   1    bf  178 -   181          5.336232502386          3.076357812797          3.949672862082
      0.1687144782D+00  0.1000000000D+01  0.1000000000D+01
 Atom C22      Shell    66 D   1     bf  182 -   187          5.336232502386          3.076357812797          3.949672862082
      0.8000000000D+00  0.1000000000D+01
 Atom H23      Shell    67 S   3     bf  188 -   188          4.968666539902          4.493078993964          5.416780510328
      0.1873113696D+02  0.3349460434D-01
      0.2825394365D+01  0.2347269535D+00
      0.6401216923D+00  0.8137573261D+00
 Atom H23      Shell    68 S   1     bf  189 -   189          4.968666539902          4.493078993964          5.416780510328
      0.1612777588D+00  0.1000000000D+01
 Atom H24      Shell    69 S   3     bf  190 -   190          7.077527828493          2.107378118138          4.500666376668
      0.1873113696D+02  0.3349460434D-01
      0.2825394365D+01  0.2347269535D+00
      0.6401216923D+00  0.8137573261D+00
 Atom H24      Shell    70 S   1     bf  191 -   191          7.077527828493          2.107378118138          4.500666376668
      0.1612777588D+00  0.1000000000D+01
 Atom C25      Shell    71 S   6     bf  192 -   192         -0.270916524130         -2.742955963405          0.917687141693
      0.3047524880D+04  0.1834737132D-02
      0.4573695180D+03  0.1403732281D-01
      0.1039486850D+03  0.6884262226D-01
      0.2921015530D+02  0.2321844432D+00
      0.9286662960D+01  0.4679413484D+00
      0.3163926960D+01  0.3623119853D+00
 Atom C25      Shell    72 SP   3    bf  193 -   196         -0.270916524130         -2.742955963405          0.917687141693
      0.7868272350D+01 -0.1193324198D+00  0.6899906659D-01
      0.1881288540D+01 -0.1608541517D+00  0.3164239610D+00
      0.5442492580D+00  0.1143456438D+01  0.7443082909D+00
 Atom C25      Shell    73 SP   1    bf  197 -   200         -0.270916524130         -2.742955963405          0.917687141693
      0.1687144782D+00  0.1000000000D+01  0.1000000000D+01
 Atom C25      Shell    74 D   1     bf  201 -   206         -0.270916524130         -2.742955963405          0.917687141693
      0.8000000000D+00  0.1000000000D+01
 Atom H26      Shell    75 S   3     bf  207 -   207         -0.676100697824         -2.777412549411          2.952644378172
      0.1873113696D+02  0.3349460434D-01
      0.2825394365D+01  0.2347269535D+00
      0.6401216923D+00  0.8137573261D+00
 Atom H26      Shell    76 S   1     bf  208 -   208         -0.676100697824         -2.777412549411          2.952644378172
      0.1612777588D+00  0.1000000000D+01
 Atom H27      Shell    77 S   3     bf  209 -   209          1.552178980249         -3.729673477924          0.703593321776
      0.1873113696D+02  0.3349460434D-01
      0.2825394365D+01  0.2347269535D+00
      0.6401216923D+00  0.8137573261D+00
 Atom H27      Shell    78 S   1     bf  210 -   210          1.552178980249         -3.729673477924          0.703593321776
      0.1612777588D+00  0.1000000000D+01
 Atom C28      Shell    79 S   6     bf  211 -   211          6.680167366654          7.116104792256          1.523329325063
      0.3047524880D+04  0.1834737132D-02
      0.4573695180D+03  0.1403732281D-01
      0.1039486850D+03  0.6884262226D-01
      0.2921015530D+02  0.2321844432D+00
      0.9286662960D+01  0.4679413484D+00
      0.3163926960D+01  0.3623119853D+00
 Atom C28      Shell    80 SP   3    bf  212 -   215          6.680167366654          7.116104792256          1.523329325063
      0.7868272350D+01 -0.1193324198D+00  0.6899906659D-01
      0.1881288540D+01 -0.1608541517D+00  0.3164239610D+00
      0.5442492580D+00  0.1143456438D+01  0.7443082909D+00
 Atom C28      Shell    81 SP   1    bf  216 -   219          6.680167366654          7.116104792256          1.523329325063
      0.1687144782D+00  0.1000000000D+01  0.1000000000D+01
 Atom C28      Shell    82 D   1     bf  220 -   225          6.680167366654          7.116104792256          1.523329325063
      0.8000000000D+00  0.1000000000D+01
 Atom H29      Shell    83 S   3     bf  226 -   226          5.367566372649          8.202113884619          2.717398607985
      0.1873113696D+02  0.3349460434D-01
      0.2825394365D+01  0.2347269535D+00
      0.6401216923D+00  0.8137573261D+00
 Atom H29      Shell    84 S   1     bf  227 -   227          5.367566372649          8.202113884619          2.717398607985
      0.1612777588D+00  0.1000000000D+01
 Atom C30      Shell    85 S   6     bf  228 -   228          1.032049795673          5.791089166832          0.994324399197
      0.3047524880D+04  0.1834737132D-02
      0.4573695180D+03  0.1403732281D-01
      0.1039486850D+03  0.6884262226D-01
      0.2921015530D+02  0.2321844432D+00
      0.9286662960D+01  0.4679413484D+00
      0.3163926960D+01  0.3623119853D+00
 Atom C30      Shell    86 SP   3    bf  229 -   232          1.032049795673          5.791089166832          0.994324399197
      0.7868272350D+01 -0.1193324198D+00  0.6899906659D-01
      0.1881288540D+01 -0.1608541517D+00  0.3164239610D+00
      0.5442492580D+00  0.1143456438D+01  0.7443082909D+00
 Atom C30      Shell    87 SP   1    bf  233 -   236          1.032049795673          5.791089166832          0.994324399197
      0.1687144782D+00  0.1000000000D+01  0.1000000000D+01
 Atom C30      Shell    88 D   1     bf  237 -   242          1.032049795673          5.791089166832          0.994324399197
      0.8000000000D+00  0.1000000000D+01
 Atom H31      Shell    89 S   3     bf  243 -   243          1.392819188045          7.689667381637          0.254775900797
      0.1873113696D+02  0.3349460434D-01
      0.2825394365D+01  0.2347269535D+00
      0.6401216923D+00  0.8137573261D+00
 Atom H31      Shell    90 S   1     bf  244 -   244          1.392819188045          7.689667381637          0.254775900797
      0.1612777588D+00  0.1000000000D+01
 Atom H32      Shell    91 S   3     bf  245 -   245         -0.887865316898          5.275122406420          0.435669405745
      0.1873113696D+02  0.3349460434D-01
      0.2825394365D+01  0.2347269535D+00
      0.6401216923D+00  0.8137573261D+00
 Atom H32      Shell    92 S   1     bf  246 -   246         -0.887865316898          5.275122406420          0.435669405745
      0.1612777588D+00  0.1000000000D+01
 Atom H33      Shell    93 S   3     bf  247 -   247          1.051738228642          5.923143210101          3.057890312985
      0.1873113696D+02  0.3349460434D-01
      0.2825394365D+01  0.2347269535D+00
      0.6401216923D+00  0.8137573261D+00
 Atom H33      Shell    94 S   1     bf  248 -   248          1.051738228642          5.923143210101          3.057890312985
      0.1612777588D+00  0.1000000000D+01
 Atom C34      Shell    95 S   6     bf  249 -   249         -3.410974434839         -3.433973535712         -2.608182320772
      0.3047524880D+04  0.1834737132D-02
      0.4573695180D+03  0.1403732281D-01
      0.1039486850D+03  0.6884262226D-01
      0.2921015530D+02  0.2321844432D+00
      0.9286662960D+01  0.4679413484D+00
      0.3163926960D+01  0.3623119853D+00
 Atom C34      Shell    96 SP   3    bf  250 -   253         -3.410974434839         -3.433973535712         -2.608182320772
      0.7868272350D+01 -0.1193324198D+00  0.6899906659D-01
      0.1881288540D+01 -0.1608541517D+00  0.3164239610D+00
      0.5442492580D+00  0.1143456438D+01  0.7443082909D+00
 Atom C34      Shell    97 SP   1    bf  254 -   257         -3.410974434839         -3.433973535712         -2.608182320772
      0.1687144782D+00  0.1000000000D+01  0.1000000000D+01
 Atom C34      Shell    98 D   1     bf  258 -   263         -3.410974434839         -3.433973535712         -2.608182320772
      0.8000000000D+00  0.1000000000D+01
 Atom C35      Shell    99 S   6     bf  264 -   264         -2.380088993923         -1.574662885086         -6.840708388869
      0.3047524880D+04  0.1834737132D-02
      0.4573695180D+03  0.1403732281D-01
      0.1039486850D+03  0.6884262226D-01
      0.2921015530D+02  0.2321844432D+00
      0.9286662960D+01  0.4679413484D+00
      0.3163926960D+01  0.3623119853D+00
 Atom C35      Shell   100 SP   3    bf  265 -   268         -2.380088993923         -1.574662885086         -6.840708388869
      0.7868272350D+01 -0.1193324198D+00  0.6899906659D-01
      0.1881288540D+01 -0.1608541517D+00  0.3164239610D+00
      0.5442492580D+00  0.1143456438D+01  0.7443082909D+00
 Atom C35      Shell   101 SP   1    bf  269 -   272         -2.380088993923         -1.574662885086         -6.840708388869
      0.1687144782D+00  0.1000000000D+01  0.1000000000D+01
 Atom C35      Shell   102 D   1     bf  273 -   278         -2.380088993923         -1.574662885086         -6.840708388869
      0.8000000000D+00  0.1000000000D+01
 Atom H36      Shell   103 S   3     bf  279 -   279         -0.614071533553         -2.641847527268         -7.075463000337
      0.1873113696D+02  0.3349460434D-01
      0.2825394365D+01  0.2347269535D+00
      0.6401216923D+00  0.8137573261D+00
 Atom H36      Shell   104 S   1     bf  280 -   280         -0.614071533553         -2.641847527268         -7.075463000337
      0.1612777588D+00  0.1000000000D+01
 Atom H37      Shell   105 S   3     bf  281 -   281         -2.142779000292          0.191744236813         -7.893641453550
      0.1873113696D+02  0.3349460434D-01
      0.2825394365D+01  0.2347269535D+00
      0.6401216923D+00  0.8137573261D+00
 Atom H37      Shell   106 S   1     bf  282 -   282         -2.142779000292          0.191744236813         -7.893641453550
      0.1612777588D+00  0.1000000000D+01
 Atom C38      Shell   107 S   6     bf  283 -   283         -2.281698002862         -4.190326518235         -0.468969006925
      0.3047524880D+04  0.1834737132D-02
      0.4573695180D+03  0.1403732281D-01
      0.1039486850D+03  0.6884262226D-01
      0.2921015530D+02  0.2321844432D+00
      0.9286662960D+01  0.4679413484D+00
      0.3163926960D+01  0.3623119853D+00
 Atom C38      Shell   108 SP   3    bf  284 -   287         -2.281698002862         -4.190326518235         -0.468969006925
      0.7868272350D+01 -0.1193324198D+00  0.6899906659D-01
      0.1881288540D+01 -0.1608541517D+00  0.3164239610D+00
      0.5442492580D+00  0.1143456438D+01  0.7443082909D+00
 Atom C38      Shell   109 SP   1    bf  288 -   291         -2.281698002862         -4.190326518235         -0.468969006925
      0.1687144782D+00  0.1000000000D+01  0.1000000000D+01
 Atom C38      Shell   110 D   1     bf  292 -   297         -2.281698002862         -4.190326518235         -0.468969006925
      0.8000000000D+00  0.1000000000D+01
 Atom H39      Shell   111 S   3     bf  298 -   298         -2.848701749678         -5.990080522262          0.359929787051
      0.1873113696D+02  0.3349460434D-01
      0.2825394365D+01  0.2347269535D+00
      0.6401216923D+00  0.8137573261D+00
 Atom H39      Shell   112 S   1     bf  299 -   299         -2.848701749678         -5.990080522262          0.359929787051
      0.1612777588D+00  0.1000000000D+01
 Atom C40      Shell   113 S   6     bf  300 -   300         -4.903523825060          0.951006509409         -3.626748769309
      0.3047524880D+04  0.1834737132D-02
      0.4573695180D+03  0.1403732281D-01
      0.1039486850D+03  0.6884262226D-01
      0.2921015530D+02  0.2321844432D+00
      0.9286662960D+01  0.4679413484D+00
      0.3163926960D+01  0.3623119853D+00
 Atom C40      Shell   114 SP   3    bf  301 -   304         -4.903523825060          0.951006509409         -3.626748769309
      0.7868272350D+01 -0.1193324198D+00  0.6899906659D-01
      0.1881288540D+01 -0.1608541517D+00  0.3164239610D+00
      0.5442492580D+00  0.1143456438D+01  0.7443082909D+00
[...]
 1580 Fit      -0.000398
 1581 Fit      -0.001017
 1582 Fit      -0.002389
 1583 Fit      -0.000100
 1584 Fit       0.001410
 1585 Fit       0.001553
 1586 Fit      -0.000602
 1587 Fit       0.001349
 1588 Fit       0.002517
 1589 Fit      -0.001400
 1590 Fit      -0.002477
 1591 Fit      -0.002483
 1592 Fit      -0.002454
 1593 Fit      -0.002717
 1594 Fit      -0.002685
 1595 Fit      -0.001888
 1596 Fit      -0.000455
 1597 Fit      -0.002132
 1598 Fit      -0.002398
 1599 Fit      -0.001601
 1600 Fit      -0.000309
 1601 Fit       0.002982
 1602 Fit       0.001238
 1603 Fit      -0.001741
 1604 Fit      -0.000896
 1605 Fit       0.001428
 1606 Fit       0.002163
 1607 Fit       0.001837
 1608 Fit      -0.000380
 1609 Fit       0.000843
 1610 Fit       0.001305
 1611 Fit      -0.001055
 1612 Fit       0.001700
 1613 Fit       0.002926
 1614 Fit       0.002864
 1615 Fit       0.001307
 1616 Fit      -0.000930
 1617 Fit       0.000331
 1618 Fit       0.001863
 1619 Fit       0.002355
 1620 Fit       0.000138
 1621 Fit       0.000460
 1622 Fit      -0.001720
 1623 Fit       0.000782
 1624 Fit       0.002467
 1625 Fit       0.002804
 1626 Fit      -0.000561
 1627 Fit       0.001271
 1628 Fit       0.001965
 1629 Fit       0.001479
 1630 Fit       0.000196
 1631 Fit      -0.001454
 1632 Fit       0.000003
 1633 Fit       0.000157
 1634 Fit      -0.000537
 1635 Fit      -0.013233
 1636 Fit      -0.005326
 1637 Fit      -0.020540
 1638 Fit      -0.019197
 1639 Fit      -0.012662
 1640 Fit      -0.024229
 1641 Fit      -0.023629
 1642 Fit      -0.018246
 1643 Fit      -0.010210
 1644 Fit      -0.001419
 1645 Fit      -0.004384
 1646 Fit      -0.026421
 1647 Fit      -0.024691
 1648 Fit      -0.019804
 1649 Fit      -0.014962
 1650 Fit      -0.013007
 1651 Fit      -0.013552
 1652 Fit      -0.013477
 1653 Fit      -0.025004
 1654 Fit      -0.025835
 1655 Fit      -0.022407
 1656 Fit      -0.020532
 1657 Fit      -0.024027
 1658 Fit       0.008561
 1659 Fit       0.015131
 1660 Fit       0.018539
 1661 Fit       0.019147
 1662 Fit      -0.002581
 1663 Fit       0.006887
 1664 Fit       0.012905
 1665 Fit       0.015987
 1666 Fit       0.016599
 1667 Fit       0.015210
 1668 Fit       0.000553
 1669 Fit       0.007363
 1670 Fit       0.010554
 1671 Fit       0.010769
 1672 Fit       0.008542
 1673 Fit      -0.002542
 1674 Fit       0.001138
 1675 Fit      -0.000367
 1676 Fit       0.003569
 1677 Fit       0.003252
 1678 Fit       0.003754
 1679 Fit       0.003696
 1680 Fit       0.003720
 1681 Fit       0.003892
 1682 Fit       0.001999
 1683 Fit       0.002805
 1684 Fit       0.002282
 1685 Fit      -0.000427
 1686 Fit      -0.000360
 1687 Fit       0.002265
 1688 Fit       0.003203
 1689 Fit       0.002672
 1690 Fit       0.002979
 1691 Fit       0.002826
 1692 Fit       0.002370
 1693 Fit       0.003314
 1694 Fit       0.003108
 1695 Fit       0.003366
 1696 Fit       0.003943
 1697 Fit       0.003396
 1698 Fit       0.000246
 1699 Fit       0.000473
 1700 Fit       0.002614
 1701 Fit       0.003524
 1702 Fit       0.003243
 1703 Fit       0.001586
 1704 Fit       0.000006
 1705 Fit       0.002684
 1706 Fit       0.002461
 1707 Fit       0.000813
 1708 Fit       0.001612
 1709 Fit       0.003056
 1710 Fit       0.001002
 1711 Fit       0.002476
 1712 Fit       0.002112
 1713 Fit      -0.000243
 1714 Fit       0.000874
 1715 Fit       0.001516
 1716 Fit       0.000890
 1717 Fit      -0.000286
 1718 Fit      -0.000034
 1719 Fit      -0.000092
 1720 Fit       0.000878
 1721 Fit       0.000326
 1722 Fit       0.001296
 1723 Fit       0.001601
 1724 Fit       0.002462
 1725 Fit       0.002832
 1726 Fit       0.002920
 1727 Fit       0.002388
 1728 Fit       0.002939
 1729 Fit       0.003461
 1730 Fit       0.003357
 1731 Fit       0.002983
 1732 Fit       0.003486
 1733 Fit       0.003051
 1734 Fit       0.000833
 1735 Fit       0.002462
 1736 Fit       0.002008
 1737 Fit       0.000786
 1738 Fit       0.004351
 1739 Fit       0.003555
 1740 Fit       0.002915
 1741 Fit       0.002311
 1742 Fit       0.001757
 1743 Fit       0.002887
 1744 Fit       0.002615
 1745 Fit       0.001359
 1746 Fit       0.002503
 1747 Fit       0.002108
 1748 Fit       0.002707
 1749 Fit       0.001553
 1750 Fit       0.002801
 1751 Fit       0.001354
 1752 Fit       0.001124
 1753 Fit       0.001518
 1754 Fit       0.001720
 1755 Fit       0.002538
 1756 Fit       0.001689
 1757 Fit       0.002322
 1758 Fit       0.002449
 1759 Fit       0.003160
 1760 Fit       0.003306
 1761 Fit       0.000415
 1762 Fit      -0.000608
 1763 Fit      -0.000212
 1764 Fit       0.001546
 1765 Fit       0.001338
 1766 Fit       0.002461
 1767 Fit       0.002871
 1768 Fit       0.002060
 1769 Fit       0.000258
 1770 Fit       0.002797
 1771 Fit       0.003455
 1772 Fit       0.003828
 1773 Fit       0.003704
 1774 Fit       0.001606
 1775 Fit       0.001216
 1776 Fit       0.002629
 1777 Fit       0.002330
 1778 Fit       0.002673
 1779 Fit       0.002309
 1780 Fit       0.002944
 1781 Fit       0.003110
 1782 Fit       0.003033
 1783 Fit       0.003013
 1784 Fit       0.003081
 1785 Fit       0.002825
 1786 Fit       0.002958
 1787 Fit       0.002704
 1788 Fit       0.002844
 1789 Fit       0.002765
 1790 Fit       0.002452
 1791 Fit       0.002772
 1792 Fit       0.003310
 1793 Fit       0.003122
 1794 Fit       0.002083
 1795 Fit       0.001243
 1796 Fit       0.001647
 1797 Fit       0.003177
 1798 Fit       0.003662
 1799 Fit       0.002982
 1800 Fit       0.002677
 1801 Fit       0.003326
 1802 Fit       0.003766
 1803 Fit       0.002562
 1804 Fit       0.003099
 1805 Fit       0.003645
 1806 Fit       0.001314
 1807 Fit       0.002634
 1808 Fit       0.003519
 1809 Fit       0.000122
 1810 Fit       0.002402
 1811 Fit       0.003045
 1812 Fit       0.002395
 1813 Fit       0.001434
 1814 Fit       0.001482
 1815 Fit       0.000257
 1816 Fit      -0.000406
 1817 Fit      -0.000413
 1818 Fit       0.000357
 1819 Fit      -0.000650
 1820 Fit      -0.000373
 1821 Fit       0.000970
 1822 Fit       0.000544
 1823 Fit       0.001406
 1824 Fit       0.001260
 1825 Fit       0.000204
 1826 Fit       0.002209
 1827 Fit       0.001164
 1828 Fit       0.003349
 1829 Fit       0.001988
 1830 Fit       0.003377
 1831 Fit       0.001022
 1832 Fit       0.002754
 1833 Fit       0.001302
 1834 Fit       0.003159
 1835 Fit       0.000499
 1836 Fit       0.001907
 1837 Fit       0.002004
 1838 Fit       0.004453
 1839 Fit       0.004367
 1840 Fit       0.003330
 1841 Fit       0.003524
 1842 Fit       0.001975
 1843 Fit       0.001497
 1844 Fit       0.001653
 1845 Fit       0.002542
 1846 Fit       0.000165
 1847 Fit      -0.000122
 1848 Fit       0.001667
 1849 Fit       0.002773
 1850 Fit       0.002438
 1851 Fit       0.001703
 1852 Fit       0.002594
 1853 Fit       0.002672
 1854 Fit       0.001458
 1855 Fit       0.000864
 1856 Fit       0.001544
 1857 Fit       0.001800
 1858 Fit       0.000393
 1859 Fit       0.000462
 1860 Fit       0.003512
 1861 Fit       0.001003
 1862 Fit       0.002870
 1863 Fit       0.003344
 1864 Fit       0.002674
 1865 Fit       0.001046
 1866 Fit       0.000663
 1867 Fit       0.001692
 1868 Fit       0.000720
 1869 Fit       0.000000
 1870 Fit      -0.003398
 1871 Fit      -0.000817
 1872 Fit      -0.006229
 1873 Fit      -0.006451
 1874 Fit      -0.002951
 1875 Fit       0.000321
 1876 Fit      -0.000841
 1877 Fit       0.000054
 1878 Fit      -0.002967
 1879 Fit      -0.002597
 1880 Fit       0.001850
 1881 Fit       0.004512
 1882 Fit       0.004821
 1883 Fit       0.002279
 1884 Fit       0.005460
 1885 Fit       0.006206
 1886 Fit       0.005336
 1887 Fit       0.007794
 1888 Fit       0.007616
 1889 Fit       0.005946
 1890 Fit       0.003884
 1891 Fit       0.005502
 1892 Fit       0.001852
 1893 Fit      -0.001023
 1894 Fit      -0.001695
 1895 Fit       0.000357
 1896 Fit      -0.001104
 1897 Fit      -0.001759
 1898 Fit      -0.000971
 1899 Fit      -0.001783
 1900 Fit      -0.001520
 1901 Fit       0.001534
 1902 Fit      -0.000306
 1903 Fit       0.001999
 1904 Fit       0.000396
 1905 Fit       0.002870
 1906 Fit       0.002326
 1907 Fit       0.000741
 1908 Fit      -0.001010
 1909 Fit       0.001487
 1910 Fit      -0.000380
 1911 Fit      -0.001516
 1912 Fit      -0.000808
 1913 Fit      -0.001203
 1914 Fit      -0.000430
 1915 Fit      -0.001221
 1916 Fit      -0.001118
 1917 Fit      -0.001609
 1918 Fit       0.002859
 1919 Fit       0.000552
 1920 Fit      -0.002647
 1921 Fit       0.003262
 1922 Fit       0.001486
 1923 Fit      -0.000012
 1924 Fit      -0.001880
 1925 Fit      -0.006068
 1926 Fit       0.001592
 1927 Fit       0.000037
 1928 Fit      -0.001091
 1929 Fit      -0.003130
 1930 Fit      -0.000371
 1931 Fit       0.004282
 1932 Fit       0.001308
 1933 Fit       0.006120
 1934 Fit       0.003358
 1935 Fit       0.007257
 1936 Fit       0.009237
 1937 Fit       0.006524
 1938 Fit       0.011353
 1939 Fit       0.012712
 1940 Fit       0.011152
 1941 Fit       0.007821
 1942 Fit       0.015934
 1943 Fit       0.009523
 1944 Fit      -0.005273
 1945 Fit      -0.002536
 1946 Fit      -0.001362
 1947 Fit      -0.000888
 1948 Fit      -0.000731
 1949 Fit      -0.000560
 1950 Fit      -0.001928
 1951 Fit      -0.001621
 1952 Fit      -0.002952
 1953 Fit      -0.006925
 1954 Fit      -0.008674
 1955 Fit      -0.013172
 1956 Fit      -0.000621
 1957 Fit      -0.002960
 1958 Fit      -0.006579
 1959 Fit      -0.012664
 1960 Fit      -0.022605
 1961 Fit      -0.002485
 1962 Fit      -0.008946
 1963 Fit      -0.001093
 1964 Fit      -0.002499
 1965 Fit      -0.005548
 1966 Fit      -0.012998
 1967 Fit      -0.002684
 1968 Fit      -0.004895
 1969 Fit      -0.009727
 1970 Fit      -0.020623
 1971 Fit      -0.002516
 1972 Fit       0.000119
 1973 Fit      -0.000433
 1974 Fit      -0.000301
 1975 Fit      -0.000766
 1976 Fit      -0.002922
 1977 Fit      -0.012684
 1978 Fit      -0.020749
 1979 Fit      -0.015267
 1980 Fit      -0.006190
 1981 Fit      -0.001830
 1982 Fit      -0.001884
 1983 Fit      -0.002102
 1984 Fit      -0.004950
 1985 Fit      -0.009397
 1986 Fit      -0.009990
 1987 Fit      -0.004851
 1988 Fit      -0.004679
 1989 Fit       0.001584
 1990 Fit       0.002682
 1991 Fit       0.002626
 1992 Fit       0.002114
 1993 Fit       0.001886
 1994 Fit       0.001768
 1995 Fit       0.002585
 1996 Fit       0.002714
 1997 Fit       0.003106
 1998 Fit       0.002551
 1999 Fit       0.002517
 2000 Fit       0.003261
 2001 Fit       0.005751
 2002 Fit       0.000076
 2003 Fit       0.000919
 2004 Fit       0.007729
 2005 Fit       0.004255
 2006 Fit       0.002224
 2007 Fit       0.004369
 2008 Fit       0.003038
 2009 Fit       0.002566
 2010 Fit       0.001445
 2011 Fit      -0.000739
 2012 Fit       0.000582
 2013 Fit      -0.005723
 2014 Fit       0.000250
 2015 Fit       0.000294
 2016 Fit       0.000202
 2017 Fit      -0.000970
 2018 Fit      -0.001203
 2019 Fit      -0.001020
 2020 Fit      -0.001315
 2021 Fit      -0.000604
 2022 Fit      -0.000865
 2023 Fit       0.001904
 2024 Fit       0.001228
 2025 Fit       0.003128
 2026 Fit       0.002637
 2027 Fit       0.001396
 2028 Fit       0.000048
 2029 Fit       0.002182
 2030 Fit       0.002234
 2031 Fit       0.000800
 2032 Fit      -0.000639
 2033 Fit      -0.000766
 2034 Fit       0.001076
 2035 Fit      -0.000154
 2036 Fit       0.001630
 2037 Fit       0.000877
 2038 Fit       0.000057
 2039 Fit       0.002444
 2040 Fit       0.001715
 2041 Fit       0.000783
 2042 Fit      -0.000195
 2043 Fit       0.000745
 2044 Fit       0.000761
 2045 Fit       0.000088
 2046 Fit       0.001999
 2047 Fit       0.000105
 2048 Fit       0.002155
 2049 Fit       0.000148
 2050 Fit       0.002274
 2051 Fit       0.001384
 2052 Fit      -0.000427
 2053 Fit       0.000815
 2054 Fit       0.000869
 2055 Fit       0.001589
 2056 Fit       0.002406
 2057 Fit       0.002489
 2058 Fit       0.000947
 2059 Fit       0.001682
 2060 Fit       0.000762
 2061 Fit       0.001697
 2062 Fit       0.002339
 2063 Fit       0.002774
 2064 Fit      -0.000028
 2065 Fit       0.000632
 2066 Fit       0.001448
 2067 Fit       0.002121
 2068 Fit      -0.000065
 2069 Fit       0.000673
 2070 Fit       0.001242
 2071 Fit      -0.001932
 2072 Fit      -0.000997
 2073 Fit       0.000891
 2074 Fit      -0.001081
 2075 Fit      -0.000202
 2076 Fit       0.001343
 2077 Fit       0.002182
 2078 Fit       0.002216
 2079 Fit       0.000986
 2080 Fit       0.002135
 2081 Fit       0.002658
 2082 Fit       0.002749
 2083 Fit      -0.000546
 2084 Fit      -0.000893
 2085 Fit       0.001085
 2086 Fit       0.000634
 2087 Fit      -0.000151
 2088 Fit       0.002244
 2089 Fit       0.001712
 2090 Fit       0.001050
 2091 Fit       0.000303
 2092 Fit       0.001706
 2093 Fit       0.000832
 2094 Fit       0.000346
 2095 Fit       0.001274
 2096 Fit       0.001831
 2097 Fit       0.001307
 2098 Fit       0.002267
 2099 Fit       0.001934
 2100 Fit       0.001333
 2101 Fit       0.002656
 2102 Fit       0.001736
 2103 Fit      -0.001842
 2104 Fit      -0.001895
 2105 Fit      -0.001578
 2106 Fit      -0.002320
 2107 Fit      -0.002116
 2108 Fit      -0.001839
 2109 Fit      -0.002158
 2110 Fit      -0.001469
 2111 Fit      -0.001727
 2112 Fit      -0.001877
 2113 Fit      -0.000561
 2114 Fit      -0.001647
 2115 Fit       0.000032
 2116 Fit      -0.001622
 2117 Fit       0.000508
 2118 Fit      -0.000763
 2119 Fit      -0.001272
 2120 Fit      -0.000406
 2121 Fit       0.001360
 2122 Fit       0.001787
 2123 Fit       0.000688
 2124 Fit       0.002680
 2125 Fit       0.002466
 2126 Fit       0.001668
 2127 Fit       0.000394
 2128 Fit      -0.001032
 2129 Fit       0.002225
 2130 Fit       0.001297
 2131 Fit       0.000069
 2132 Fit      -0.001498
 2133 Fit      -0.001161
 2134 Fit      -0.000895
 2135 Fit      -0.000059
 2136 Fit      -0.001388
 2137 Fit      -0.000101
 2138 Fit       0.000599
 2139 Fit       0.000668
 2140 Fit       0.000996
 2141 Fit      -0.000500
 2142 Fit       0.001073
 2143 Fit       0.001732
 2144 Fit       0.001773
 2145 Fit       0.001814
 2146 Fit       0.001370
 2147 Fit       0.002140
 2148 Fit       0.002464
 2149 Fit      -0.000675
 2150 Fit      -0.001052
 2151 Fit      -0.001959
 2152 Fit      -0.000364
 2153 Fit       0.000694
 2154 Fit       0.000759
 2155 Fit      -0.000493
 2156 Fit      -0.000558
 2157 Fit       0.000825
 2158 Fit       0.001688
 2159 Fit       0.001937
 2160 Fit      -0.000971
 2161 Fit       0.000583
 2162 Fit       0.001960
 2163 Fit       0.002908
 2164 Fit      -0.001812
 2165 Fit      -0.001585
 2166 Fit      -0.001649
 2167 Fit      -0.001827
 2168 Fit       0.000101
 2169 Fit       0.000755
 2170 Fit      -0.001944
 2171 Fit      -0.001941
 2172 Fit      -0.001169
 2173 Fit       0.000088
 2174 Fit      -0.001447
 2175 Fit      -0.001592
 2176 Fit      -0.000911
 2177 Fit       0.000030
 2178 Fit       0.002036
 2179 Fit       0.001280
 2180 Fit      -0.001061
 2181 Fit      -0.000548
 2182 Fit       0.000979
 2183 Fit       0.001470
 2184 Fit       0.001423
 2185 Fit      -0.000051
 2186 Fit       0.000605
 2187 Fit       0.000741
 2188 Fit      -0.001136
 2189 Fit       0.002473
 2190 Fit       0.001067
 2191 Fit      -0.000531
 2192 Fit       0.001615
 2193 Fit       0.002261
 2194 Fit       0.002111
 2195 Fit       0.000766
 2196 Fit      -0.000806
 2197 Fit       0.000317
 2198 Fit       0.001270
 2199 Fit       0.001540
 2200 Fit      -0.000145
 2201 Fit       0.000170
 2202 Fit       0.002203
 2203 Fit       0.002595
 2204 Fit      -0.000341
 2205 Fit       0.001119
 2206 Fit       0.001835
 2207 Fit       0.001792
 2208 Fit      -0.000988
 2209 Fit       0.000293
 2210 Fit       0.000954
 2211 Fit       0.000872
 2212 Fit       0.000335
 2213 Fit      -0.001571
 2214 Fit      -0.000580
 2215 Fit      -0.000359
 -----------------------------------------------------------------
 Leave Link  602 at Tue Mar 21 13:15:47 2017, MaxMem=    33554432 cpu:         3.2
 (Enter /home/michal/g09/l9999.exe)

 Test job not archived.
 1\1\GINC-LINUX\SP\RHF\6-31G(d)\C27H46O1\MICHAL\21-Mar-2017\0\\#P HF/6-
 31G* SCF(Conver=6) NoSymm Test Pop=mk IOp(6/33=2) GFInput GFPrint\\MEP
  - Input generated by R.E.D.-III.x MOLECULE\\0,1\O,0,-3.73551725,-3.61
 479539,-4.11844931\H,0,-3.88636487,-4.45528153,-3.66592757\C,0,1.60089
 215,2.06396394,0.\C,0,1.32712726,0.6081067,0.47231306\H,0,2.11812301,0
 .,0.\C,0,0.,0.,0.\H,0,-0.83326888,0.57949192,0.42216737\C,0,-0.0800106
 9,0.04760452,-1.54818244\H,0,0.6982202,-0.64763976,-1.90443662\C,0,2.9
 8548868,2.31971732,0.69263019\H,0,3.72557962,1.74469776,0.11335223\C,0
 ,1.59757205,2.02624809,-1.54262221\H,0,2.44353315,1.40993408,-1.880070
 03\H,0,1.74682367,3.02076366,-1.97466379\C,0,-1.4364906,-0.51371311,-2
 .10266002\C,0,1.63904492,0.63013574,1.97570393\H,0,1.89314659,-0.36065
 475,2.36541214\H,0,0.77018389,0.98050884,2.54662714\C,0,0.28234129,1.4
 4491837,-2.10201106\H,0,-0.52790848,2.15046112,-1.88941692\H,0,0.36177
 507,1.39966893,-3.19409598\C,0,2.82381262,1.62793844,2.09007686\H,0,2.
 62930509,2.377635,2.86643679\H,0,3.74526642,1.11517647,2.38165007\C,0,
 -0.14336285,-1.45150978,0.48561912\H,0,-0.35777708,-1.46974342,1.56247
 211\H,0,0.82137774,-1.9736582,0.37232555\C,0,3.53499232,3.76568047,0.8
 0611116\H,0,2.84039379,4.34037173,1.43798541\C,0,0.54613723,3.0645124,
 0.52617381\H,0,0.73704817,4.06919672,0.1348216\H,0,-0.46983809,2.79147
 455,0.23054632\H,0,0.5565559,3.13439239,1.61816586\C,0,-1.80500993,-1.
 81718053,-1.38019064\C,0,-1.25948885,-0.83327571,-3.61994697\H,0,-0.32
 495266,-1.3980055,-3.74417376\H,0,-1.13390981,0.10146668,-4.17713515\C
 ,0,-1.20742258,-2.21742529,-0.24816771\H,0,-1.50746804,-3.16981409,0.1
 9046664\C,0,-2.59483305,0.50325097,-1.91919279\H,0,-2.46353701,1.37957
 044,-2.56176092\H,0,-3.5612882,0.06111231,-2.17359219\H,0,-2.65987035,
 0.84503522,-0.88155175\C,0,-2.89789515,-2.65869654,-2.01263477\H,0,-3.
 00260901,-3.59966232,-1.45721283\H,0,-3.86873636,-2.14669173,-1.952823
 94\C,0,-2.4044692,-1.63990296,-4.24969745\H,0,-3.34144323,-1.06911793,
 -4.24486568\H,0,-2.17573755,-1.85823936,-5.29902454\C,0,4.90679312,3.7
 6126555,1.52636206\H,0,4.83001213,3.16946651,2.44611649\H,0,5.63216259
 ,3.23706407,0.88723547\C,0,-2.6314402,-2.9447212,-3.49759111\H,0,-1.72
 723104,-3.56967119,-3.58485309\C,0,3.64539281,4.48311532,-0.55070448\H
 ,0,4.27144758,3.9108227,-1.24706117\H,0,4.09446751,5.4744187,-0.438912
 14\H,0,2.67071272,4.62737862,-1.02159504\C,0,5.44923203,5.14896192,1.9
 093043\H,0,5.69830102,5.72678984,1.01196364\H,0,4.65029894,5.70995933,
 2.41485378\C,0,6.66876089,5.11009055,2.84889831\H,0,6.37884333,4.59550
 583,3.776507\H,0,6.92132213,6.14052502,3.14018266\C,0,7.94563185,4.438
 88517,2.29938003\H,0,7.69832402,3.40385772,2.0230189\C,0,9.02502933,4.
 3780717,3.39207258\H,0,8.66620245,3.84309612,4.27893349\H,0,9.9262324,
 3.86736548,3.03391575\H,0,9.31857002,5.38737442,3.7083728\C,0,8.486981
 23,5.14498926,1.04615176\H,0,7.76713518,5.13292335,0.22132555\H,0,9.40
 364399,4.66126794,0.68992814\H,0,8.72796989,6.19376584,1.2636789\\Vers
 ion=EM64L-G09RevD.01\HF=-1124.0790576\RMSD=4.535e-07\Dipole=0.3766846,
 -0.1244152,0.5313972\Quadrupole=-2.6835649,7.3525106,-4.6689457,-1.399
 9382,-6.609194,-3.2092626\PG=C01 [X(C27H46O1)]\\@


 OUR LITTLE SYSTEMS HAVE THEIR DAY,    
   THEY HAVE THEIR DAY AND CEASE TO BE.
   THEY ARE BUT BROKEN LIGHTS OF THEE, 
 AND THOU, OH LORD, ART MORE THAN THEY.
          -------------------          
 LET KNOWLEDGE GROW FROM MORE TO MORE, 
   BUT MORE OF REVERENCE IN US DWELL.  
   THAT MIND AND SOUL, ACCORDING WELL, 
 MAY MAKE ONE MUSIC AS BEFORE.....     
          -------------------          
                    LORD TENNYSON      
 Job cpu time:       0 days  0 hours 10 minutes 20.3 seconds.
 File lengths (MBytes):  RWF=    142 Int=      0 D2E=      0 Chk=     10 Scr=      1
 Normal termination of Gaussian 09 at Tue Mar 21 13:15:47 2017.
