 Entering Gaussian System, Link 0=/home/michal/g09/g09
 Input=JOB2-gau_m1-20-4.com
 Output=JOB2-gau_m1-20-4.log
 Initial command:
 /home/michal/g09/l1.exe "/home/michal/gauss_scratch/Gau-21972.inp" -scrdir="/home/michal/gauss_scratch/"
 Entering Link 1 = /home/michal/g09/l1.exe PID=     21973.
  
 Copyright (c) 1988,1990,1992,1993,1995,1998,2003,2009,2013,
            Gaussian, Inc.  All Rights Reserved.
  
 This is part of the Gaussian(R) 09 program.  It is based on
 the Gaussian(R) 03 system (copyright 2003, Gaussian, Inc.),
 the Gaussian(R) 98 system (copyright 1998, Gaussian, Inc.),
 the Gaussian(R) 94 system (copyright 1995, Gaussian, Inc.),
 the Gaussian 92(TM) system (copyright 1992, Gaussian, Inc.),
 the Gaussian 90(TM) system (copyright 1990, Gaussian, Inc.),
 the Gaussian 88(TM) system (copyright 1988, Gaussian, Inc.),
 the Gaussian 86(TM) system (copyright 1986, Carnegie Mellon
 University), and the Gaussian 82(TM) system (copyright 1983,
 Carnegie Mellon University). Gaussian is a federally registered
 trademark of Gaussian, Inc.
  
 This software contains proprietary and confidential information,
 including trade secrets, belonging to Gaussian, Inc.
  
 This software is provided under written license and may be
 used, copied, transmitted, or stored only in accord with that
 written license.
  
 The following legend is applicable only to US Government
 contracts under FAR:
  
                    RESTRICTED RIGHTS LEGEND
  
 Use, reproduction and disclosure by the US Government is
 subject to restrictions as set forth in subparagraphs (a)
 and (c) of the Commercial Computer Software - Restricted
 Rights clause in FAR 52.227-19.
  
 Gaussian, Inc.
 340 Quinnipiac St., Bldg. 40, Wallingford CT 06492
  
  
 ---------------------------------------------------------------
 Warning -- This program may not be used in any manner that
 competes with the business of Gaussian, Inc. or will provide
 assistance to any competitor of Gaussian, Inc.  The licensee
 of this program is prohibited from giving any competitor of
 Gaussian, Inc. access to this program.  By using this program,
 the user acknowledges that Gaussian, Inc. is engaged in the
 business of creating and licensing software in the field of
 computational chemistry and represents and warrants to the
 licensee that it is not a competitor of Gaussian, Inc. and that
 it will not use this program in any manner prohibited above.
 ---------------------------------------------------------------
  

 Cite this work as:
 Gaussian 09, Revision D.01,
 M. J. Frisch, G. W. Trucks, H. B. Schlegel, G. E. Scuseria, 
 M. A. Robb, J. R. Cheeseman, G. Scalmani, V. Barone, B. Mennucci, 
 G. A. Petersson, H. Nakatsuji, M. Caricato, X. Li, H. P. Hratchian, 
 A. F. Izmaylov, J. Bloino, G. Zheng, J. L. Sonnenberg, M. Hada, 
 M. Ehara, K. Toyota, R. Fukuda, J. Hasegawa, M. Ishida, T. Nakajima, 
 Y. Honda, O. Kitao, H. Nakai, T. Vreven, J. A. Montgomery, Jr., 
 J. E. Peralta, F. Ogliaro, M. Bearpark, J. J. Heyd, E. Brothers, 
 K. N. Kudin, V. N. Staroverov, T. Keith, R. Kobayashi, J. Normand, 
 K. Raghavachari, A. Rendell, J. C. Burant, S. S. Iyengar, J. Tomasi, 
 M. Cossi, N. Rega, J. M. Millam, M. Klene, J. E. Knox, J. B. Cross, 
 V. Bakken, C. Adamo, J. Jaramillo, R. Gomperts, R. E. Stratmann, 
 O. Yazyev, A. J. Austin, R. Cammi, C. Pomelli, J. W. Ochterski, 
 R. L. Martin, K. Morokuma, V. G. Zakrzewski, G. A. Voth, 
 P. Salvador, J. J. Dannenberg, S. Dapprich, A. D. Daniels, 
 O. Farkas, J. B. Foresman, J. V. Ortiz, J. Cioslowski, 
 and D. J. Fox, Gaussian, Inc., Wallingford CT, 2013.
 
 ******************************************
 Gaussian 09:  EM64L-G09RevD.01 24-Apr-2013
                21-Mar-2017 
 ******************************************
 %Mem=256MB
 %NProc=12
 Will use up to   12 processors via shared memory.
 ----------------------------------------------------------------------
 #P HF/6-31G* SCF(Conver=6) NoSymm Test Pop=mk IOp(6/33=2) GFInput GFPr
 int
 ----------------------------------------------------------------------
 1/38=1/1;
 2/12=2,15=1,17=6,18=5,40=1/2;
 3/5=1,6=6,7=1,11=9,16=1,24=110,25=1,30=1/1,2,3;
 4//1;
 5/5=2,6=6,38=5/2;
 6/7=2,8=2,9=2,10=2,15=8,20=1,28=1,33=2/1,2;
 99/5=1,9=1/99;
 Leave Link    1 at Tue Mar 21 12:58:07 2017, MaxMem=    33554432 cpu:         0.6
 (Enter /home/michal/g09/l101.exe)
 ----------------------------------------------
 MEP - Input generated by R.E.D.-III.x MOLECULE
 ----------------------------------------------
 Symbolic Z-matrix:
 Charge =  0 Multiplicity = 1
 O                     4.21152   6.54896   4.12562 
 H                     4.99096   6.89925   3.67427 
 C                     0.        0.        0. 
 C                     1.3451    0.61904  -0.47332 
 H                     2.12684   0.        0. 
 C                     1.61236   2.05378   0. 
 H                     0.84821   2.72208  -0.42178 
 C                     1.54598   2.11768   1.54856 
 H                     2.40933   1.53102   1.90406 
 C                     0.09197  -1.40359  -0.69333 
 H                     0.84423  -1.96802  -0.12259 
 C                     0.03447   0.00959   1.54202 
 H                     0.83762  -0.66141   1.8798 
 H                    -0.89539  -0.378     1.97068 
 C                     1.76138   3.5691    2.10487 
 C                     1.40104   0.30948  -1.97748 
 H                     2.42582   0.28871  -2.36156 
 H                     0.86463   1.07529  -2.5515 
 C                     0.27849   1.42611   2.10268 
 H                    -0.60291   2.04082   1.89127 
 H                     0.3427    1.35943   3.19465 
 C                     0.69873  -1.07187  -2.09711 
 H                    -0.09222  -1.0398   -2.85571 
 H                     1.3977   -1.85134  -2.4162 
 C                     2.98593   2.54554  -0.48431 
 H                     2.95201   2.75913  -1.56096 
 H                     3.72648   1.73616  -0.37162 
 C                    -1.17358  -2.29129  -0.79109 
 H                    -1.91967  -1.73298  -1.37536 
 C                    -1.22873   0.77888  -0.52255 
 H                    -2.15504   0.34775  -0.12805 
 H                    -1.21129   1.83031  -0.22556 
 H                    -1.29726   0.75334  -1.61438 
 C                     2.93703   4.24368   1.38372 
 C                     2.11369   3.4731    3.62218 
 H                     2.88849   2.70361   3.74585 
 H                     1.23719   3.12347   4.17851 
 C                     3.47066   3.76263   0.25121 
 H                     4.32201   4.28528  -0.1864 
 C                     0.49416   4.44669   1.922 
 H                    -0.32387   4.10717   2.56509 
 H                     0.68949   5.49142   2.17618 
 H                     0.14621   4.42697   0.88458 
 C                     3.48812   5.50719   2.01811 
 H                     4.37603   5.83755   1.46371 
 H                     2.7561    6.32505   1.95878 
 C                     2.61779   4.77888   4.25375 
 H                     1.83676   5.5494    4.24902 
 H                     2.88429   4.60886   5.3031 
 C                    -0.91503  -3.59683  -1.59219 
 H                    -1.87763  -4.11995  -1.68939 
 H                    -0.61458  -3.33588  -2.6132 
 C                     3.82923   5.31621   3.50304 
 H                     4.6545    4.59017   3.58989 
 C                    -1.81309  -2.61394   0.57261 
 H                    -1.08356  -3.01609   1.28422 
 H                    -2.60847  -3.35957   0.45548 
 H                    -2.26319  -1.72987   1.031 
 C                     0.10859  -4.57572  -0.99185 
 H                     1.10534  -4.1176   -0.97749 
 H                    -0.14546  -4.77054   0.05756 
 C                     0.17241  -5.93546  -1.71372 
 H                    -0.82424  -6.39809  -1.6694 
 H                     0.84064  -6.60238  -1.14875 
 C                     0.63887  -5.92523  -3.1852 
 H                    -0.02515  -5.25881  -3.75401 
 C                     0.50828  -7.33151  -3.79214 
 H                    -0.52169  -7.70069  -3.72713 
 H                     0.80119  -7.33848  -4.84828 
 H                     1.15213  -8.04671  -3.26404 
 C                     2.07656  -5.40446  -3.34053 
 H                     2.18436  -4.37534  -2.98305 
 H                     2.38825  -5.42205  -4.3911 
 H                     2.77983  -6.02953  -2.7748 
 
 NAtoms=     74 NQM=       74 NQMF=       0 NMMI=      0 NMMIF=      0
                NMic=       0 NMicF=      0.
                    Isotopes and Nuclear Properties:
 (Nuclear quadrupole moments (NQMom) in fm**2, nuclear magnetic moments (NMagM)
  in nuclear magnetons)

  Atom         1           2           3           4           5           6           7           8           9          10
 IAtWgt=          16           1          12          12           1          12           1          12           1          12
 AtmWgt=  15.9949146   1.0078250  12.0000000  12.0000000   1.0078250  12.0000000   1.0078250  12.0000000   1.0078250  12.0000000
 NucSpn=           0           1           0           0           1           0           1           0           1           0
 AtZEff=   0.0000000   0.0000000   0.0000000   0.0000000   0.0000000   0.0000000   0.0000000   0.0000000   0.0000000   0.0000000
 NQMom=    0.0000000   0.0000000   0.0000000   0.0000000   0.0000000   0.0000000   0.0000000   0.0000000   0.0000000   0.0000000
 NMagM=    0.0000000   2.7928460   0.0000000   0.0000000   2.7928460   0.0000000   2.7928460   0.0000000   2.7928460   0.0000000
 AtZNuc=   8.0000000   1.0000000   6.0000000   6.0000000   1.0000000   6.0000000   1.0000000   6.0000000   1.0000000   6.0000000

  Atom        11          12          13          14          15          16          17          18          19          20
 IAtWgt=           1          12           1           1          12          12           1           1          12           1
 AtmWgt=   1.0078250  12.0000000   1.0078250   1.0078250  12.0000000  12.0000000   1.0078250   1.0078250  12.0000000   1.0078250
 NucSpn=           1           0           1           1           0           0           1           1           0           1
 AtZEff=   0.0000000   0.0000000   0.0000000   0.0000000   0.0000000   0.0000000   0.0000000   0.0000000   0.0000000   0.0000000
 NQMom=    0.0000000   0.0000000   0.0000000   0.0000000   0.0000000   0.0000000   0.0000000   0.0000000   0.0000000   0.0000000
 NMagM=    2.7928460   0.0000000   2.7928460   2.7928460   0.0000000   0.0000000   2.7928460   2.7928460   0.0000000   2.7928460
 AtZNuc=   1.0000000   6.0000000   1.0000000   1.0000000   6.0000000   6.0000000   1.0000000   1.0000000   6.0000000   1.0000000

  Atom        21          22          23          24          25          26          27          28          29          30
 IAtWgt=           1          12           1           1          12           1           1          12           1          12
 AtmWgt=   1.0078250  12.0000000   1.0078250   1.0078250  12.0000000   1.0078250   1.0078250  12.0000000   1.0078250  12.0000000
 NucSpn=           1           0           1           1           0           1           1           0           1           0
 AtZEff=   0.0000000   0.0000000   0.0000000   0.0000000   0.0000000   0.0000000   0.0000000   0.0000000   0.0000000   0.0000000
 NQMom=    0.0000000   0.0000000   0.0000000   0.0000000   0.0000000   0.0000000   0.0000000   0.0000000   0.0000000   0.0000000
 NMagM=    2.7928460   0.0000000   2.7928460   2.7928460   0.0000000   2.7928460   2.7928460   0.0000000   2.7928460   0.0000000
 AtZNuc=   1.0000000   6.0000000   1.0000000   1.0000000   6.0000000   1.0000000   1.0000000   6.0000000   1.0000000   6.0000000

  Atom        31          32          33          34          35          36          37          38          39          40
 IAtWgt=           1           1           1          12          12           1           1          12           1          12
 AtmWgt=   1.0078250   1.0078250   1.0078250  12.0000000  12.0000000   1.0078250   1.0078250  12.0000000   1.0078250  12.0000000
 NucSpn=           1           1           1           0           0           1           1           0           1           0
 AtZEff=   0.0000000   0.0000000   0.0000000   0.0000000   0.0000000   0.0000000   0.0000000   0.0000000   0.0000000   0.0000000
 NQMom=    0.0000000   0.0000000   0.0000000   0.0000000   0.0000000   0.0000000   0.0000000   0.0000000   0.0000000   0.0000000
 NMagM=    2.7928460   2.7928460   2.7928460   0.0000000   0.0000000   2.7928460   2.7928460   0.0000000   2.7928460   0.0000000
 AtZNuc=   1.0000000   1.0000000   1.0000000   6.0000000   6.0000000   1.0000000   1.0000000   6.0000000   1.0000000   6.0000000

  Atom        41          42          43          44          45          46          47          48          49          50
 IAtWgt=           1           1           1          12           1           1          12           1           1          12
 AtmWgt=   1.0078250   1.0078250   1.0078250  12.0000000   1.0078250   1.0078250  12.0000000   1.0078250   1.0078250  12.0000000
 NucSpn=           1           1           1           0           1           1           0           1           1           0
 AtZEff=   0.0000000   0.0000000   0.0000000   0.0000000   0.0000000   0.0000000   0.0000000   0.0000000   0.0000000   0.0000000
 NQMom=    0.0000000   0.0000000   0.0000000   0.0000000   0.0000000   0.0000000   0.0000000   0.0000000   0.0000000   0.0000000
 NMagM=    2.7928460   2.7928460   2.7928460   0.0000000   2.7928460   2.7928460   0.0000000   2.7928460   2.7928460   0.0000000
 AtZNuc=   1.0000000   1.0000000   1.0000000   6.0000000   1.0000000   1.0000000   6.0000000   1.0000000   1.0000000   6.0000000

  Atom        51          52          53          54          55          56          57          58          59          60
 IAtWgt=           1           1          12           1          12           1           1           1          12           1
 AtmWgt=   1.0078250   1.0078250  12.0000000   1.0078250  12.0000000   1.0078250   1.0078250   1.0078250  12.0000000   1.0078250
 NucSpn=           1           1           0           1           0           1           1           1           0           1
 AtZEff=   0.0000000   0.0000000   0.0000000   0.0000000   0.0000000   0.0000000   0.0000000   0.0000000   0.0000000   0.0000000
 NQMom=    0.0000000   0.0000000   0.0000000   0.0000000   0.0000000   0.0000000   0.0000000   0.0000000   0.0000000   0.0000000
 NMagM=    2.7928460   2.7928460   0.0000000   2.7928460   0.0000000   2.7928460   2.7928460   2.7928460   0.0000000   2.7928460
 AtZNuc=   1.0000000   1.0000000   6.0000000   1.0000000   6.0000000   1.0000000   1.0000000   1.0000000   6.0000000   1.0000000

  Atom        61          62          63          64          65          66          67          68          69          70
 IAtWgt=           1          12           1           1          12           1          12           1           1           1
 AtmWgt=   1.0078250  12.0000000   1.0078250   1.0078250  12.0000000   1.0078250  12.0000000   1.0078250   1.0078250   1.0078250
 NucSpn=           1           0           1           1           0           1           0           1           1           1
 AtZEff=   0.0000000   0.0000000   0.0000000   0.0000000   0.0000000   0.0000000   0.0000000   0.0000000   0.0000000   0.0000000
 NQMom=    0.0000000   0.0000000   0.0000000   0.0000000   0.0000000   0.0000000   0.0000000   0.0000000   0.0000000   0.0000000
 NMagM=    2.7928460   0.0000000   2.7928460   2.7928460   0.0000000   2.7928460   0.0000000   2.7928460   2.7928460   2.7928460
 AtZNuc=   1.0000000   6.0000000   1.0000000   1.0000000   6.0000000   1.0000000   6.0000000   1.0000000   1.0000000   1.0000000

  Atom        71          72          73          74
 IAtWgt=          12           1           1           1
 AtmWgt=  12.0000000   1.0078250   1.0078250   1.0078250
 NucSpn=           0           1           1           1
 AtZEff=   0.0000000   0.0000000   0.0000000   0.0000000
 NQMom=    0.0000000   0.0000000   0.0000000   0.0000000
 NMagM=    0.0000000   2.7928460   2.7928460   2.7928460
 AtZNuc=   6.0000000   1.0000000   1.0000000   1.0000000
 Leave Link  101 at Tue Mar 21 12:58:07 2017, MaxMem=    33554432 cpu:         1.0
 (Enter /home/michal/g09/l202.exe)
 Symmetry turned off by external request.
 Stoichiometry    C27H46O
 Framework group  C1[X(C27H46O)]
 Deg. of freedom   216
 Full point group                 C1      NOp   1
                          Input orientation:                          
 ---------------------------------------------------------------------
 Center     Atomic      Atomic             Coordinates (Angstroms)
 Number     Number       Type             X           Y           Z
 ---------------------------------------------------------------------
      1          8           0        4.211520    6.548959    4.125617
      2          1           0        4.990965    6.899250    3.674268
      3          6           0        0.000000    0.000000    0.000000
      4          6           0        1.345103    0.619044   -0.473320
      5          1           0        2.126843    0.000000    0.000000
      6          6           0        1.612358    2.053780    0.000000
      7          1           0        0.848205    2.722076   -0.421782
      8          6           0        1.545979    2.117675    1.548558
      9          1           0        2.409332    1.531020    1.904058
     10          6           0        0.091969   -1.403589   -0.693328
     11          1           0        0.844232   -1.968018   -0.122588
     12          6           0        0.034468    0.009586    1.542021
     13          1           0        0.837618   -0.661413    1.879802
     14          1           0       -0.895387   -0.378000    1.970681
     15          6           0        1.761385    3.569104    2.104871
     16          6           0        1.401043    0.309484   -1.977481
     17          1           0        2.425819    0.288706   -2.361557
     18          1           0        0.864632    1.075292   -2.551504
     19          6           0        0.278491    1.426113    2.102678
     20          1           0       -0.602912    2.040819    1.891274
     21          1           0        0.342704    1.359431    3.194649
     22          6           0        0.698733   -1.071871   -2.097113
     23          1           0       -0.092217   -1.039796   -2.855713
     24          1           0        1.397696   -1.851342   -2.416195
     25          6           0        2.985930    2.545539   -0.484310
     26          1           0        2.952007    2.759134   -1.560956
     27          1           0        3.726480    1.736161   -0.371623
     28          6           0       -1.173577   -2.291291   -0.791094
     29          1           0       -1.919669   -1.732976   -1.375358
     30          6           0       -1.228727    0.778882   -0.522548
     31          1           0       -2.155037    0.347754   -0.128050
     32          1           0       -1.211294    1.830313   -0.225560
     33          1           0       -1.297259    0.753343   -1.614383
     34          6           0        2.937032    4.243676    1.383723
     35          6           0        2.113686    3.473097    3.622177
     36          1           0        2.888490    2.703611    3.745848
     37          1           0        1.237192    3.123470    4.178514
     38          6           0        3.470659    3.762625    0.251211
     39          1           0        4.322006    4.285277   -0.186401
     40          6           0        0.494162    4.446687    1.921997
     41          1           0       -0.323869    4.107171    2.565090
     42          1           0        0.689488    5.491422    2.176182
     43          1           0        0.146205    4.426970    0.884580
     44          6           0        3.488119    5.507190    2.018107
     45          1           0        4.376031    5.837547    1.463709
     46          1           0        2.756098    6.325052    1.958783
     47          6           0        2.617788    4.778880    4.253751
     48          1           0        1.836757    5.549404    4.249017
     49          1           0        2.884293    4.608865    5.303101
     50          6           0       -0.915035   -3.596830   -1.592194
     51          1           0       -1.877628   -4.119948   -1.689394
     52          1           0       -0.614581   -3.335879   -2.613204
     53          6           0        3.829230    5.316214    3.503041
     54          1           0        4.654504    4.590167    3.589893
     55          6           0       -1.813092   -2.613936    0.572614
     56          1           0       -1.083558   -3.016092    1.284219
     57          1           0       -2.608466   -3.359571    0.455476
     58          1           0       -2.263186   -1.729866    1.031001
     59          6           0        0.108589   -4.575723   -0.991846
     60          1           0        1.105337   -4.117602   -0.977489
     61          1           0       -0.145459   -4.770541    0.057558
     62          6           0        0.172414   -5.935460   -1.713721
     63          1           0       -0.824240   -6.398095   -1.669403
     64          1           0        0.840645   -6.602384   -1.148751
     65          6           0        0.638867   -5.925234   -3.185200
     66          1           0       -0.025152   -5.258811   -3.754010
     67          6           0        0.508284   -7.331506   -3.792142
     68          1           0       -0.521694   -7.700685   -3.727131
     69          1           0        0.801191   -7.338482   -4.848281
     70          1           0        1.152132   -8.046710   -3.264038
     71          6           0        2.076563   -5.404463   -3.340528
     72          1           0        2.184362   -4.375345   -2.983050
     73          1           0        2.388245   -5.422046   -4.391103
     74          1           0        2.779833   -6.029529   -2.774802
 ---------------------------------------------------------------------
 Rotational constants (GHZ):      0.4590464      0.0609665      0.0583381
 Leave Link  202 at Tue Mar 21 12:58:07 2017, MaxMem=    33554432 cpu:         0.0
 (Enter /home/michal/g09/l301.exe)
 Standard basis: 6-31G(d) (6D, 7F)
 Ernie: Thresh=  0.10000D-02 Tol=  0.10000D-05 Strict=F.
 AO basis set in the form of general basis input (Overlap normalization):
      1 0
 S   6 1.00       0.000000000000
      0.5484671660D+04  0.1831074430D-02
      0.8252349460D+03  0.1395017220D-01
      0.1880469580D+03  0.6844507810D-01
      0.5296450000D+02  0.2327143360D+00
      0.1689757040D+02  0.4701928980D+00
      0.5799635340D+01  0.3585208530D+00
 SP   3 1.00       0.000000000000
      0.1553961625D+02 -0.1107775495D+00  0.7087426823D-01
      0.3599933586D+01 -0.1480262627D+00  0.3397528391D+00
      0.1013761750D+01  0.1130767015D+01  0.7271585773D+00
 SP   1 1.00       0.000000000000
      0.2700058226D+00  0.1000000000D+01  0.1000000000D+01
 D   1 1.00       0.000000000000
      0.8000000000D+00  0.1000000000D+01
 ****
      2 0
 S   3 1.00       0.000000000000
      0.1873113696D+02  0.3349460434D-01
      0.2825394365D+01  0.2347269535D+00
      0.6401216923D+00  0.8137573261D+00
 S   1 1.00       0.000000000000
      0.1612777588D+00  0.1000000000D+01
 ****
      3 0
 S   6 1.00       0.000000000000
      0.3047524880D+04  0.1834737132D-02
      0.4573695180D+03  0.1403732281D-01
      0.1039486850D+03  0.6884262226D-01
      0.2921015530D+02  0.2321844432D+00
      0.9286662960D+01  0.4679413484D+00
      0.3163926960D+01  0.3623119853D+00
 SP   3 1.00       0.000000000000
      0.7868272350D+01 -0.1193324198D+00  0.6899906659D-01
      0.1881288540D+01 -0.1608541517D+00  0.3164239610D+00
      0.5442492580D+00  0.1143456438D+01  0.7443082909D+00
 SP   1 1.00       0.000000000000
      0.1687144782D+00  0.1000000000D+01  0.1000000000D+01
 D   1 1.00       0.000000000000
      0.8000000000D+00  0.1000000000D+01
 ****
      4 0
 S   6 1.00       0.000000000000
      0.3047524880D+04  0.1834737132D-02
      0.4573695180D+03  0.1403732281D-01
      0.1039486850D+03  0.6884262226D-01
      0.2921015530D+02  0.2321844432D+00
      0.9286662960D+01  0.4679413484D+00
      0.3163926960D+01  0.3623119853D+00
 SP   3 1.00       0.000000000000
      0.7868272350D+01 -0.1193324198D+00  0.6899906659D-01
      0.1881288540D+01 -0.1608541517D+00  0.3164239610D+00
      0.5442492580D+00  0.1143456438D+01  0.7443082909D+00
 SP   1 1.00       0.000000000000
      0.1687144782D+00  0.1000000000D+01  0.1000000000D+01
 D   1 1.00       0.000000000000
      0.8000000000D+00  0.1000000000D+01
 ****
      5 0
 S   3 1.00       0.000000000000
      0.1873113696D+02  0.3349460434D-01
      0.2825394365D+01  0.2347269535D+00
      0.6401216923D+00  0.8137573261D+00
 S   1 1.00       0.000000000000
      0.1612777588D+00  0.1000000000D+01
 ****
      6 0
 S   6 1.00       0.000000000000
      0.3047524880D+04  0.1834737132D-02
      0.4573695180D+03  0.1403732281D-01
      0.1039486850D+03  0.6884262226D-01
      0.2921015530D+02  0.2321844432D+00
      0.9286662960D+01  0.4679413484D+00
      0.3163926960D+01  0.3623119853D+00
 SP   3 1.00       0.000000000000
      0.7868272350D+01 -0.1193324198D+00  0.6899906659D-01
      0.1881288540D+01 -0.1608541517D+00  0.3164239610D+00
      0.5442492580D+00  0.1143456438D+01  0.7443082909D+00
 SP   1 1.00       0.000000000000
      0.1687144782D+00  0.1000000000D+01  0.1000000000D+01
 D   1 1.00       0.000000000000
      0.8000000000D+00  0.1000000000D+01
 ****
      7 0
 S   3 1.00       0.000000000000
      0.1873113696D+02  0.3349460434D-01
      0.2825394365D+01  0.2347269535D+00
      0.6401216923D+00  0.8137573261D+00
 S   1 1.00       0.000000000000
      0.1612777588D+00  0.1000000000D+01
 ****
      8 0
 S   6 1.00       0.000000000000
      0.3047524880D+04  0.1834737132D-02
      0.4573695180D+03  0.1403732281D-01
      0.1039486850D+03  0.6884262226D-01
      0.2921015530D+02  0.2321844432D+00
      0.9286662960D+01  0.4679413484D+00
      0.3163926960D+01  0.3623119853D+00
 SP   3 1.00       0.000000000000
      0.7868272350D+01 -0.1193324198D+00  0.6899906659D-01
      0.1881288540D+01 -0.1608541517D+00  0.3164239610D+00
      0.5442492580D+00  0.1143456438D+01  0.7443082909D+00
 SP   1 1.00       0.000000000000
      0.1687144782D+00  0.1000000000D+01  0.1000000000D+01
 D   1 1.00       0.000000000000
      0.8000000000D+00  0.1000000000D+01
 ****
      9 0
 S   3 1.00       0.000000000000
      0.1873113696D+02  0.3349460434D-01
      0.2825394365D+01  0.2347269535D+00
      0.6401216923D+00  0.8137573261D+00
 S   1 1.00       0.000000000000
      0.1612777588D+00  0.1000000000D+01
 ****
     10 0
 S   6 1.00       0.000000000000
      0.3047524880D+04  0.1834737132D-02
      0.4573695180D+03  0.1403732281D-01
      0.1039486850D+03  0.6884262226D-01
      0.2921015530D+02  0.2321844432D+00
      0.9286662960D+01  0.4679413484D+00
      0.3163926960D+01  0.3623119853D+00
 SP   3 1.00       0.000000000000
      0.7868272350D+01 -0.1193324198D+00  0.6899906659D-01
      0.1881288540D+01 -0.1608541517D+00  0.3164239610D+00
      0.5442492580D+00  0.1143456438D+01  0.7443082909D+00
 SP   1 1.00       0.000000000000
      0.1687144782D+00  0.1000000000D+01  0.1000000000D+01
 D   1 1.00       0.000000000000
      0.8000000000D+00  0.1000000000D+01
 ****
     11 0
 S   3 1.00       0.000000000000
      0.1873113696D+02  0.3349460434D-01
      0.2825394365D+01  0.2347269535D+00
      0.6401216923D+00  0.8137573261D+00
 S   1 1.00       0.000000000000
      0.1612777588D+00  0.1000000000D+01
 ****
     12 0
 S   6 1.00       0.000000000000
      0.3047524880D+04  0.1834737132D-02
      0.4573695180D+03  0.1403732281D-01
      0.1039486850D+03  0.6884262226D-01
      0.2921015530D+02  0.2321844432D+00
      0.9286662960D+01  0.4679413484D+00
      0.3163926960D+01  0.3623119853D+00
 SP   3 1.00       0.000000000000
      0.7868272350D+01 -0.1193324198D+00  0.6899906659D-01
      0.1881288540D+01 -0.1608541517D+00  0.3164239610D+00
      0.5442492580D+00  0.1143456438D+01  0.7443082909D+00
 SP   1 1.00       0.000000000000
      0.1687144782D+00  0.1000000000D+01  0.1000000000D+01
 D   1 1.00       0.000000000000
      0.8000000000D+00  0.1000000000D+01
 ****
     13 0
 S   3 1.00       0.000000000000
      0.1873113696D+02  0.3349460434D-01
      0.2825394365D+01  0.2347269535D+00
      0.6401216923D+00  0.8137573261D+00
 S   1 1.00       0.000000000000
      0.1612777588D+00  0.1000000000D+01
 ****
     14 0
 S   3 1.00       0.000000000000
      0.1873113696D+02  0.3349460434D-01
      0.2825394365D+01  0.2347269535D+00
      0.6401216923D+00  0.8137573261D+00
 S   1 1.00       0.000000000000
      0.1612777588D+00  0.1000000000D+01
 ****
     15 0
 S   6 1.00       0.000000000000
      0.3047524880D+04  0.1834737132D-02
      0.4573695180D+03  0.1403732281D-01
      0.1039486850D+03  0.6884262226D-01
      0.2921015530D+02  0.2321844432D+00
      0.9286662960D+01  0.4679413484D+00
      0.3163926960D+01  0.3623119853D+00
 SP   3 1.00       0.000000000000
      0.7868272350D+01 -0.1193324198D+00  0.6899906659D-01
      0.1881288540D+01 -0.1608541517D+00  0.3164239610D+00
      0.5442492580D+00  0.1143456438D+01  0.7443082909D+00
 SP   1 1.00       0.000000000000
      0.1687144782D+00  0.1000000000D+01  0.1000000000D+01
 D   1 1.00       0.000000000000
      0.8000000000D+00  0.1000000000D+01
 ****
     16 0
 S   6 1.00       0.000000000000
      0.3047524880D+04  0.1834737132D-02
      0.4573695180D+03  0.1403732281D-01
      0.1039486850D+03  0.6884262226D-01
      0.2921015530D+02  0.2321844432D+00
      0.9286662960D+01  0.4679413484D+00
      0.3163926960D+01  0.3623119853D+00
 SP   3 1.00       0.000000000000
      0.7868272350D+01 -0.1193324198D+00  0.6899906659D-01
      0.1881288540D+01 -0.1608541517D+00  0.3164239610D+00
      0.5442492580D+00  0.1143456438D+01  0.7443082909D+00
 SP   1 1.00       0.000000000000
      0.1687144782D+00  0.1000000000D+01  0.1000000000D+01
 D   1 1.00       0.000000000000
      0.8000000000D+00  0.1000000000D+01
 ****
     17 0
 S   3 1.00       0.000000000000
      0.1873113696D+02  0.3349460434D-01
      0.2825394365D+01  0.2347269535D+00
      0.6401216923D+00  0.8137573261D+00
 S   1 1.00       0.000000000000
      0.1612777588D+00  0.1000000000D+01
 ****
     18 0
 S   3 1.00       0.000000000000
      0.1873113696D+02  0.3349460434D-01
      0.2825394365D+01  0.2347269535D+00
      0.6401216923D+00  0.8137573261D+00
 S   1 1.00       0.000000000000
      0.1612777588D+00  0.1000000000D+01
 ****
     19 0
 S   6 1.00       0.000000000000
      0.3047524880D+04  0.1834737132D-02
      0.4573695180D+03  0.1403732281D-01
      0.1039486850D+03  0.6884262226D-01
      0.2921015530D+02  0.2321844432D+00
      0.9286662960D+01  0.4679413484D+00
      0.3163926960D+01  0.3623119853D+00
 SP   3 1.00       0.000000000000
      0.7868272350D+01 -0.1193324198D+00  0.6899906659D-01
      0.1881288540D+01 -0.1608541517D+00  0.3164239610D+00
      0.5442492580D+00  0.1143456438D+01  0.7443082909D+00
 SP   1 1.00       0.000000000000
      0.1687144782D+00  0.1000000000D+01  0.1000000000D+01
 D   1 1.00       0.000000000000
      0.8000000000D+00  0.1000000000D+01
 ****
     20 0
 S   3 1.00       0.000000000000
      0.1873113696D+02  0.3349460434D-01
      0.2825394365D+01  0.2347269535D+00
      0.6401216923D+00  0.8137573261D+00
 S   1 1.00       0.000000000000
      0.1612777588D+00  0.1000000000D+01
 ****
     21 0
 S   3 1.00       0.000000000000
      0.1873113696D+02  0.3349460434D-01
      0.2825394365D+01  0.2347269535D+00
      0.6401216923D+00  0.8137573261D+00
 S   1 1.00       0.000000000000
      0.1612777588D+00  0.1000000000D+01
 ****
     22 0
 S   6 1.00       0.000000000000
      0.3047524880D+04  0.1834737132D-02
      0.4573695180D+03  0.1403732281D-01
      0.1039486850D+03  0.6884262226D-01
      0.2921015530D+02  0.2321844432D+00
      0.9286662960D+01  0.4679413484D+00
      0.3163926960D+01  0.3623119853D+00
 SP   3 1.00       0.000000000000
      0.7868272350D+01 -0.1193324198D+00  0.6899906659D-01
      0.1881288540D+01 -0.1608541517D+00  0.3164239610D+00
      0.5442492580D+00  0.1143456438D+01  0.7443082909D+00
 SP   1 1.00       0.000000000000
      0.1687144782D+00  0.1000000000D+01  0.1000000000D+01
 D   1 1.00       0.000000000000
      0.8000000000D+00  0.1000000000D+01
 ****
     23 0
 S   3 1.00       0.000000000000
      0.1873113696D+02  0.3349460434D-01
      0.2825394365D+01  0.2347269535D+00
      0.6401216923D+00  0.8137573261D+00
 S   1 1.00       0.000000000000
      0.1612777588D+00  0.1000000000D+01
 ****
     24 0
 S   3 1.00       0.000000000000
      0.1873113696D+02  0.3349460434D-01
      0.2825394365D+01  0.2347269535D+00
      0.6401216923D+00  0.8137573261D+00
 S   1 1.00       0.000000000000
      0.1612777588D+00  0.1000000000D+01
 ****
     25 0
 S   6 1.00       0.000000000000
      0.3047524880D+04  0.1834737132D-02
      0.4573695180D+03  0.1403732281D-01
      0.1039486850D+03  0.6884262226D-01
      0.2921015530D+02  0.2321844432D+00
      0.9286662960D+01  0.4679413484D+00
      0.3163926960D+01  0.3623119853D+00
 SP   3 1.00       0.000000000000
      0.7868272350D+01 -0.1193324198D+00  0.6899906659D-01
      0.1881288540D+01 -0.1608541517D+00  0.3164239610D+00
      0.5442492580D+00  0.1143456438D+01  0.7443082909D+00
 SP   1 1.00       0.000000000000
      0.1687144782D+00  0.1000000000D+01  0.1000000000D+01
 D   1 1.00       0.000000000000
      0.8000000000D+00  0.1000000000D+01
 ****
     26 0
 S   3 1.00       0.000000000000
      0.1873113696D+02  0.3349460434D-01
      0.2825394365D+01  0.2347269535D+00
      0.6401216923D+00  0.8137573261D+00
 S   1 1.00       0.000000000000
      0.1612777588D+00  0.1000000000D+01
 ****
     27 0
 S   3 1.00       0.000000000000
      0.1873113696D+02  0.3349460434D-01
      0.2825394365D+01  0.2347269535D+00
      0.6401216923D+00  0.8137573261D+00
 S   1 1.00       0.000000000000
      0.1612777588D+00  0.1000000000D+01
 ****
     28 0
 S   6 1.00       0.000000000000
      0.3047524880D+04  0.1834737132D-02
      0.4573695180D+03  0.1403732281D-01
      0.1039486850D+03  0.6884262226D-01
      0.2921015530D+02  0.2321844432D+00
      0.9286662960D+01  0.4679413484D+00
      0.3163926960D+01  0.3623119853D+00
 SP   3 1.00       0.000000000000
      0.7868272350D+01 -0.1193324198D+00  0.6899906659D-01
      0.1881288540D+01 -0.1608541517D+00  0.3164239610D+00
      0.5442492580D+00  0.1143456438D+01  0.7443082909D+00
 SP   1 1.00       0.000000000000
      0.1687144782D+00  0.1000000000D+01  0.1000000000D+01
 D   1 1.00       0.000000000000
      0.8000000000D+00  0.1000000000D+01
 ****
     29 0
 S   3 1.00       0.000000000000
      0.1873113696D+02  0.3349460434D-01
      0.2825394365D+01  0.2347269535D+00
      0.6401216923D+00  0.8137573261D+00
 S   1 1.00       0.000000000000
      0.1612777588D+00  0.1000000000D+01
 ****
     30 0
 S   6 1.00       0.000000000000
      0.3047524880D+04  0.1834737132D-02
      0.4573695180D+03  0.1403732281D-01
      0.1039486850D+03  0.6884262226D-01
      0.2921015530D+02  0.2321844432D+00
      0.9286662960D+01  0.4679413484D+00
      0.3163926960D+01  0.3623119853D+00
 SP   3 1.00       0.000000000000
      0.7868272350D+01 -0.1193324198D+00  0.6899906659D-01
      0.1881288540D+01 -0.1608541517D+00  0.3164239610D+00
      0.5442492580D+00  0.1143456438D+01  0.7443082909D+00
 SP   1 1.00       0.000000000000
      0.1687144782D+00  0.1000000000D+01  0.1000000000D+01
 D   1 1.00       0.000000000000
      0.8000000000D+00  0.1000000000D+01
 ****
     31 0
 S   3 1.00       0.000000000000
      0.1873113696D+02  0.3349460434D-01
      0.2825394365D+01  0.2347269535D+00
      0.6401216923D+00  0.8137573261D+00
 S   1 1.00       0.000000000000
      0.1612777588D+00  0.1000000000D+01
 ****
     32 0
 S   3 1.00       0.000000000000
      0.1873113696D+02  0.3349460434D-01
      0.2825394365D+01  0.2347269535D+00
      0.6401216923D+00  0.8137573261D+00
 S   1 1.00       0.000000000000
      0.1612777588D+00  0.1000000000D+01
 ****
     33 0
 S   3 1.00       0.000000000000
      0.1873113696D+02  0.3349460434D-01
      0.2825394365D+01  0.2347269535D+00
      0.6401216923D+00  0.8137573261D+00
 S   1 1.00       0.000000000000
      0.1612777588D+00  0.1000000000D+01
 ****
     34 0
 S   6 1.00       0.000000000000
      0.3047524880D+04  0.1834737132D-02
      0.4573695180D+03  0.1403732281D-01
      0.1039486850D+03  0.6884262226D-01
      0.2921015530D+02  0.2321844432D+00
      0.9286662960D+01  0.4679413484D+00
      0.3163926960D+01  0.3623119853D+00
 SP   3 1.00       0.000000000000
      0.7868272350D+01 -0.1193324198D+00  0.6899906659D-01
      0.1881288540D+01 -0.1608541517D+00  0.3164239610D+00
      0.5442492580D+00  0.1143456438D+01  0.7443082909D+00
 SP   1 1.00       0.000000000000
      0.1687144782D+00  0.1000000000D+01  0.1000000000D+01
 D   1 1.00       0.000000000000
      0.8000000000D+00  0.1000000000D+01
 ****
     35 0
 S   6 1.00       0.000000000000
      0.3047524880D+04  0.1834737132D-02
      0.4573695180D+03  0.1403732281D-01
      0.1039486850D+03  0.6884262226D-01
      0.2921015530D+02  0.2321844432D+00
      0.9286662960D+01  0.4679413484D+00
      0.3163926960D+01  0.3623119853D+00
 SP   3 1.00       0.000000000000
      0.7868272350D+01 -0.1193324198D+00  0.6899906659D-01
      0.1881288540D+01 -0.1608541517D+00  0.3164239610D+00
      0.5442492580D+00  0.1143456438D+01  0.7443082909D+00
 SP   1 1.00       0.000000000000
      0.1687144782D+00  0.1000000000D+01  0.1000000000D+01
 D   1 1.00       0.000000000000
      0.8000000000D+00  0.1000000000D+01
 ****
     36 0
 S   3 1.00       0.000000000000
      0.1873113696D+02  0.3349460434D-01
      0.2825394365D+01  0.2347269535D+00
      0.6401216923D+00  0.8137573261D+00
 S   1 1.00       0.000000000000
      0.1612777588D+00  0.1000000000D+01
 ****
     37 0
 S   3 1.00       0.000000000000
      0.1873113696D+02  0.3349460434D-01
      0.2825394365D+01  0.2347269535D+00
      0.6401216923D+00  0.8137573261D+00
 S   1 1.00       0.000000000000
      0.1612777588D+00  0.1000000000D+01
 ****
     38 0
 S   6 1.00       0.000000000000
      0.3047524880D+04  0.1834737132D-02
      0.4573695180D+03  0.1403732281D-01
      0.1039486850D+03  0.6884262226D-01
      0.2921015530D+02  0.2321844432D+00
      0.9286662960D+01  0.4679413484D+00
      0.3163926960D+01  0.3623119853D+00
 SP   3 1.00       0.000000000000
      0.7868272350D+01 -0.1193324198D+00  0.6899906659D-01
      0.1881288540D+01 -0.1608541517D+00  0.3164239610D+00
      0.5442492580D+00  0.1143456438D+01  0.7443082909D+00
 SP   1 1.00       0.000000000000
      0.1687144782D+00  0.1000000000D+01  0.1000000000D+01
 D   1 1.00       0.000000000000
      0.8000000000D+00  0.1000000000D+01
 ****
     39 0
 S   3 1.00       0.000000000000
      0.1873113696D+02  0.3349460434D-01
      0.2825394365D+01  0.2347269535D+00
      0.6401216923D+00  0.8137573261D+00
 S   1 1.00       0.000000000000
      0.1612777588D+00  0.1000000000D+01
 ****
     40 0
 S   6 1.00       0.000000000000
      0.3047524880D+04  0.1834737132D-02
      0.4573695180D+03  0.1403732281D-01
      0.1039486850D+03  0.6884262226D-01
      0.2921015530D+02  0.2321844432D+00
      0.9286662960D+01  0.4679413484D+00
      0.3163926960D+01  0.3623119853D+00
 SP   3 1.00       0.000000000000
      0.7868272350D+01 -0.1193324198D+00  0.6899906659D-01
      0.1881288540D+01 -0.1608541517D+00  0.3164239610D+00
      0.5442492580D+00  0.1143456438D+01  0.7443082909D+00
 SP   1 1.00       0.000000000000
      0.1687144782D+00  0.1000000000D+01  0.1000000000D+01
 D   1 1.00       0.000000000000
      0.8000000000D+00  0.1000000000D+01
 ****
     41 0
 S   3 1.00       0.000000000000
      0.1873113696D+02  0.3349460434D-01
      0.2825394365D+01  0.2347269535D+00
      0.6401216923D+00  0.8137573261D+00
 S   1 1.00       0.000000000000
      0.1612777588D+00  0.1000000000D+01
 ****
     42 0
 S   3 1.00       0.000000000000
      0.1873113696D+02  0.3349460434D-01
      0.2825394365D+01  0.2347269535D+00
      0.6401216923D+00  0.8137573261D+00
 S   1 1.00       0.000000000000
      0.1612777588D+00  0.1000000000D+01
 ****
     43 0
 S   3 1.00       0.000000000000
      0.1873113696D+02  0.3349460434D-01
      0.2825394365D+01  0.2347269535D+00
      0.6401216923D+00  0.8137573261D+00
 S   1 1.00       0.000000000000
      0.1612777588D+00  0.1000000000D+01
 ****
     44 0
 S   6 1.00       0.000000000000
      0.3047524880D+04  0.1834737132D-02
      0.4573695180D+03  0.1403732281D-01
      0.1039486850D+03  0.6884262226D-01
      0.2921015530D+02  0.2321844432D+00
      0.9286662960D+01  0.4679413484D+00
      0.3163926960D+01  0.3623119853D+00
 SP   3 1.00       0.000000000000
      0.7868272350D+01 -0.1193324198D+00  0.6899906659D-01
      0.1881288540D+01 -0.1608541517D+00  0.3164239610D+00
      0.5442492580D+00  0.1143456438D+01  0.7443082909D+00
 SP   1 1.00       0.000000000000
      0.1687144782D+00  0.1000000000D+01  0.1000000000D+01
 D   1 1.00       0.000000000000
      0.8000000000D+00  0.1000000000D+01
 ****
     45 0
 S   3 1.00       0.000000000000
      0.1873113696D+02  0.3349460434D-01
      0.2825394365D+01  0.2347269535D+00
      0.6401216923D+00  0.8137573261D+00
 S   1 1.00       0.000000000000
      0.1612777588D+00  0.1000000000D+01
 ****
     46 0
 S   3 1.00       0.000000000000
      0.1873113696D+02  0.3349460434D-01
      0.2825394365D+01  0.2347269535D+00
      0.6401216923D+00  0.8137573261D+00
 S   1 1.00       0.000000000000
      0.1612777588D+00  0.1000000000D+01
 ****
     47 0
 S   6 1.00       0.000000000000
      0.3047524880D+04  0.1834737132D-02
      0.4573695180D+03  0.1403732281D-01
      0.1039486850D+03  0.6884262226D-01
      0.2921015530D+02  0.2321844432D+00
      0.9286662960D+01  0.4679413484D+00
      0.3163926960D+01  0.3623119853D+00
 SP   3 1.00       0.000000000000
      0.7868272350D+01 -0.1193324198D+00  0.6899906659D-01
      0.1881288540D+01 -0.1608541517D+00  0.3164239610D+00
      0.5442492580D+00  0.1143456438D+01  0.7443082909D+00
 SP   1 1.00       0.000000000000
      0.1687144782D+00  0.1000000000D+01  0.1000000000D+01
 D   1 1.00       0.000000000000
      0.8000000000D+00  0.1000000000D+01
 ****
     48 0
 S   3 1.00       0.000000000000
      0.1873113696D+02  0.3349460434D-01
      0.2825394365D+01  0.2347269535D+00
      0.6401216923D+00  0.8137573261D+00
 S   1 1.00       0.000000000000
      0.1612777588D+00  0.1000000000D+01
 ****
     49 0
 S   3 1.00       0.000000000000
      0.1873113696D+02  0.3349460434D-01
      0.2825394365D+01  0.2347269535D+00
      0.6401216923D+00  0.8137573261D+00
 S   1 1.00       0.000000000000
      0.1612777588D+00  0.1000000000D+01
 ****
     50 0
 S   6 1.00       0.000000000000
      0.3047524880D+04  0.1834737132D-02
      0.4573695180D+03  0.1403732281D-01
      0.1039486850D+03  0.6884262226D-01
      0.2921015530D+02  0.2321844432D+00
      0.9286662960D+01  0.4679413484D+00
      0.3163926960D+01  0.3623119853D+00
 SP   3 1.00       0.000000000000
      0.7868272350D+01 -0.1193324198D+00  0.6899906659D-01
      0.1881288540D+01 -0.1608541517D+00  0.3164239610D+00
      0.5442492580D+00  0.1143456438D+01  0.7443082909D+00
 SP   1 1.00       0.000000000000
      0.1687144782D+00  0.1000000000D+01  0.1000000000D+01
 D   1 1.00       0.000000000000
      0.8000000000D+00  0.1000000000D+01
 ****
     51 0
 S   3 1.00       0.000000000000
      0.1873113696D+02  0.3349460434D-01
      0.2825394365D+01  0.2347269535D+00
      0.6401216923D+00  0.8137573261D+00
 S   1 1.00       0.000000000000
      0.1612777588D+00  0.1000000000D+01
 ****
     52 0
 S   3 1.00       0.000000000000
      0.1873113696D+02  0.3349460434D-01
      0.2825394365D+01  0.2347269535D+00
      0.6401216923D+00  0.8137573261D+00
 S   1 1.00       0.000000000000
      0.1612777588D+00  0.1000000000D+01
 ****
     53 0
 S   6 1.00       0.000000000000
      0.3047524880D+04  0.1834737132D-02
      0.4573695180D+03  0.1403732281D-01
      0.1039486850D+03  0.6884262226D-01
      0.2921015530D+02  0.2321844432D+00
      0.9286662960D+01  0.4679413484D+00
      0.3163926960D+01  0.3623119853D+00
 SP   3 1.00       0.000000000000
      0.7868272350D+01 -0.1193324198D+00  0.6899906659D-01
      0.1881288540D+01 -0.1608541517D+00  0.3164239610D+00
      0.5442492580D+00  0.1143456438D+01  0.7443082909D+00
 SP   1 1.00       0.000000000000
      0.1687144782D+00  0.1000000000D+01  0.1000000000D+01
 D   1 1.00       0.000000000000
      0.8000000000D+00  0.1000000000D+01
 ****
     54 0
 S   3 1.00       0.000000000000
      0.1873113696D+02  0.3349460434D-01
      0.2825394365D+01  0.2347269535D+00
      0.6401216923D+00  0.8137573261D+00
 S   1 1.00       0.000000000000
      0.1612777588D+00  0.1000000000D+01
 ****
     55 0
 S   6 1.00       0.000000000000
      0.3047524880D+04  0.1834737132D-02
      0.4573695180D+03  0.1403732281D-01
      0.1039486850D+03  0.6884262226D-01
      0.2921015530D+02  0.2321844432D+00
      0.9286662960D+01  0.4679413484D+00
      0.3163926960D+01  0.3623119853D+00
 SP   3 1.00       0.000000000000
      0.7868272350D+01 -0.1193324198D+00  0.6899906659D-01
      0.1881288540D+01 -0.1608541517D+00  0.3164239610D+00
      0.5442492580D+00  0.1143456438D+01  0.7443082909D+00
 SP   1 1.00       0.000000000000
      0.1687144782D+00  0.1000000000D+01  0.1000000000D+01
 D   1 1.00       0.000000000000
      0.8000000000D+00  0.1000000000D+01
 ****
     56 0
 S   3 1.00       0.000000000000
      0.1873113696D+02  0.3349460434D-01
      0.2825394365D+01  0.2347269535D+00
      0.6401216923D+00  0.8137573261D+00
 S   1 1.00       0.000000000000
      0.1612777588D+00  0.1000000000D+01
 ****
     57 0
 S   3 1.00       0.000000000000
      0.1873113696D+02  0.3349460434D-01
      0.2825394365D+01  0.2347269535D+00
      0.6401216923D+00  0.8137573261D+00
 S   1 1.00       0.000000000000
      0.1612777588D+00  0.1000000000D+01
 ****
     58 0
 S   3 1.00       0.000000000000
      0.1873113696D+02  0.3349460434D-01
      0.2825394365D+01  0.2347269535D+00
      0.6401216923D+00  0.8137573261D+00
 S   1 1.00       0.000000000000
      0.1612777588D+00  0.1000000000D+01
 ****
     59 0
 S   6 1.00       0.000000000000
      0.3047524880D+04  0.1834737132D-02
      0.4573695180D+03  0.1403732281D-01
      0.1039486850D+03  0.6884262226D-01
      0.2921015530D+02  0.2321844432D+00
      0.9286662960D+01  0.4679413484D+00
      0.3163926960D+01  0.3623119853D+00
 SP   3 1.00       0.000000000000
      0.7868272350D+01 -0.1193324198D+00  0.6899906659D-01
      0.1881288540D+01 -0.1608541517D+00  0.3164239610D+00
      0.5442492580D+00  0.1143456438D+01  0.7443082909D+00
 SP   1 1.00       0.000000000000
      0.1687144782D+00  0.1000000000D+01  0.1000000000D+01
 D   1 1.00       0.000000000000
      0.8000000000D+00  0.1000000000D+01
 ****
     60 0
 S   3 1.00       0.000000000000
      0.1873113696D+02  0.3349460434D-01
      0.2825394365D+01  0.2347269535D+00
      0.6401216923D+00  0.8137573261D+00
 S   1 1.00       0.000000000000
      0.1612777588D+00  0.1000000000D+01
 ****
     61 0
 S   3 1.00       0.000000000000
      0.1873113696D+02  0.3349460434D-01
      0.2825394365D+01  0.2347269535D+00
      0.6401216923D+00  0.8137573261D+00
 S   1 1.00       0.000000000000
      0.1612777588D+00  0.1000000000D+01
 ****
     62 0
 S   6 1.00       0.000000000000
      0.3047524880D+04  0.1834737132D-02
      0.4573695180D+03  0.1403732281D-01
      0.1039486850D+03  0.6884262226D-01
      0.2921015530D+02  0.2321844432D+00
      0.9286662960D+01  0.4679413484D+00
      0.3163926960D+01  0.3623119853D+00
 SP   3 1.00       0.000000000000
      0.7868272350D+01 -0.1193324198D+00  0.6899906659D-01
      0.1881288540D+01 -0.1608541517D+00  0.3164239610D+00
      0.5442492580D+00  0.1143456438D+01  0.7443082909D+00
 SP   1 1.00       0.000000000000
      0.1687144782D+00  0.1000000000D+01  0.1000000000D+01
 D   1 1.00       0.000000000000
      0.8000000000D+00  0.1000000000D+01
 ****
     63 0
 S   3 1.00       0.000000000000
      0.1873113696D+02  0.3349460434D-01
      0.2825394365D+01  0.2347269535D+00
      0.6401216923D+00  0.8137573261D+00
 S   1 1.00       0.000000000000
      0.1612777588D+00  0.1000000000D+01
 ****
     64 0
 S   3 1.00       0.000000000000
      0.1873113696D+02  0.3349460434D-01
      0.2825394365D+01  0.2347269535D+00
      0.6401216923D+00  0.8137573261D+00
 S   1 1.00       0.000000000000
      0.1612777588D+00  0.1000000000D+01
 ****
     65 0
 S   6 1.00       0.000000000000
      0.3047524880D+04  0.1834737132D-02
      0.4573695180D+03  0.1403732281D-01
      0.1039486850D+03  0.6884262226D-01
      0.2921015530D+02  0.2321844432D+00
      0.9286662960D+01  0.4679413484D+00
      0.3163926960D+01  0.3623119853D+00
 SP   3 1.00       0.000000000000
      0.7868272350D+01 -0.1193324198D+00  0.6899906659D-01
      0.1881288540D+01 -0.1608541517D+00  0.3164239610D+00
      0.5442492580D+00  0.1143456438D+01  0.7443082909D+00
 SP   1 1.00       0.000000000000
      0.1687144782D+00  0.1000000000D+01  0.1000000000D+01
 D   1 1.00       0.000000000000
      0.8000000000D+00  0.1000000000D+01
 ****
     66 0
 S   3 1.00       0.000000000000
      0.1873113696D+02  0.3349460434D-01
      0.2825394365D+01  0.2347269535D+00
      0.6401216923D+00  0.8137573261D+00
 S   1 1.00       0.000000000000
      0.1612777588D+00  0.1000000000D+01
 ****
     67 0
 S   6 1.00       0.000000000000
      0.3047524880D+04  0.1834737132D-02
      0.4573695180D+03  0.1403732281D-01
      0.1039486850D+03  0.6884262226D-01
      0.2921015530D+02  0.2321844432D+00
      0.9286662960D+01  0.4679413484D+00
      0.3163926960D+01  0.3623119853D+00
 SP   3 1.00       0.000000000000
      0.7868272350D+01 -0.1193324198D+00  0.6899906659D-01
      0.1881288540D+01 -0.1608541517D+00  0.3164239610D+00
      0.5442492580D+00  0.1143456438D+01  0.7443082909D+00
 SP   1 1.00       0.000000000000
      0.1687144782D+00  0.1000000000D+01  0.1000000000D+01
 D   1 1.00       0.000000000000
      0.8000000000D+00  0.1000000000D+01
 ****
     68 0
 S   3 1.00       0.000000000000
      0.1873113696D+02  0.3349460434D-01
      0.2825394365D+01  0.2347269535D+00
      0.6401216923D+00  0.8137573261D+00
 S   1 1.00       0.000000000000
      0.1612777588D+00  0.1000000000D+01
 ****
     69 0
 S   3 1.00       0.000000000000
      0.1873113696D+02  0.3349460434D-01
      0.2825394365D+01  0.2347269535D+00
      0.6401216923D+00  0.8137573261D+00
 S   1 1.00       0.000000000000
      0.1612777588D+00  0.1000000000D+01
 ****
     70 0
 S   3 1.00       0.000000000000
      0.1873113696D+02  0.3349460434D-01
      0.2825394365D+01  0.2347269535D+00
      0.6401216923D+00  0.8137573261D+00
 S   1 1.00       0.000000000000
      0.1612777588D+00  0.1000000000D+01
 ****
     71 0
 S   6 1.00       0.000000000000
      0.3047524880D+04  0.1834737132D-02
      0.4573695180D+03  0.1403732281D-01
      0.1039486850D+03  0.6884262226D-01
      0.2921015530D+02  0.2321844432D+00
      0.9286662960D+01  0.4679413484D+00
      0.3163926960D+01  0.3623119853D+00
 SP   3 1.00       0.000000000000
      0.7868272350D+01 -0.1193324198D+00  0.6899906659D-01
      0.1881288540D+01 -0.1608541517D+00  0.3164239610D+00
      0.5442492580D+00  0.1143456438D+01  0.7443082909D+00
 SP   1 1.00       0.000000000000
      0.1687144782D+00  0.1000000000D+01  0.1000000000D+01
 D   1 1.00       0.000000000000
      0.8000000000D+00  0.1000000000D+01
 ****
     72 0
 S   3 1.00       0.000000000000
      0.1873113696D+02  0.3349460434D-01
      0.2825394365D+01  0.2347269535D+00
      0.6401216923D+00  0.8137573261D+00
 S   1 1.00       0.000000000000
      0.1612777588D+00  0.1000000000D+01
 ****
     73 0
 S   3 1.00       0.000000000000
      0.1873113696D+02  0.3349460434D-01
      0.2825394365D+01  0.2347269535D+00
      0.6401216923D+00  0.8137573261D+00
 S   1 1.00       0.000000000000
      0.1612777588D+00  0.1000000000D+01
 ****
     74 0
 S   3 1.00       0.000000000000
      0.1873113696D+02  0.3349460434D-01
      0.2825394365D+01  0.2347269535D+00
      0.6401216923D+00  0.8137573261D+00
 S   1 1.00       0.000000000000
      0.1612777588D+00  0.1000000000D+01
 ****

 AO basis set (Overlap normalization):
 Atom O1       Shell     1 S   6     bf    1 -     1          7.958618968534         12.375739456825          7.796285352109
      0.5484671660D+04  0.1831074430D-02
      0.8252349460D+03  0.1395017220D-01
      0.1880469580D+03  0.6844507810D-01
      0.5296450000D+02  0.2327143360D+00
      0.1689757040D+02  0.4701928980D+00
      0.5799635340D+01  0.3585208530D+00
 Atom O1       Shell     2 SP   3    bf    2 -     5          7.958618968534         12.375739456825          7.796285352109
      0.1553961625D+02 -0.1107775495D+00  0.7087426823D-01
      0.3599933586D+01 -0.1480262627D+00  0.3397528391D+00
      0.1013761750D+01  0.1130767015D+01  0.7271585773D+00
 Atom O1       Shell     3 SP   1    bf    6 -     9          7.958618968534         12.375739456825          7.796285352109
      0.2700058226D+00  0.1000000000D+01  0.1000000000D+01
 Atom O1       Shell     4 D   1     bf   10 -    15          7.958618968534         12.375739456825          7.796285352109
      0.8000000000D+00  0.1000000000D+01
 Atom H2       Shell     5 S   3     bf   16 -    16          9.431556837640         13.037692266421          6.943360296620
      0.1873113696D+02  0.3349460434D-01
      0.2825394365D+01  0.2347269535D+00
      0.6401216923D+00  0.8137573261D+00
 Atom H2       Shell     6 S   1     bf   17 -    17          9.431556837640         13.037692266421          6.943360296620
      0.1612777588D+00  0.1000000000D+01
 Atom C3       Shell     7 S   6     bf   18 -    18          0.000000000000          0.000000000000          0.000000000000
      0.3047524880D+04  0.1834737132D-02
      0.4573695180D+03  0.1403732281D-01
      0.1039486850D+03  0.6884262226D-01
      0.2921015530D+02  0.2321844432D+00
      0.9286662960D+01  0.4679413484D+00
      0.3163926960D+01  0.3623119853D+00
 Atom C3       Shell     8 SP   3    bf   19 -    22          0.000000000000          0.000000000000          0.000000000000
      0.7868272350D+01 -0.1193324198D+00  0.6899906659D-01
      0.1881288540D+01 -0.1608541517D+00  0.3164239610D+00
      0.5442492580D+00  0.1143456438D+01  0.7443082909D+00
 Atom C3       Shell     9 SP   1    bf   23 -    26          0.000000000000          0.000000000000          0.000000000000
      0.1687144782D+00  0.1000000000D+01  0.1000000000D+01
 Atom C3       Shell    10 D   1     bf   27 -    32          0.000000000000          0.000000000000          0.000000000000
      0.8000000000D+00  0.1000000000D+01
 Atom C4       Shell    11 S   6     bf   33 -    33          2.541877084208          1.169823491925         -0.894444946450
      0.3047524880D+04  0.1834737132D-02
      0.4573695180D+03  0.1403732281D-01
      0.1039486850D+03  0.6884262226D-01
      0.2921015530D+02  0.2321844432D+00
      0.9286662960D+01  0.4679413484D+00
      0.3163926960D+01  0.3623119853D+00
 Atom C4       Shell    12 SP   3    bf   34 -    37          2.541877084208          1.169823491925         -0.894444946450
      0.7868272350D+01 -0.1193324198D+00  0.6899906659D-01
      0.1881288540D+01 -0.1608541517D+00  0.3164239610D+00
      0.5442492580D+00  0.1143456438D+01  0.7443082909D+00
 Atom C4       Shell    13 SP   1    bf   38 -    41          2.541877084208          1.169823491925         -0.894444946450
      0.1687144782D+00  0.1000000000D+01  0.1000000000D+01
 Atom C4       Shell    14 D   1     bf   42 -    47          2.541877084208          1.169823491925         -0.894444946450
      0.8000000000D+00  0.1000000000D+01
 Atom H5       Shell    15 S   3     bf   48 -    48          4.019150060652          0.000000000000          0.000000000000
      0.1873113696D+02  0.3349460434D-01
      0.2825394365D+01  0.2347269535D+00
      0.6401216923D+00  0.8137573261D+00
 Atom H5       Shell    16 S   1     bf   49 -    49          4.019150060652          0.000000000000          0.000000000000
      0.1612777588D+00  0.1000000000D+01
 Atom C6       Shell    17 S   6     bf   50 -    50          3.046915785160          3.881081699403          0.000000000000
      0.3047524880D+04  0.1834737132D-02
      0.4573695180D+03  0.1403732281D-01
      0.1039486850D+03  0.6884262226D-01
      0.2921015530D+02  0.2321844432D+00
      0.9286662960D+01  0.4679413484D+00
      0.3163926960D+01  0.3623119853D+00
 Atom C6       Shell    18 SP   3    bf   51 -    54          3.046915785160          3.881081699403          0.000000000000
      0.7868272350D+01 -0.1193324198D+00  0.6899906659D-01
      0.1881288540D+01 -0.1608541517D+00  0.3164239610D+00
      0.5442492580D+00  0.1143456438D+01  0.7443082909D+00
 Atom C6       Shell    19 SP   1    bf   55 -    58          3.046915785160          3.881081699403          0.000000000000
      0.1687144782D+00  0.1000000000D+01  0.1000000000D+01
 Atom C6       Shell    20 D   1     bf   59 -    64          3.046915785160          3.881081699403          0.000000000000
      0.8000000000D+00  0.1000000000D+01
 Atom H7       Shell    21 S   3     bf   65 -    65          1.602875815948          5.143978455257         -0.797052033144
      0.1873113696D+02  0.3349460434D-01
      0.2825394365D+01  0.2347269535D+00
      0.6401216923D+00  0.8137573261D+00
 Atom H7       Shell    22 S   1     bf   66 -    66          1.602875815948          5.143978455257         -0.797052033144
      0.1612777588D+00  0.1000000000D+01
 Atom C8       Shell    23 S   6     bf   67 -    67          2.921477616391          4.001826582144          2.926349783896
      0.3047524880D+04  0.1834737132D-02
      0.4573695180D+03  0.1403732281D-01
      0.1039486850D+03  0.6884262226D-01
      0.2921015530D+02  0.2321844432D+00
      0.9286662960D+01  0.4679413484D+00
      0.3163926960D+01  0.3623119853D+00
 Atom C8       Shell    24 SP   3    bf   68 -    71          2.921477616391          4.001826582144          2.926349783896
      0.7868272350D+01 -0.1193324198D+00  0.6899906659D-01
      0.1881288540D+01 -0.1608541517D+00  0.3164239610D+00
      0.5442492580D+00  0.1143456438D+01  0.7443082909D+00
 Atom C8       Shell    25 SP   1    bf   72 -    75          2.921477616391          4.001826582144          2.926349783896
      0.1687144782D+00  0.1000000000D+01  0.1000000000D+01
 Atom C8       Shell    26 D   1     bf   76 -    81          2.921477616391          4.001826582144          2.926349783896
      0.8000000000D+00  0.1000000000D+01
 Atom H9       Shell    27 S   3     bf   82 -    82          4.552977189663          2.893207710286          3.598147367445
      0.1873113696D+02  0.3349460434D-01
      0.2825394365D+01  0.2347269535D+00
      0.6401216923D+00  0.8137573261D+00
 Atom H9       Shell    28 S   1     bf   83 -    83          4.552977189663          2.893207710286          3.598147367445
      0.1612777588D+00  0.1000000000D+01
 Atom C10      Shell    29 S   6     bf   84 -    84          0.173795296750         -2.652398057240         -1.310200059159
      0.3047524880D+04  0.1834737132D-02
      0.4573695180D+03  0.1403732281D-01
      0.1039486850D+03  0.6884262226D-01
      0.2921015530D+02  0.2321844432D+00
      0.9286662960D+01  0.4679413484D+00
      0.3163926960D+01  0.3623119853D+00
 Atom C10      Shell    30 SP   3    bf   85 -    88          0.173795296750         -2.652398057240         -1.310200059159
      0.7868272350D+01 -0.1193324198D+00  0.6899906659D-01
      0.1881288540D+01 -0.1608541517D+00  0.3164239610D+00
      0.5442492580D+00  0.1143456438D+01  0.7443082909D+00
 Atom C10      Shell    31 SP   1    bf   89 -    92          0.173795296750         -2.652398057240         -1.310200059159
      0.1687144782D+00  0.1000000000D+01  0.1000000000D+01
 Atom C10      Shell    32 D   1     bf   93 -    98          0.173795296750         -2.652398057240         -1.310200059159
      0.8000000000D+00  0.1000000000D+01
 Atom H11      Shell    33 S   3     bf   99 -    99          1.595366403344         -3.719015460329         -0.231657444822
      0.1873113696D+02  0.3349460434D-01
      0.2825394365D+01  0.2347269535D+00
      0.6401216923D+00  0.8137573261D+00
 Atom H11      Shell    34 S   1     bf  100 -   100          1.595366403344         -3.719015460329         -0.231657444822
      0.1612777588D+00  0.1000000000D+01
 Atom C12      Shell    35 S   6     bf  101 -   101          0.065135023657          0.018115292655          2.913998231535
      0.3047524880D+04  0.1834737132D-02
      0.4573695180D+03  0.1403732281D-01
      0.1039486850D+03  0.6884262226D-01
      0.2921015530D+02  0.2321844432D+00
      0.9286662960D+01  0.4679413484D+00
      0.3163926960D+01  0.3623119853D+00
 Atom C12      Shell    36 SP   3    bf  102 -   105          0.065135023657          0.018115292655          2.913998231535
      0.7868272350D+01 -0.1193324198D+00  0.6899906659D-01
      0.1881288540D+01 -0.1608541517D+00  0.3164239610D+00
      0.5442492580D+00  0.1143456438D+01  0.7443082909D+00
 Atom C12      Shell    37 SP   1    bf  106 -   109          0.065135023657          0.018115292655          2.913998231535
      0.1687144782D+00  0.1000000000D+01  0.1000000000D+01
 Atom C12      Shell    38 D   1     bf  110 -   115          0.065135023657          0.018115292655          2.913998231535
      0.8000000000D+00  0.1000000000D+01
 Atom H13      Shell    39 S   3     bf  116 -   116          1.582867792496         -1.249889865367          3.552311304201
      0.1873113696D+02  0.3349460434D-01
      0.2825394365D+01  0.2347269535D+00
      0.6401216923D+00  0.8137573261D+00
 Atom H13      Shell    40 S   1     bf  117 -   117          1.582867792496         -1.249889865367          3.552311304201
      0.1612777588D+00  0.1000000000D+01
 Atom H14      Shell    41 S   3     bf  118 -   118         -1.692035835001         -0.714315703443          3.724048027788
      0.1873113696D+02  0.3349460434D-01
      0.2825394365D+01  0.2347269535D+00
      0.6401216923D+00  0.8137573261D+00
 Atom H14      Shell    42 S   1     bf  119 -   119         -1.692035835001         -0.714315703443          3.724048027788
      0.1612777588D+00  0.1000000000D+01
 Atom C15      Shell    43 S   6     bf  120 -   120          3.328534451991          6.744629817883          3.977629149238
      0.3047524880D+04  0.1834737132D-02
      0.4573695180D+03  0.1403732281D-01
      0.1039486850D+03  0.6884262226D-01
      0.2921015530D+02  0.2321844432D+00
      0.9286662960D+01  0.4679413484D+00
      0.3163926960D+01  0.3623119853D+00
 Atom C15      Shell    44 SP   3    bf  121 -   124          3.328534451991          6.744629817883          3.977629149238
      0.7868272350D+01 -0.1193324198D+00  0.6899906659D-01
      0.1881288540D+01 -0.1608541517D+00  0.3164239610D+00
      0.5442492580D+00  0.1143456438D+01  0.7443082909D+00
 Atom C15      Shell    45 SP   1    bf  125 -   128          3.328534451991          6.744629817883          3.977629149238
      0.1687144782D+00  0.1000000000D+01  0.1000000000D+01
 Atom C15      Shell    46 D   1     bf  129 -   134          3.328534451991          6.744629817883          3.977629149238
      0.8000000000D+00  0.1000000000D+01
 Atom C16      Shell    47 S   6     bf  135 -   135          2.647587305835          0.584839870229         -3.736897277320
      0.3047524880D+04  0.1834737132D-02
      0.4573695180D+03  0.1403732281D-01
      0.1039486850D+03  0.6884262226D-01
      0.2921015530D+02  0.2321844432D+00
      0.9286662960D+01  0.4679413484D+00
      0.3163926960D+01  0.3623119853D+00
 Atom C16      Shell    48 SP   3    bf  136 -   139          2.647587305835          0.584839870229         -3.736897277320
      0.7868272350D+01 -0.1193324198D+00  0.6899906659D-01
      0.1881288540D+01 -0.1608541517D+00  0.3164239610D+00
      0.5442492580D+00  0.1143456438D+01  0.7443082909D+00
 Atom C16      Shell    49 SP   1    bf  140 -   143          2.647587305835          0.584839870229         -3.736897277320
      0.1687144782D+00  0.1000000000D+01  0.1000000000D+01
 Atom C16      Shell    50 D   1     bf  144 -   149          2.647587305835          0.584839870229         -3.736897277320
      0.8000000000D+00  0.1000000000D+01
 Atom H17      Shell    51 S   3     bf  150 -   150          4.584133444567          0.545575650866         -4.462695844918
      0.1873113696D+02  0.3349460434D-01
      0.2825394365D+01  0.2347269535D+00
      0.6401216923D+00  0.8137573261D+00
 Atom H17      Shell    52 S   1     bf  151 -   151          4.584133444567          0.545575650866         -4.462695844918
      0.1612777588D+00  0.1000000000D+01
 Atom H18      Shell    53 S   3     bf  152 -   152          1.633917402270          2.032006977143         -4.821643201147
      0.1873113696D+02  0.3349460434D-01
      0.2825394365D+01  0.2347269535D+00
      0.6401216923D+00  0.8137573261D+00
 Atom H18      Shell    54 S   1     bf  153 -   153          1.633917402270          2.032006977143         -4.821643201147
      0.1612777588D+00  0.1000000000D+01
 Atom C19      Shell    55 S   6     bf  154 -   154          0.526272003932          2.694962475425          3.973485244390
      0.3047524880D+04  0.1834737132D-02
      0.4573695180D+03  0.1403732281D-01
      0.1039486850D+03  0.6884262226D-01
      0.2921015530D+02  0.2321844432D+00
      0.9286662960D+01  0.4679413484D+00
      0.3163926960D+01  0.3623119853D+00
 Atom C19      Shell    56 SP   3    bf  155 -   158          0.526272003932          2.694962475425          3.973485244390
      0.7868272350D+01 -0.1193324198D+00  0.6899906659D-01
      0.1881288540D+01 -0.1608541517D+00  0.3164239610D+00
      0.5442492580D+00  0.1143456438D+01  0.7443082909D+00
 Atom C19      Shell    57 SP   1    bf  159 -   162          0.526272003932          2.694962475425          3.973485244390
      0.1687144782D+00  0.1000000000D+01  0.1000000000D+01
 Atom C19      Shell    58 D   1     bf  163 -   168          0.526272003932          2.694962475425          3.973485244390
      0.8000000000D+00  0.1000000000D+01
 Atom H20      Shell    59 S   3     bf  169 -   169         -1.139338033107          3.856588618844          3.573989675480
      0.1873113696D+02  0.3349460434D-01
      0.2825394365D+01  0.2347269535D+00
      0.6401216923D+00  0.8137573261D+00
 Atom H20      Shell    60 S   1     bf  170 -   170         -1.139338033107          3.856588618844          3.573989675480
      0.1612777588D+00  0.1000000000D+01
 Atom H21      Shell    61 S   3     bf  171 -   171          0.647617044795          2.568952324349          6.037012267615
      0.1873113696D+02  0.3349460434D-01
      0.2825394365D+01  0.2347269535D+00
      0.6401216923D+00  0.8137573261D+00
 Atom H21      Shell    62 S   1     bf  172 -   172          0.647617044795          2.568952324349          6.037012267615
      0.1612777588D+00  0.1000000000D+01
 Atom C22      Shell    63 S   6     bf  173 -   173          1.320414803695         -2.025542545296         -3.962968767283
      0.3047524880D+04  0.1834737132D-02
      0.4573695180D+03  0.1403732281D-01
      0.1039486850D+03  0.6884262226D-01
      0.2921015530D+02  0.2321844432D+00
      0.9286662960D+01  0.4679413484D+00
      0.3163926960D+01  0.3623119853D+00
 Atom C22      Shell    64 SP   3    bf  174 -   177          1.320414803695         -2.025542545296         -3.962968767283
      0.7868272350D+01 -0.1193324198D+00  0.6899906659D-01
      0.1881288540D+01 -0.1608541517D+00  0.3164239610D+00
      0.5442492580D+00  0.1143456438D+01  0.7443082909D+00
 Atom C22      Shell    65 SP   1    bf  178 -   181          1.320414803695         -2.025542545296         -3.962968767283
      0.1687144782D+00  0.1000000000D+01  0.1000000000D+01
 Atom C22      Shell    66 D   1     bf  182 -   187          1.320414803695         -2.025542545296         -3.962968767283
      0.8000000000D+00  0.1000000000D+01
 Atom H23      Shell    67 S   3     bf  188 -   188         -0.174264704721         -1.964930184296         -5.396515162868
      0.1873113696D+02  0.3349460434D-01
      0.2825394365D+01  0.2347269535D+00
      0.6401216923D+00  0.8137573261D+00
 Atom H23      Shell    68 S   1     bf  189 -   189         -0.174264704721         -1.964930184296         -5.396515162868
      0.1612777588D+00  0.1000000000D+01
 Atom H24      Shell    69 S   3     bf  190 -   190          2.641263431817         -3.498528961466         -4.565947060415
      0.1873113696D+02  0.3349460434D-01
      0.2825394365D+01  0.2347269535D+00
      0.6401216923D+00  0.8137573261D+00
 Atom H24      Shell    70 S   1     bf  191 -   191          2.641263431817         -3.498528961466         -4.565947060415
      0.1612777588D+00  0.1000000000D+01
 Atom C25      Shell    71 S   6     bf  192 -   192          5.642590462193          4.810370682408         -0.915212375247
      0.3047524880D+04  0.1834737132D-02
      0.4573695180D+03  0.1403732281D-01
      0.1039486850D+03  0.6884262226D-01
      0.2921015530D+02  0.2321844432D+00
      0.9286662960D+01  0.4679413484D+00
      0.3163926960D+01  0.3623119853D+00
 Atom C25      Shell    72 SP   3    bf  193 -   196          5.642590462193          4.810370682408         -0.915212375247
      0.7868272350D+01 -0.1193324198D+00  0.6899906659D-01
      0.1881288540D+01 -0.1608541517D+00  0.3164239610D+00
      0.5442492580D+00  0.1143456438D+01  0.7443082909D+00
 Atom C25      Shell    73 SP   1    bf  197 -   200          5.642590462193          4.810370682408         -0.915212375247
      0.1687144782D+00  0.1000000000D+01  0.1000000000D+01
 Atom C25      Shell    74 D   1     bf  201 -   206          5.642590462193          4.810370682408         -0.915212375247
      0.8000000000D+00  0.1000000000D+01
 Atom H26      Shell    75 S   3     bf  207 -   207          5.578484961334          5.214008190851         -2.949779477765
      0.1873113696D+02  0.3349460434D-01
      0.2825394365D+01  0.2347269535D+00
      0.6401216923D+00  0.8137573261D+00
 Atom H26      Shell    76 S   1     bf  208 -   208          5.578484961334          5.214008190851         -2.949779477765
      0.1612777588D+00  0.1000000000D+01
 Atom H27      Shell    77 S   3     bf  209 -   209          7.042027452258          3.280868623624         -0.702266601750
      0.1873113696D+02  0.3349460434D-01
      0.2825394365D+01  0.2347269535D+00
      0.6401216923D+00  0.8137573261D+00
 Atom H27      Shell    78 S   1     bf  210 -   210          7.042027452258          3.280868623624         -0.702266601750
      0.1612777588D+00  0.1000000000D+01
 Atom C28      Shell    79 S   6     bf  211 -   211         -2.217739371518         -4.329913066561         -1.494951307725
      0.3047524880D+04  0.1834737132D-02
      0.4573695180D+03  0.1403732281D-01
      0.1039486850D+03  0.6884262226D-01
      0.2921015530D+02  0.2321844432D+00
      0.9286662960D+01  0.4679413484D+00
      0.3163926960D+01  0.3623119853D+00
 Atom C28      Shell    80 SP   3    bf  212 -   215         -2.217739371518         -4.329913066561         -1.494951307725
      0.7868272350D+01 -0.1193324198D+00  0.6899906659D-01
      0.1881288540D+01 -0.1608541517D+00  0.3164239610D+00
      0.5442492580D+00  0.1143456438D+01  0.7443082909D+00
 Atom C28      Shell    81 SP   1    bf  216 -   219         -2.217739371518         -4.329913066561         -1.494951307725
      0.1687144782D+00  0.1000000000D+01  0.1000000000D+01
 Atom C28      Shell    82 D   1     bf  220 -   225         -2.217739371518         -4.329913066561         -1.494951307725
      0.8000000000D+00  0.1000000000D+01
 Atom H29      Shell    83 S   3     bf  226 -   226         -3.627648052181         -3.274850110453         -2.599049879084
      0.1873113696D+02  0.3349460434D-01
      0.2825394365D+01  0.2347269535D+00
      0.6401216923D+00  0.8137573261D+00
 Atom H29      Shell    84 S   1     bf  227 -   227         -3.627648052181         -3.274850110453         -2.599049879084
      0.1612777588D+00  0.1000000000D+01
 Atom C30      Shell    85 S   6     bf  228 -   228         -2.321956615014          1.471873046225         -0.987472006575
      0.3047524880D+04  0.1834737132D-02
      0.4573695180D+03  0.1403732281D-01
      0.1039486850D+03  0.6884262226D-01
      0.2921015530D+02  0.2321844432D+00
      0.9286662960D+01  0.4679413484D+00
      0.3163926960D+01  0.3623119853D+00
 Atom C30      Shell    86 SP   3    bf  229 -   232         -2.321956615014          1.471873046225         -0.987472006575
      0.7868272350D+01 -0.1193324198D+00  0.6899906659D-01
      0.1881288540D+01 -0.1608541517D+00  0.3164239610D+00
      0.5442492580D+00  0.1143456438D+01  0.7443082909D+00
 Atom C30      Shell    87 SP   1    bf  233 -   236         -2.321956615014          1.471873046225         -0.987472006575
      0.1687144782D+00  0.1000000000D+01  0.1000000000D+01
 Atom C30      Shell    88 D   1     bf  237 -   242         -2.321956615014          1.471873046225         -0.987472006575
      0.8000000000D+00  0.1000000000D+01
 Atom H31      Shell    89 S   3     bf  243 -   243         -4.072428999242          0.657160180663         -0.241980130515
      0.1873113696D+02  0.3349460434D-01
      0.2825394365D+01  0.2347269535D+00
      0.6401216923D+00  0.8137573261D+00
 Atom H31      Shell    90 S   1     bf  244 -   244         -4.072428999242          0.657160180663         -0.241980130515
      0.1612777588D+00  0.1000000000D+01
 Atom H32      Shell    91 S   3     bf  245 -   245         -2.289014190969          3.458790647611         -0.426246872198
      0.1873113696D+02  0.3349460434D-01
      0.2825394365D+01  0.2347269535D+00
      0.6401216923D+00  0.8137573261D+00
 Atom H32      Shell    92 S   1     bf  246 -   246         -2.289014190969          3.458790647611         -0.426246872198
      0.1612777588D+00  0.1000000000D+01
 Atom H33      Shell    93 S   3     bf  247 -   247         -2.451465102695          1.423612521044         -3.050740893210
      0.1873113696D+02  0.3349460434D-01
      0.2825394365D+01  0.2347269535D+00
      0.6401216923D+00  0.8137573261D+00
 Atom H33      Shell    94 S   1     bf  248 -   248         -2.451465102695          1.423612521044         -3.050740893210
      0.1612777588D+00  0.1000000000D+01
 Atom C34      Shell    95 S   6     bf  249 -   249          5.550185707782          8.019385776850          2.614857683850
      0.3047524880D+04  0.1834737132D-02
      0.4573695180D+03  0.1403732281D-01
      0.1039486850D+03  0.6884262226D-01
      0.2921015530D+02  0.2321844432D+00
      0.9286662960D+01  0.4679413484D+00
      0.3163926960D+01  0.3623119853D+00
 Atom C34      Shell    96 SP   3    bf  250 -   253          5.550185707782          8.019385776850          2.614857683850
      0.7868272350D+01 -0.1193324198D+00  0.6899906659D-01
      0.1881288540D+01 -0.1608541517D+00  0.3164239610D+00
      0.5442492580D+00  0.1143456438D+01  0.7443082909D+00
 Atom C34      Shell    97 SP   1    bf  254 -   257          5.550185707782          8.019385776850          2.614857683850
      0.1687144782D+00  0.1000000000D+01  0.1000000000D+01
 Atom C34      Shell    98 D   1     bf  258 -   263          5.550185707782          8.019385776850          2.614857683850
      0.8000000000D+00  0.1000000000D+01
 Atom C35      Shell    99 S   6     bf  264 -   264          3.994288502394          6.563202030666          6.844921665563
      0.3047524880D+04  0.1834737132D-02
      0.4573695180D+03  0.1403732281D-01
      0.1039486850D+03  0.6884262226D-01
      0.2921015530D+02  0.2321844432D+00
      0.9286662960D+01  0.4679413484D+00
      0.3163926960D+01  0.3623119853D+00
 Atom C35      Shell   100 SP   3    bf  265 -   268          3.994288502394          6.563202030666          6.844921665563
      0.7868272350D+01 -0.1193324198D+00  0.6899906659D-01
      0.1881288540D+01 -0.1608541517D+00  0.3164239610D+00
      0.5442492580D+00  0.1143456438D+01  0.7443082909D+00
 Atom C35      Shell   101 SP   1    bf  269 -   272          3.994288502394          6.563202030666          6.844921665563
      0.1687144782D+00  0.1000000000D+01  0.1000000000D+01
 Atom C35      Shell   102 D   1     bf  273 -   278          3.994288502394          6.563202030666          6.844921665563
      0.8000000000D+00  0.1000000000D+01
 Atom H36      Shell   103 S   3     bf  279 -   279          5.458455226551          5.109083641761          7.078626005041
      0.1873113696D+02  0.3349460434D-01
      0.2825394365D+01  0.2347269535D+00
      0.6401216923D+00  0.8137573261D+00
 Atom H36      Shell   104 S   1     bf  280 -   280          5.458455226551          5.109083641761          7.078626005041
      0.1612777588D+00  0.1000000000D+01
 Atom H37      Shell   105 S   3     bf  281 -   281          2.337954658509          5.902503035462          7.896247102429
      0.1873113696D+02  0.3349460434D-01
      0.2825394365D+01  0.2347269535D+00
      0.6401216923D+00  0.8137573261D+00
 Atom H37      Shell   106 S   1     bf  282 -   282          2.337954658509          5.902503035462          7.896247102429
      0.1612777588D+00  0.1000000000D+01
 Atom C38      Shell   107 S   6     bf  283 -   283          6.558595804320          7.110331225386          0.474720350616
      0.3047524880D+04  0.1834737132D-02
      0.4573695180D+03  0.1403732281D-01
      0.1039486850D+03  0.6884262226D-01
      0.2921015530D+02  0.2321844432D+00
      0.9286662960D+01  0.4679413484D+00
      0.3163926960D+01  0.3623119853D+00
 Atom C38      Shell   108 SP   3    bf  284 -   287          6.558595804320          7.110331225386          0.474720350616
      0.7868272350D+01 -0.1193324198D+00  0.6899906659D-01
      0.1881288540D+01 -0.1608541517D+00  0.3164239610D+00
      0.5442492580D+00  0.1143456438D+01  0.7443082909D+00
 Atom C38      Shell   109 SP   1    bf  288 -   291          6.558595804320          7.110331225386          0.474720350616
      0.1687144782D+00  0.1000000000D+01  0.1000000000D+01
 Atom C38      Shell   110 D   1     bf  292 -   297          6.558595804320          7.110331225386          0.474720350616
      0.8000000000D+00  0.1000000000D+01
 Atom H39      Shell   111 S   3     bf  298 -   298          8.167408176017          8.097999215458         -0.352247710170
      0.1873113696D+02  0.3349460434D-01
      0.2825394365D+01  0.2347269535D+00
      0.6401216923D+00  0.8137573261D+00
 Atom H39      Shell   112 S   1     bf  299 -   299          8.167408176017          8.097999215458         -0.352247710170
      0.1612777588D+00  0.1000000000D+01
 Atom C40      Shell   113 S   6     bf  300 -   300          0.933830618512          8.403020798738          3.632047088954
      0.3047524880D+04  0.1834737132D-02
      0.4573695180D+03  0.1403732281D-01
      0.1039486850D+03  0.6884262226D-01
      0.2921015530D+02  0.2321844432D+00
      0.9286662960D+01  0.4679413484D+00
      0.3163926960D+01  0.3623119853D+00
 Atom C40      Shell   114 SP   3    bf  301 -   304          0.933830618512          8.403020798738          3.632047088954
      0.7868272350D+01 -0.1193324198D+00  0.6899906659D-01
      0.1881288540D+01 -0.1608541517D+00  0.3164239610D+00
      0.5442492580D+00  0.1143456438D+01  0.7443082909D+00
[...]
 1516 Fit       0.001452
 1517 Fit       0.000431
 1518 Fit       0.001214
 1519 Fit       0.001968
 1520 Fit       0.001028
 1521 Fit       0.001101
 1522 Fit      -0.000205
 1523 Fit      -0.003094
 1524 Fit      -0.003043
 1525 Fit      -0.002600
 1526 Fit      -0.002396
 1527 Fit      -0.000173
 1528 Fit      -0.001439
 1529 Fit      -0.002410
 1530 Fit      -0.001506
 1531 Fit       0.002407
 1532 Fit       0.000685
 1533 Fit      -0.001810
 1534 Fit       0.001211
 1535 Fit       0.002347
 1536 Fit       0.002479
 1537 Fit       0.001479
 1538 Fit      -0.000548
 1539 Fit       0.000808
 1540 Fit       0.001126
 1541 Fit       0.000065
 1542 Fit      -0.002130
 1543 Fit      -0.001217
 1544 Fit      -0.002074
 1545 Fit       0.001184
 1546 Fit       0.001564
 1547 Fit       0.000146
 1548 Fit      -0.002129
 1549 Fit      -0.001642
 1550 Fit      -0.000866
 1551 Fit      -0.000002
 1552 Fit       0.002542
 1553 Fit       0.003019
 1554 Fit       0.001738
 1555 Fit       0.000506
 1556 Fit       0.000499
 1557 Fit       0.001396
 1558 Fit       0.002231
 1559 Fit      -0.000944
 1560 Fit       0.001805
 1561 Fit      -0.002457
 1562 Fit      -0.000228
 1563 Fit       0.001574
 1564 Fit       0.002436
 1565 Fit      -0.002246
 1566 Fit      -0.000422
 1567 Fit       0.000719
 1568 Fit       0.000914
 1569 Fit      -0.001731
 1570 Fit      -0.001474
 1571 Fit      -0.000825
 1572 Fit      -0.001847
 1573 Fit      -0.001725
 1574 Fit      -0.001935
 1575 Fit      -0.001648
 1576 Fit      -0.000937
 1577 Fit      -0.002316
 1578 Fit      -0.002090
 1579 Fit      -0.000514
 1580 Fit       0.001410
 1581 Fit       0.002872
 1582 Fit       0.000989
 1583 Fit       0.004023
 1584 Fit      -0.000454
 1585 Fit       0.001542
 1586 Fit       0.000575
 1587 Fit       0.000533
 1588 Fit       0.000199
 1589 Fit      -0.000107
 1590 Fit       0.000372
 1591 Fit       0.000039
 1592 Fit       0.000326
 1593 Fit       0.002399
 1594 Fit       0.002125
 1595 Fit       0.001960
 1596 Fit       0.002651
 1597 Fit       0.002556
 1598 Fit       0.003072
 1599 Fit       0.001637
 1600 Fit       0.000298
 1601 Fit       0.002775
 1602 Fit       0.001344
 1603 Fit      -0.000143
 1604 Fit       0.003025
 1605 Fit       0.002490
 1606 Fit      -0.000018
 1607 Fit      -0.001484
 1608 Fit       0.001504
 1609 Fit       0.001063
 1610 Fit      -0.001415
 1611 Fit      -0.001202
 1612 Fit      -0.024024
 1613 Fit      -0.020836
 1614 Fit      -0.023308
 1615 Fit      -0.026247
 1616 Fit      -0.023712
 1617 Fit      -0.019230
 1618 Fit      -0.013090
 1619 Fit      -0.013574
 1620 Fit      -0.017282
 1621 Fit      -0.022604
 1622 Fit      -0.026135
 1623 Fit      -0.025520
 1624 Fit      -0.013769
 1625 Fit      -0.011563
 1626 Fit      -0.019370
 1627 Fit      -0.024083
 1628 Fit      -0.023781
 1629 Fit      -0.003976
 1630 Fit      -0.008780
 1631 Fit      -0.017042
 1632 Fit      -0.020679
 1633 Fit      -0.018435
 1634 Fit      -0.007086
 1635 Fit      -0.013824
 1636 Fit       0.000676
 1637 Fit       0.000597
 1638 Fit       0.010734
 1639 Fit       0.010645
 1640 Fit       0.007603
 1641 Fit       0.000977
 1642 Fit       0.008407
 1643 Fit       0.016582
 1644 Fit       0.016075
 1645 Fit       0.013116
 1646 Fit       0.007242
 1647 Fit      -0.002065
 1648 Fit       0.015112
 1649 Fit       0.019226
 1650 Fit       0.017777
 1651 Fit       0.013371
 1652 Fit       0.005813
 1653 Fit       0.003911
 1654 Fit       0.003986
 1655 Fit       0.003866
 1656 Fit       0.003797
 1657 Fit       0.003732
 1658 Fit       0.000633
 1659 Fit       0.002782
 1660 Fit       0.002397
 1661 Fit       0.002817
 1662 Fit       0.003087
 1663 Fit      -0.000168
 1664 Fit       0.003263
 1665 Fit       0.002352
 1666 Fit       0.003273
 1667 Fit       0.003753
 1668 Fit       0.000273
 1669 Fit       0.000553
 1670 Fit      -0.000551
 1671 Fit       0.001672
 1672 Fit       0.001194
 1673 Fit       0.002702
 1674 Fit       0.000781
 1675 Fit       0.001964
 1676 Fit       0.002609
 1677 Fit       0.002479
 1678 Fit       0.003147
 1679 Fit       0.003547
 1680 Fit       0.000909
 1681 Fit       0.001512
 1682 Fit       0.000580
 1683 Fit       0.002387
 1684 Fit       0.002280
 1685 Fit       0.000371
 1686 Fit       0.002979
 1687 Fit      -0.000088
 1688 Fit       0.000022
 1689 Fit       0.000897
 1690 Fit      -0.000705
 1691 Fit      -0.000325
 1692 Fit       0.003377
 1693 Fit       0.003542
 1694 Fit       0.003427
 1695 Fit       0.002919
 1696 Fit       0.003063
 1697 Fit       0.003296
 1698 Fit       0.002865
 1699 Fit       0.002637
 1700 Fit       0.002214
 1701 Fit       0.002497
 1702 Fit       0.001571
 1703 Fit       0.000903
 1704 Fit       0.000699
 1705 Fit       0.002666
 1706 Fit       0.002955
 1707 Fit       0.002027
 1708 Fit       0.002580
 1709 Fit       0.003153
 1710 Fit       0.003875
 1711 Fit       0.001220
 1712 Fit       0.002259
 1713 Fit       0.002418
 1714 Fit       0.000844
 1715 Fit       0.001460
 1716 Fit       0.002289
 1717 Fit       0.002777
 1718 Fit       0.002153
 1719 Fit       0.002586
 1720 Fit       0.003335
 1721 Fit       0.002885
 1722 Fit       0.002408
 1723 Fit       0.002336
 1724 Fit       0.002148
 1725 Fit       0.001674
 1726 Fit       0.001414
 1727 Fit       0.001146
 1728 Fit       0.001556
 1729 Fit       0.001649
 1730 Fit       0.000240
 1731 Fit      -0.000547
 1732 Fit      -0.000204
 1733 Fit       0.003919
 1734 Fit       0.003685
 1735 Fit       0.003022
 1736 Fit       0.000680
 1737 Fit       0.002458
 1738 Fit       0.002812
 1739 Fit       0.002224
 1740 Fit       0.000620
 1741 Fit       0.001459
 1742 Fit       0.003503
 1743 Fit       0.003080
 1744 Fit       0.001896
 1745 Fit       0.000494
 1746 Fit       0.000564
 1747 Fit       0.002861
 1748 Fit       0.003024
 1749 Fit      -0.002629
 1750 Fit       0.002650
 1751 Fit       0.003177
 1752 Fit       0.003687
 1753 Fit       0.002695
 1754 Fit       0.001357
 1755 Fit       0.001486
 1756 Fit       0.002759
 1757 Fit       0.003207
 1758 Fit       0.003193
 1759 Fit       0.002706
 1760 Fit       0.002762
 1761 Fit      -0.001090
 1762 Fit       0.003407
 1763 Fit       0.001836
 1764 Fit       0.001373
 1765 Fit       0.003572
 1766 Fit       0.002672
 1767 Fit       0.002552
 1768 Fit       0.003680
 1769 Fit       0.003104
 1770 Fit       0.002557
 1771 Fit       0.003056
 1772 Fit       0.001540
 1773 Fit       0.001331
 1774 Fit       0.001083
 1775 Fit       0.002383
 1776 Fit       0.001936
 1777 Fit       0.001221
 1778 Fit       0.003553
 1779 Fit       0.001931
 1780 Fit       0.000867
 1781 Fit      -0.000126
 1782 Fit      -0.000628
 1783 Fit       0.000234
 1784 Fit      -0.000392
 1785 Fit      -0.000250
 1786 Fit       0.000553
 1787 Fit       0.004077
 1788 Fit       0.001346
 1789 Fit       0.002517
 1790 Fit       0.001203
 1791 Fit       0.002371
 1792 Fit       0.000245
 1793 Fit       0.001411
 1794 Fit       0.001808
 1795 Fit       0.001078
 1796 Fit       0.002017
 1797 Fit       0.000629
 1798 Fit       0.003319
 1799 Fit       0.001435
 1800 Fit       0.002250
 1801 Fit       0.000522
 1802 Fit       0.002208
 1803 Fit       0.001595
 1804 Fit       0.001634
 1805 Fit       0.002299
 1806 Fit       0.003405
 1807 Fit       0.003532
 1808 Fit       0.004557
 1809 Fit       0.000599
 1810 Fit       0.001303
 1811 Fit       0.000526
 1812 Fit       0.001339
 1813 Fit       0.001025
 1814 Fit       0.001643
 1815 Fit       0.001785
 1816 Fit       0.001706
 1817 Fit       0.002427
 1818 Fit       0.002680
 1819 Fit       0.002599
 1820 Fit       0.002842
 1821 Fit       0.001716
 1822 Fit       0.000017
 1823 Fit       0.001214
 1824 Fit       0.001591
 1825 Fit       0.000322
 1826 Fit       0.001730
 1827 Fit       0.002989
 1828 Fit       0.003400
 1829 Fit       0.002367
 1830 Fit       0.003536
 1831 Fit       0.000931
 1832 Fit      -0.002855
 1833 Fit      -0.002716
 1834 Fit      -0.000521
 1835 Fit       0.001901
 1836 Fit      -0.003719
 1837 Fit      -0.006684
 1838 Fit      -0.005698
 1839 Fit      -0.001992
 1840 Fit      -0.003390
 1841 Fit       0.005324
 1842 Fit       0.001689
 1843 Fit       0.005838
 1844 Fit       0.007549
 1845 Fit       0.007828
 1846 Fit       0.003776
 1847 Fit       0.005699
 1848 Fit       0.006186
 1849 Fit       0.004705
 1850 Fit       0.000803
 1851 Fit       0.004391
 1852 Fit       0.004923
 1853 Fit       0.003991
 1854 Fit      -0.001348
 1855 Fit      -0.001322
 1856 Fit      -0.001454
 1857 Fit      -0.001714
 1858 Fit      -0.001448
 1859 Fit      -0.000307
 1860 Fit      -0.001608
 1861 Fit      -0.005940
 1862 Fit       0.000016
 1863 Fit       0.002052
 1864 Fit      -0.000482
 1865 Fit       0.001343
 1866 Fit       0.002682
 1867 Fit       0.000345
 1868 Fit       0.001966
 1869 Fit       0.003014
 1870 Fit      -0.000357
 1871 Fit       0.001486
 1872 Fit      -0.001523
 1873 Fit      -0.001117
 1874 Fit      -0.001178
 1875 Fit      -0.000377
 1876 Fit      -0.001142
 1877 Fit      -0.001014
 1878 Fit      -0.001104
 1879 Fit       0.000017
 1880 Fit       0.001549
 1881 Fit      -0.004167
 1882 Fit      -0.001150
 1883 Fit       0.000512
 1884 Fit       0.002027
 1885 Fit      -0.001686
 1886 Fit       0.001258
 1887 Fit       0.003505
 1888 Fit      -0.001402
 1889 Fit       0.015628
 1890 Fit       0.009248
 1891 Fit       0.011028
 1892 Fit       0.012678
 1893 Fit       0.011476
 1894 Fit       0.006781
 1895 Fit       0.007612
 1896 Fit       0.009559
 1897 Fit       0.008832
 1898 Fit       0.006155
 1899 Fit       0.001951
 1900 Fit       0.005012
 1901 Fit      -0.000290
 1902 Fit      -0.007052
 1903 Fit      -0.003132
 1904 Fit      -0.001517
 1905 Fit      -0.001948
 1906 Fit      -0.000617
 1907 Fit      -0.000865
 1908 Fit      -0.000878
 1909 Fit      -0.002901
 1910 Fit      -0.019126
 1911 Fit      -0.010293
 1912 Fit      -0.005254
 1913 Fit      -0.002030
 1914 Fit      -0.010911
 1915 Fit      -0.016155
 1916 Fit      -0.007706
 1917 Fit      -0.004009
 1918 Fit      -0.013497
 1919 Fit      -0.005748
 1920 Fit      -0.002565
 1921 Fit      -0.001135
 1922 Fit      -0.009367
 1923 Fit      -0.002637
 1924 Fit      -0.004679
 1925 Fit      -0.006251
 1926 Fit      -0.010652
 1927 Fit      -0.008250
 1928 Fit      -0.003944
 1929 Fit      -0.001778
 1930 Fit      -0.002308
 1931 Fit      -0.008589
 1932 Fit      -0.018773
 1933 Fit      -0.018175
 1934 Fit      -0.002010
 1935 Fit      -0.000472
 1936 Fit      -0.000277
 1937 Fit      -0.000666
 1938 Fit      -0.002808
 1939 Fit       0.000182
 1940 Fit      -0.002315
 1941 Fit       0.000204
 1942 Fit       0.002561
 1943 Fit       0.002762
 1944 Fit       0.002627
 1945 Fit       0.001141
 1946 Fit       0.001808
 1947 Fit       0.002221
 1948 Fit       0.002414
 1949 Fit       0.000679
 1950 Fit       0.001218
 1951 Fit       0.001386
 1952 Fit       0.000027
 1953 Fit       0.000779
 1954 Fit       0.002568
 1955 Fit       0.001767
 1956 Fit      -0.007858
 1957 Fit      -0.002618
 1958 Fit      -0.001473
 1959 Fit       0.001159
 1960 Fit       0.000257
 1961 Fit       0.004282
 1962 Fit       0.002557
 1963 Fit       0.003004
 1964 Fit       0.007504
 1965 Fit       0.000918
 1966 Fit       0.002148
 1967 Fit       0.004141
 1968 Fit       0.007801
 1969 Fit       0.001922
 1970 Fit      -0.000743
 1971 Fit      -0.000940
 1972 Fit      -0.001210
 1973 Fit      -0.001291
 1974 Fit      -0.001384
 1975 Fit      -0.000841
 1976 Fit      -0.000435
 1977 Fit      -0.000215
 1978 Fit       0.000041
 1979 Fit       0.000553
 1980 Fit       0.000060
 1981 Fit       0.001018
 1982 Fit      -0.000174
 1983 Fit       0.001241
 1984 Fit       0.002016
 1985 Fit       0.000495
 1986 Fit       0.002001
 1987 Fit       0.002373
 1988 Fit      -0.000009
 1989 Fit       0.000325
 1990 Fit      -0.000160
 1991 Fit       0.000532
 1992 Fit       0.001424
 1993 Fit       0.001663
 1994 Fit       0.001143
 1995 Fit       0.001182
 1996 Fit       0.002169
 1997 Fit       0.002570
 1998 Fit       0.002197
 1999 Fit       0.000954
 2000 Fit       0.002179
 2001 Fit       0.000595
 2002 Fit       0.000731
 2003 Fit       0.003568
 2004 Fit       0.001718
 2005 Fit      -0.000421
 2006 Fit       0.002448
 2007 Fit       0.000377
 2008 Fit       0.002366
 2009 Fit       0.000498
 2010 Fit       0.000238
 2011 Fit       0.000325
 2012 Fit       0.001082
 2013 Fit       0.001971
 2014 Fit       0.000524
 2015 Fit       0.002268
 2016 Fit       0.003966
 2017 Fit       0.000807
 2018 Fit       0.001823
 2019 Fit       0.001515
 2020 Fit       0.001573
 2021 Fit       0.000556
 2022 Fit       0.000706
 2023 Fit       0.000606
 2024 Fit       0.000688
 2025 Fit       0.000570
 2026 Fit       0.000653
 2027 Fit      -0.000933
 2028 Fit      -0.002119
 2029 Fit       0.000274
 2030 Fit      -0.000715
 2031 Fit       0.001694
 2032 Fit       0.001209
 2033 Fit       0.000211
 2034 Fit      -0.001347
 2035 Fit       0.002413
 2036 Fit       0.001832
 2037 Fit       0.000844
 2038 Fit      -0.000869
 2039 Fit       0.002438
 2040 Fit       0.002317
 2041 Fit       0.001381
 2042 Fit       0.000849
 2043 Fit      -0.000173
 2044 Fit       0.000855
 2045 Fit       0.001375
 2046 Fit      -0.000131
 2047 Fit       0.001214
 2048 Fit       0.001785
 2049 Fit      -0.001006
 2050 Fit       0.000857
 2051 Fit       0.002092
 2052 Fit       0.002503
 2053 Fit       0.000484
 2054 Fit       0.000662
 2055 Fit       0.002174
 2056 Fit       0.002056
 2057 Fit       0.001295
 2058 Fit       0.000337
 2059 Fit       0.001250
 2060 Fit       0.001578
 2061 Fit       0.000872
 2062 Fit       0.001123
 2063 Fit      -0.001990
 2064 Fit      -0.002174
 2065 Fit      -0.002182
 2066 Fit      -0.001842
 2067 Fit      -0.002280
 2068 Fit      -0.002092
 2069 Fit      -0.001695
 2070 Fit       0.000199
 2071 Fit      -0.000763
 2072 Fit      -0.001217
 2073 Fit      -0.001550
 2074 Fit       0.001829
 2075 Fit       0.000219
 2076 Fit      -0.001585
 2077 Fit       0.002325
 2078 Fit       0.001767
 2079 Fit       0.000580
 2080 Fit      -0.001081
 2081 Fit       0.001227
 2082 Fit       0.001652
 2083 Fit       0.001376
 2084 Fit       0.000356
 2085 Fit      -0.001235
 2086 Fit       0.000243
 2087 Fit       0.000376
 2088 Fit      -0.000409
 2089 Fit      -0.001098
 2090 Fit       0.001439
 2091 Fit       0.001639
 2092 Fit       0.000562
 2093 Fit      -0.000515
 2094 Fit      -0.001059
 2095 Fit      -0.001139
 2096 Fit      -0.000821
 2097 Fit      -0.000233
 2098 Fit       0.000469
 2099 Fit       0.002053
 2100 Fit       0.002418
 2101 Fit       0.001540
 2102 Fit       0.000640
 2103 Fit       0.000559
 2104 Fit       0.001180
 2105 Fit       0.001737
 2106 Fit       0.001464
 2107 Fit      -0.000132
 2108 Fit       0.001272
 2109 Fit       0.002126
 2110 Fit      -0.000996
 2111 Fit       0.000278
 2112 Fit       0.001095
 2113 Fit       0.001401
 2114 Fit      -0.000840
 2115 Fit      -0.000174
 2116 Fit      -0.000158
 2117 Fit       0.001165
 2118 Fit       0.000102
 2119 Fit      -0.000696
 2120 Fit      -0.001355
 2121 Fit      -0.001114
 2122 Fit      -0.000170
 2123 Fit      -0.000420
 2124 Fit      -0.000085
 2125 Fit      -0.000040
 2126 Fit       0.000839
 2127 Fit      -0.001348
 2128 Fit       0.000876
 2129 Fit       0.002918
 2130 Fit       0.001412
 2131 Fit       0.000230
 2132 Fit       0.002226
 2133 Fit       0.000613
 2134 Fit      -0.000638
 2135 Fit      -0.000516
 2136 Fit      -0.001207
 2137 Fit      -0.000840
 2138 Fit       0.000932
 2139 Fit       0.000918
 2140 Fit       0.000729
 2141 Fit       0.000571
 2142 Fit       0.000892
 2143 Fit       0.000769
 2144 Fit       0.000793
 2145 Fit       0.002034
 2146 Fit       0.001878
 2147 Fit       0.001841
 2148 Fit       0.002375
 2149 Fit       0.002238
 2150 Fit       0.002509
 2151 Fit       0.001433
 2152 Fit       0.000701
 2153 Fit       0.002272
 2154 Fit       0.001319
 2155 Fit       0.000479
 2156 Fit       0.002605
 2157 Fit       0.002113
 2158 Fit       0.000589
 2159 Fit      -0.000323
 2160 Fit       0.001808
 2161 Fit       0.001364
 2162 Fit      -0.000634
 2163 Fit       0.000325
 2164 Fit       0.000062
 -----------------------------------------------------------------
 Leave Link  602 at Tue Mar 21 12:58:59 2017, MaxMem=    33554432 cpu:         3.2
 (Enter /home/michal/g09/l9999.exe)

 Test job not archived.
 1\1\GINC-LINUX\SP\RHF\6-31G(d)\C27H46O1\MICHAL\21-Mar-2017\0\\#P HF/6-
 31G* SCF(Conver=6) NoSymm Test Pop=mk IOp(6/33=2) GFInput GFPrint\\MEP
  - Input generated by R.E.D.-III.x MOLECULE\\0,1\O,0,4.21151977,6.5489
 5926,4.12561652\H,0,4.99096492,6.8992496,3.67426802\C,0,0.,0.,0.\C,0,1
 .34510342,0.61904393,-0.47331988\H,0,2.12684261,0.,0.\C,0,1.61235839,2
 .05377998,0.\H,0,0.84820535,2.72207616,-0.42178177\C,0,1.54597937,2.11
 767542,1.54855761\H,0,2.40933176,1.53101958,1.90405758\C,0,0.09196851,
 -1.4035886,-0.69332801\H,0,0.84423154,-1.96801822,-0.12258784\C,0,0.03
 446797,0.0095862,1.54202145\H,0,0.83761756,-0.66141323,1.87980218\H,0,
 -0.8953868,-0.37799959,1.97068134\C,0,1.76138457,3.56910438,2.10487069
 \C,0,1.40104286,0.30948393,-1.97748087\H,0,2.42581894,0.2887062,-2.361
 55693\H,0,0.86463185,1.07529178,-2.55150369\C,0,0.27849115,1.42611272,
 2.10267783\H,0,-0.60291172,2.0408188,1.89127388\H,0,0.34270418,1.35943
 102,3.1946493\C,0,0.69873342,-1.07187095,-2.09711275\H,0,-0.09221691,-
 1.03979627,-2.85571283\H,0,1.39769641,-1.85134179,-2.41619512\C,0,2.98
 593027,2.54553853,-0.48430953\H,0,2.9520071,2.7591343,-1.56095607\H,0,
 3.72648043,1.7361609,-0.37162348\C,0,-1.17357713,-2.29129131,-0.791094
 16\H,0,-1.91966867,-1.73297604,-1.37535796\C,0,-1.22872652,0.77888167,
 -0.52254768\H,0,-2.15503661,0.34775419,-0.12805037\H,0,-1.21129414,1.8
 3031318,-0.22556013\H,0,-1.29725946,0.7533433,-1.61438255\C,0,2.937031
 78,4.24367618,1.38372309\C,0,2.11368644,3.47309693,3.62217654\H,0,2.88
 84901,2.70361062,3.74584755\H,0,1.23719232,3.12347008,4.178514\C,0,3.4
 7065942,3.76262523,0.25121119\H,0,4.32200626,4.28527662,-0.18640146\C,
 0,0.49416188,4.44668709,1.92199654\H,0,-0.32386858,4.10717095,2.565090
 11\H,0,0.68948752,5.49142197,2.17618233\H,0,0.14620527,4.42697012,0.88
 457971\C,0,3.48811899,5.50719046,2.0181066\H,0,4.37603147,5.83754666,1
 .46370894\H,0,2.75609831,6.3250524,1.95878255\C,0,2.6177879,4.77888014
 ,4.25375062\H,0,1.83675741,5.54940395,4.24901686\H,0,2.88429311,4.6088
 6459,5.30310098\C,0,-0.91503471,-3.59682994,-1.592194\H,0,-1.87762806,
 -4.11994794,-1.68939413\H,0,-0.61458136,-3.33587928,-2.61320439\C,0,3.
 82923019,5.31621431,3.5030406\H,0,4.65450434,4.59016726,3.58989276\C,0
 ,-1.81309201,-2.61393648,0.5726136\H,0,-1.08355841,-3.01609162,1.28421
 939\H,0,-2.60846637,-3.35957145,0.45547587\H,0,-2.26318617,-1.72986648
 ,1.03100122\C,0,0.10858888,-4.57572307,-0.99184632\H,0,1.10533683,-4.1
 176022,-0.97748947\H,0,-0.14545938,-4.77054068,0.05755833\C,0,0.172413
 73,-5.93545975,-1.71372135\H,0,-0.82424001,-6.39809454,-1.66940301\H,0
 ,0.84064466,-6.60238381,-1.14875141\C,0,0.6388667,-5.92523414,-3.18520
 038\H,0,-0.02515244,-5.25881136,-3.75401034\C,0,0.50828447,-7.33150625
 ,-3.79214194\H,0,-0.52169446,-7.70068533,-3.72713073\H,0,0.80119095,-7
 .33848217,-4.84828149\H,0,1.15213229,-8.04670999,-3.26403831\C,0,2.076
 56298,-5.40446327,-3.34052845\H,0,2.18436178,-4.3753448,-2.9830504\H,0
 ,2.38824505,-5.42204603,-4.39110274\H,0,2.77983305,-6.02952862,-2.7748
 0183\\Version=EM64L-G09RevD.01\HF=-1124.0783056\RMSD=4.591e-07\Dipole=
 0.1665498,-0.331882,-0.5267183\Quadrupole=8.9489319,-4.9001086,-4.0488
 233,1.5020062,-2.8931077,-9.2634952\PG=C01 [X(C27H46O1)]\\@


 IN THE FIGHT BETWEEN YOU AND THE WORLD, BACK THE WORLD

                                        -- FRANZ KAFKA
 Job cpu time:       0 days  0 hours 10 minutes 26.6 seconds.
 File lengths (MBytes):  RWF=    142 Int=      0 D2E=      0 Chk=     10 Scr=      1
 Normal termination of Gaussian 09 at Tue Mar 21 12:58:59 2017.
