 Entering Gaussian System, Link 0=/home/michal/g09/g09
 Input=JOB2-gau_m1-14-2.com
 Output=JOB2-gau_m1-14-2.log
 Initial command:
 /home/michal/g09/l1.exe "/home/michal/gauss_scratch/Gau-18612.inp" -scrdir="/home/michal/gauss_scratch/"
 Entering Link 1 = /home/michal/g09/l1.exe PID=     18613.
  
 Copyright (c) 1988,1990,1992,1993,1995,1998,2003,2009,2013,
            Gaussian, Inc.  All Rights Reserved.
  
 This is part of the Gaussian(R) 09 program.  It is based on
 the Gaussian(R) 03 system (copyright 2003, Gaussian, Inc.),
 the Gaussian(R) 98 system (copyright 1998, Gaussian, Inc.),
 the Gaussian(R) 94 system (copyright 1995, Gaussian, Inc.),
 the Gaussian 92(TM) system (copyright 1992, Gaussian, Inc.),
 the Gaussian 90(TM) system (copyright 1990, Gaussian, Inc.),
 the Gaussian 88(TM) system (copyright 1988, Gaussian, Inc.),
 the Gaussian 86(TM) system (copyright 1986, Carnegie Mellon
 University), and the Gaussian 82(TM) system (copyright 1983,
 Carnegie Mellon University). Gaussian is a federally registered
 trademark of Gaussian, Inc.
  
 This software contains proprietary and confidential information,
 including trade secrets, belonging to Gaussian, Inc.
  
 This software is provided under written license and may be
 used, copied, transmitted, or stored only in accord with that
 written license.
  
 The following legend is applicable only to US Government
 contracts under FAR:
  
                    RESTRICTED RIGHTS LEGEND
  
 Use, reproduction and disclosure by the US Government is
 subject to restrictions as set forth in subparagraphs (a)
 and (c) of the Commercial Computer Software - Restricted
 Rights clause in FAR 52.227-19.
  
 Gaussian, Inc.
 340 Quinnipiac St., Bldg. 40, Wallingford CT 06492
  
  
 ---------------------------------------------------------------
 Warning -- This program may not be used in any manner that
 competes with the business of Gaussian, Inc. or will provide
 assistance to any competitor of Gaussian, Inc.  The licensee
 of this program is prohibited from giving any competitor of
 Gaussian, Inc. access to this program.  By using this program,
 the user acknowledges that Gaussian, Inc. is engaged in the
 business of creating and licensing software in the field of
 computational chemistry and represents and warrants to the
 licensee that it is not a competitor of Gaussian, Inc. and that
 it will not use this program in any manner prohibited above.
 ---------------------------------------------------------------
  

 Cite this work as:
 Gaussian 09, Revision D.01,
 M. J. Frisch, G. W. Trucks, H. B. Schlegel, G. E. Scuseria, 
 M. A. Robb, J. R. Cheeseman, G. Scalmani, V. Barone, B. Mennucci, 
 G. A. Petersson, H. Nakatsuji, M. Caricato, X. Li, H. P. Hratchian, 
 A. F. Izmaylov, J. Bloino, G. Zheng, J. L. Sonnenberg, M. Hada, 
 M. Ehara, K. Toyota, R. Fukuda, J. Hasegawa, M. Ishida, T. Nakajima, 
 Y. Honda, O. Kitao, H. Nakai, T. Vreven, J. A. Montgomery, Jr., 
 J. E. Peralta, F. Ogliaro, M. Bearpark, J. J. Heyd, E. Brothers, 
 K. N. Kudin, V. N. Staroverov, T. Keith, R. Kobayashi, J. Normand, 
 K. Raghavachari, A. Rendell, J. C. Burant, S. S. Iyengar, J. Tomasi, 
 M. Cossi, N. Rega, J. M. Millam, M. Klene, J. E. Knox, J. B. Cross, 
 V. Bakken, C. Adamo, J. Jaramillo, R. Gomperts, R. E. Stratmann, 
 O. Yazyev, A. J. Austin, R. Cammi, C. Pomelli, J. W. Ochterski, 
 R. L. Martin, K. Morokuma, V. G. Zakrzewski, G. A. Voth, 
 P. Salvador, J. J. Dannenberg, S. Dapprich, A. D. Daniels, 
 O. Farkas, J. B. Foresman, J. V. Ortiz, J. Cioslowski, 
 and D. J. Fox, Gaussian, Inc., Wallingford CT, 2013.
 
 ******************************************
 Gaussian 09:  EM64L-G09RevD.01 24-Apr-2013
                21-Mar-2017 
 ******************************************
 %Mem=256MB
 %NProc=12
 Will use up to   12 processors via shared memory.
 ----------------------------------------------------------------------
 #P HF/6-31G* SCF(Conver=6) NoSymm Test Pop=mk IOp(6/33=2) GFInput GFPr
 int
 ----------------------------------------------------------------------
 1/38=1/1;
 2/12=2,15=1,17=6,18=5,40=1/2;
 3/5=1,6=6,7=1,11=9,16=1,24=110,25=1,30=1/1,2,3;
 4//1;
 5/5=2,6=6,38=5/2;
 6/7=2,8=2,9=2,10=2,15=8,20=1,28=1,33=2/1,2;
 99/5=1,9=1/99;
 Leave Link    1 at Tue Mar 21 12:34:41 2017, MaxMem=    33554432 cpu:         0.6
 (Enter /home/michal/g09/l101.exe)
 ----------------------------------------------
 MEP - Input generated by R.E.D.-III.x MOLECULE
 ----------------------------------------------
 Symbolic Z-matrix:
 Charge =  0 Multiplicity = 1
 O                     0.40533  -3.28607   7.2963 
 H                     0.24405  -4.2295    7.16262 
 C                     1.50957   1.49623   0. 
 C                     1.10326   0.        0. 
 H                     0.        0.        0. 
 C                     1.51022  -0.77829   1.25702 
 H                     2.60645  -0.79889   1.33407 
 C                     0.92165  -0.08155   2.51526 
 H                    -0.17009  -0.21564   2.43786 
 C                     0.95111   1.9132   -1.39668 
 H                    -0.13909   1.83648  -1.27557 
 C                     0.81724   2.15596   1.20512 
 H                    -0.27126   2.11297   1.0542 
 H                     1.08086   3.21927   1.28382 
 C                     1.34216  -0.7935    3.84957 
 C                     1.53623  -0.50998  -1.38874 
 H                     0.93556  -1.36243  -1.72131 
 H                     2.57977  -0.84815  -1.37143 
 C                     1.18095   1.44622   2.52634 
 H                     2.23403   1.64375   2.75102 
 H                     0.6093    1.90796   3.3391 
 C                     1.37055   0.72972  -2.32337 
 H                     2.31101   0.94069  -2.83941 
 H                     0.62244   0.55449  -3.10356 
 C                     1.01656  -2.23223   1.18976 
 H                     1.62088  -2.802     0.47123 
 H                    -0.01005  -2.25323   0.78749 
 C                     1.19417   3.36483  -1.91497 
 H                     1.24077   4.00635  -1.02316 
 C                     3.03892   1.6929    0.08954 
 H                     3.28449   2.75925   0.1246 
 H                     3.46171   1.23766   0.98837 
 H                     3.56351   1.2595   -0.76662 
 C                     1.19784  -2.31552   3.70642 
 C                     0.38636  -0.32066   4.98926 
 H                    -0.64635  -0.38511   4.61898 
 H                     0.57304   0.73661   5.20644 
 C                     1.03818  -2.92522   2.52251 
 H                     0.91638  -4.00889   2.50705 
 C                     2.80961  -0.46621   4.23588 
 H                     2.92299   0.58318   4.52568 
 H                     3.14584  -1.07038   5.08211 
 H                     3.49177  -0.66843   3.40436 
 C                     1.2421   -3.12568   4.9888 
 H                     1.03752  -4.18004   4.76232 
 H                     2.24369  -3.08792   5.44015 
 C                     0.48805  -1.12315   6.29457 
 H                     1.47447  -1.00134   6.75917 
 H                    -0.24736  -0.75471   7.01878 
 C                     2.50202   3.57157  -2.71608 
 H                     3.34851   3.1657   -2.15301 
 H                     2.44529   2.97877  -3.63851 
 C                     0.25406  -2.60695   6.04357 
 H                    -0.77402  -2.74897   5.67125 
 C                    -0.02622   3.82863  -2.73714 
 H                    -0.13948   3.22455  -3.64642 
 H                     0.05665   4.87537  -3.04459 
 H                    -0.94991   3.73124  -2.15628 
 C                     2.82581   5.02405  -3.12987 
 H                     3.74654   5.00325  -3.72682 
 H                     2.04999   5.38907  -3.81384 
 C                     2.98051   6.05265  -1.99402 
 H                     2.03627   6.12471  -1.43745 
 H                     3.13269   7.0431   -2.44826 
 C                     4.12384   5.80896  -0.98648 
 H                     3.9763    4.82018  -0.52961 
 C                     4.06743   6.85064   0.14258 
 H                     3.09935   6.83182   0.65637 
 H                     4.84801   6.6708    0.89063 
 H                     4.21381   7.86384  -0.25336 
 C                     5.50819   5.81412  -1.65446 
 H                     5.60707   5.0265   -2.40829 
 H                     6.3006    5.66109  -0.91301 
 H                     5.69757   6.77569  -2.14923 
 
 NAtoms=     74 NQM=       74 NQMF=       0 NMMI=      0 NMMIF=      0
                NMic=       0 NMicF=      0.
                    Isotopes and Nuclear Properties:
 (Nuclear quadrupole moments (NQMom) in fm**2, nuclear magnetic moments (NMagM)
  in nuclear magnetons)

  Atom         1           2           3           4           5           6           7           8           9          10
 IAtWgt=          16           1          12          12           1          12           1          12           1          12
 AtmWgt=  15.9949146   1.0078250  12.0000000  12.0000000   1.0078250  12.0000000   1.0078250  12.0000000   1.0078250  12.0000000
 NucSpn=           0           1           0           0           1           0           1           0           1           0
 AtZEff=   0.0000000   0.0000000   0.0000000   0.0000000   0.0000000   0.0000000   0.0000000   0.0000000   0.0000000   0.0000000
 NQMom=    0.0000000   0.0000000   0.0000000   0.0000000   0.0000000   0.0000000   0.0000000   0.0000000   0.0000000   0.0000000
 NMagM=    0.0000000   2.7928460   0.0000000   0.0000000   2.7928460   0.0000000   2.7928460   0.0000000   2.7928460   0.0000000
 AtZNuc=   8.0000000   1.0000000   6.0000000   6.0000000   1.0000000   6.0000000   1.0000000   6.0000000   1.0000000   6.0000000

  Atom        11          12          13          14          15          16          17          18          19          20
 IAtWgt=           1          12           1           1          12          12           1           1          12           1
 AtmWgt=   1.0078250  12.0000000   1.0078250   1.0078250  12.0000000  12.0000000   1.0078250   1.0078250  12.0000000   1.0078250
 NucSpn=           1           0           1           1           0           0           1           1           0           1
 AtZEff=   0.0000000   0.0000000   0.0000000   0.0000000   0.0000000   0.0000000   0.0000000   0.0000000   0.0000000   0.0000000
 NQMom=    0.0000000   0.0000000   0.0000000   0.0000000   0.0000000   0.0000000   0.0000000   0.0000000   0.0000000   0.0000000
 NMagM=    2.7928460   0.0000000   2.7928460   2.7928460   0.0000000   0.0000000   2.7928460   2.7928460   0.0000000   2.7928460
 AtZNuc=   1.0000000   6.0000000   1.0000000   1.0000000   6.0000000   6.0000000   1.0000000   1.0000000   6.0000000   1.0000000

  Atom        21          22          23          24          25          26          27          28          29          30
 IAtWgt=           1          12           1           1          12           1           1          12           1          12
 AtmWgt=   1.0078250  12.0000000   1.0078250   1.0078250  12.0000000   1.0078250   1.0078250  12.0000000   1.0078250  12.0000000
 NucSpn=           1           0           1           1           0           1           1           0           1           0
 AtZEff=   0.0000000   0.0000000   0.0000000   0.0000000   0.0000000   0.0000000   0.0000000   0.0000000   0.0000000   0.0000000
 NQMom=    0.0000000   0.0000000   0.0000000   0.0000000   0.0000000   0.0000000   0.0000000   0.0000000   0.0000000   0.0000000
 NMagM=    2.7928460   0.0000000   2.7928460   2.7928460   0.0000000   2.7928460   2.7928460   0.0000000   2.7928460   0.0000000
 AtZNuc=   1.0000000   6.0000000   1.0000000   1.0000000   6.0000000   1.0000000   1.0000000   6.0000000   1.0000000   6.0000000

  Atom        31          32          33          34          35          36          37          38          39          40
 IAtWgt=           1           1           1          12          12           1           1          12           1          12
 AtmWgt=   1.0078250   1.0078250   1.0078250  12.0000000  12.0000000   1.0078250   1.0078250  12.0000000   1.0078250  12.0000000
 NucSpn=           1           1           1           0           0           1           1           0           1           0
 AtZEff=   0.0000000   0.0000000   0.0000000   0.0000000   0.0000000   0.0000000   0.0000000   0.0000000   0.0000000   0.0000000
 NQMom=    0.0000000   0.0000000   0.0000000   0.0000000   0.0000000   0.0000000   0.0000000   0.0000000   0.0000000   0.0000000
 NMagM=    2.7928460   2.7928460   2.7928460   0.0000000   0.0000000   2.7928460   2.7928460   0.0000000   2.7928460   0.0000000
 AtZNuc=   1.0000000   1.0000000   1.0000000   6.0000000   6.0000000   1.0000000   1.0000000   6.0000000   1.0000000   6.0000000

  Atom        41          42          43          44          45          46          47          48          49          50
 IAtWgt=           1           1           1          12           1           1          12           1           1          12
 AtmWgt=   1.0078250   1.0078250   1.0078250  12.0000000   1.0078250   1.0078250  12.0000000   1.0078250   1.0078250  12.0000000
 NucSpn=           1           1           1           0           1           1           0           1           1           0
 AtZEff=   0.0000000   0.0000000   0.0000000   0.0000000   0.0000000   0.0000000   0.0000000   0.0000000   0.0000000   0.0000000
 NQMom=    0.0000000   0.0000000   0.0000000   0.0000000   0.0000000   0.0000000   0.0000000   0.0000000   0.0000000   0.0000000
 NMagM=    2.7928460   2.7928460   2.7928460   0.0000000   2.7928460   2.7928460   0.0000000   2.7928460   2.7928460   0.0000000
 AtZNuc=   1.0000000   1.0000000   1.0000000   6.0000000   1.0000000   1.0000000   6.0000000   1.0000000   1.0000000   6.0000000

  Atom        51          52          53          54          55          56          57          58          59          60
 IAtWgt=           1           1          12           1          12           1           1           1          12           1
 AtmWgt=   1.0078250   1.0078250  12.0000000   1.0078250  12.0000000   1.0078250   1.0078250   1.0078250  12.0000000   1.0078250
 NucSpn=           1           1           0           1           0           1           1           1           0           1
 AtZEff=   0.0000000   0.0000000   0.0000000   0.0000000   0.0000000   0.0000000   0.0000000   0.0000000   0.0000000   0.0000000
 NQMom=    0.0000000   0.0000000   0.0000000   0.0000000   0.0000000   0.0000000   0.0000000   0.0000000   0.0000000   0.0000000
 NMagM=    2.7928460   2.7928460   0.0000000   2.7928460   0.0000000   2.7928460   2.7928460   2.7928460   0.0000000   2.7928460
 AtZNuc=   1.0000000   1.0000000   6.0000000   1.0000000   6.0000000   1.0000000   1.0000000   1.0000000   6.0000000   1.0000000

  Atom        61          62          63          64          65          66          67          68          69          70
 IAtWgt=           1          12           1           1          12           1          12           1           1           1
 AtmWgt=   1.0078250  12.0000000   1.0078250   1.0078250  12.0000000   1.0078250  12.0000000   1.0078250   1.0078250   1.0078250
 NucSpn=           1           0           1           1           0           1           0           1           1           1
 AtZEff=   0.0000000   0.0000000   0.0000000   0.0000000   0.0000000   0.0000000   0.0000000   0.0000000   0.0000000   0.0000000
 NQMom=    0.0000000   0.0000000   0.0000000   0.0000000   0.0000000   0.0000000   0.0000000   0.0000000   0.0000000   0.0000000
 NMagM=    2.7928460   0.0000000   2.7928460   2.7928460   0.0000000   2.7928460   0.0000000   2.7928460   2.7928460   2.7928460
 AtZNuc=   1.0000000   6.0000000   1.0000000   1.0000000   6.0000000   1.0000000   6.0000000   1.0000000   1.0000000   1.0000000

  Atom        71          72          73          74
 IAtWgt=          12           1           1           1
 AtmWgt=  12.0000000   1.0078250   1.0078250   1.0078250
 NucSpn=           0           1           1           1
 AtZEff=   0.0000000   0.0000000   0.0000000   0.0000000
 NQMom=    0.0000000   0.0000000   0.0000000   0.0000000
 NMagM=    0.0000000   2.7928460   2.7928460   2.7928460
 AtZNuc=   6.0000000   1.0000000   1.0000000   1.0000000
 Leave Link  101 at Tue Mar 21 12:34:41 2017, MaxMem=    33554432 cpu:         1.0
 (Enter /home/michal/g09/l202.exe)
 Symmetry turned off by external request.
 Stoichiometry    C27H46O
 Framework group  C1[X(C27H46O)]
 Deg. of freedom   216
 Full point group                 C1      NOp   1
                          Input orientation:                          
 ---------------------------------------------------------------------
 Center     Atomic      Atomic             Coordinates (Angstroms)
 Number     Number       Type             X           Y           Z
 ---------------------------------------------------------------------
      1          8           0        0.405329   -3.286068    7.296297
      2          1           0        0.244046   -4.229500    7.162623
      3          6           0        1.509566    1.496229    0.000000
      4          6           0        1.103265    0.000000    0.000000
      5          1           0        0.000000    0.000000    0.000000
      6          6           0        1.510224   -0.778293    1.257018
      7          1           0        2.606450   -0.798886    1.334070
      8          6           0        0.921646   -0.081554    2.515259
      9          1           0       -0.170093   -0.215635    2.437861
     10          6           0        0.951111    1.913200   -1.396684
     11          1           0       -0.139090    1.836483   -1.275575
     12          6           0        0.817241    2.155961    1.205115
     13          1           0       -0.271259    2.112971    1.054203
     14          1           0        1.080859    3.219272    1.283823
     15          6           0        1.342159   -0.793500    3.849566
     16          6           0        1.536231   -0.509985   -1.388736
     17          1           0        0.935563   -1.362429   -1.721312
     18          1           0        2.579771   -0.848154   -1.371434
     19          6           0        1.180951    1.446220    2.526335
     20          1           0        2.234033    1.643746    2.751022
     21          1           0        0.609305    1.907955    3.339104
     22          6           0        1.370551    0.729715   -2.323371
     23          1           0        2.311010    0.940691   -2.839414
     24          1           0        0.622443    0.554493   -3.103555
     25          6           0        1.016562   -2.232225    1.189756
     26          1           0        1.620882   -2.802004    0.471234
     27          1           0       -0.010053   -2.253234    0.787489
     28          6           0        1.194168    3.364829   -1.914967
     29          1           0        1.240772    4.006353   -1.023155
     30          6           0        3.038919    1.692899    0.089542
     31          1           0        3.284486    2.759248    0.124602
     32          1           0        3.461707    1.237665    0.988374
     33          1           0        3.563511    1.259505   -0.766624
     34          6           0        1.197839   -2.315523    3.706418
     35          6           0        0.386357   -0.320664    4.989260
     36          1           0       -0.646352   -0.385107    4.618981
     37          1           0        0.573045    0.736611    5.206442
     38          6           0        1.038184   -2.925221    2.522508
     39          1           0        0.916379   -4.008893    2.507048
     40          6           0        2.809614   -0.466211    4.235877
     41          1           0        2.922986    0.583177    4.525684
     42          1           0        3.145838   -1.070382    5.082114
     43          1           0        3.491771   -0.668425    3.404364
     44          6           0        1.242099   -3.125683    4.988801
     45          1           0        1.037524   -4.180044    4.762316
     46          1           0        2.243695   -3.087922    5.440146
     47          6           0        0.488052   -1.123146    6.294571
     48          1           0        1.474470   -1.001337    6.759172
     49          1           0       -0.247357   -0.754706    7.018785
     50          6           0        2.502015    3.571568   -2.716076
     51          1           0        3.348506    3.165699   -2.153010
     52          1           0        2.445293    2.978768   -3.638510
     53          6           0        0.254064   -2.606954    6.043570
     54          1           0       -0.774020   -2.748975    5.671253
     55          6           0       -0.026224    3.828634   -2.737144
     56          1           0       -0.139482    3.224547   -3.646422
     57          1           0        0.056651    4.875368   -3.044590
     58          1           0       -0.949912    3.731245   -2.156284
     59          6           0        2.825806    5.024052   -3.129865
     60          1           0        3.746536    5.003254   -3.726821
     61          1           0        2.049988    5.389073   -3.813845
     62          6           0        2.980509    6.052646   -1.994021
     63          1           0        2.036269    6.124714   -1.437453
     64          1           0        3.132694    7.043100   -2.448263
     65          6           0        4.123844    5.808955   -0.986485
     66          1           0        3.976301    4.820184   -0.529614
     67          6           0        4.067431    6.850636    0.142580
     68          1           0        3.099349    6.831822    0.656372
     69          1           0        4.848011    6.670799    0.890628
     70          1           0        4.213814    7.863836   -0.253356
     71          6           0        5.508190    5.814123   -1.654464
     72          1           0        5.607073    5.026503   -2.408293
     73          1           0        6.300598    5.661090   -0.913009
     74          1           0        5.697567    6.775694   -2.149232
 ---------------------------------------------------------------------
 Rotational constants (GHZ):      0.3535021      0.0726367      0.0657613
 Leave Link  202 at Tue Mar 21 12:34:41 2017, MaxMem=    33554432 cpu:         0.1
 (Enter /home/michal/g09/l301.exe)
 Standard basis: 6-31G(d) (6D, 7F)
 Ernie: Thresh=  0.10000D-02 Tol=  0.10000D-05 Strict=F.
 AO basis set in the form of general basis input (Overlap normalization):
      1 0
 S   6 1.00       0.000000000000
      0.5484671660D+04  0.1831074430D-02
      0.8252349460D+03  0.1395017220D-01
      0.1880469580D+03  0.6844507810D-01
      0.5296450000D+02  0.2327143360D+00
      0.1689757040D+02  0.4701928980D+00
      0.5799635340D+01  0.3585208530D+00
 SP   3 1.00       0.000000000000
      0.1553961625D+02 -0.1107775495D+00  0.7087426823D-01
      0.3599933586D+01 -0.1480262627D+00  0.3397528391D+00
      0.1013761750D+01  0.1130767015D+01  0.7271585773D+00
 SP   1 1.00       0.000000000000
      0.2700058226D+00  0.1000000000D+01  0.1000000000D+01
 D   1 1.00       0.000000000000
      0.8000000000D+00  0.1000000000D+01
 ****
      2 0
 S   3 1.00       0.000000000000
      0.1873113696D+02  0.3349460434D-01
      0.2825394365D+01  0.2347269535D+00
      0.6401216923D+00  0.8137573261D+00
 S   1 1.00       0.000000000000
      0.1612777588D+00  0.1000000000D+01
 ****
      3 0
 S   6 1.00       0.000000000000
      0.3047524880D+04  0.1834737132D-02
      0.4573695180D+03  0.1403732281D-01
      0.1039486850D+03  0.6884262226D-01
      0.2921015530D+02  0.2321844432D+00
      0.9286662960D+01  0.4679413484D+00
      0.3163926960D+01  0.3623119853D+00
 SP   3 1.00       0.000000000000
      0.7868272350D+01 -0.1193324198D+00  0.6899906659D-01
      0.1881288540D+01 -0.1608541517D+00  0.3164239610D+00
      0.5442492580D+00  0.1143456438D+01  0.7443082909D+00
 SP   1 1.00       0.000000000000
      0.1687144782D+00  0.1000000000D+01  0.1000000000D+01
 D   1 1.00       0.000000000000
      0.8000000000D+00  0.1000000000D+01
 ****
      4 0
 S   6 1.00       0.000000000000
      0.3047524880D+04  0.1834737132D-02
      0.4573695180D+03  0.1403732281D-01
      0.1039486850D+03  0.6884262226D-01
      0.2921015530D+02  0.2321844432D+00
      0.9286662960D+01  0.4679413484D+00
      0.3163926960D+01  0.3623119853D+00
 SP   3 1.00       0.000000000000
      0.7868272350D+01 -0.1193324198D+00  0.6899906659D-01
      0.1881288540D+01 -0.1608541517D+00  0.3164239610D+00
      0.5442492580D+00  0.1143456438D+01  0.7443082909D+00
 SP   1 1.00       0.000000000000
      0.1687144782D+00  0.1000000000D+01  0.1000000000D+01
 D   1 1.00       0.000000000000
      0.8000000000D+00  0.1000000000D+01
 ****
      5 0
 S   3 1.00       0.000000000000
      0.1873113696D+02  0.3349460434D-01
      0.2825394365D+01  0.2347269535D+00
      0.6401216923D+00  0.8137573261D+00
 S   1 1.00       0.000000000000
      0.1612777588D+00  0.1000000000D+01
 ****
      6 0
 S   6 1.00       0.000000000000
      0.3047524880D+04  0.1834737132D-02
      0.4573695180D+03  0.1403732281D-01
      0.1039486850D+03  0.6884262226D-01
      0.2921015530D+02  0.2321844432D+00
      0.9286662960D+01  0.4679413484D+00
      0.3163926960D+01  0.3623119853D+00
 SP   3 1.00       0.000000000000
      0.7868272350D+01 -0.1193324198D+00  0.6899906659D-01
      0.1881288540D+01 -0.1608541517D+00  0.3164239610D+00
      0.5442492580D+00  0.1143456438D+01  0.7443082909D+00
 SP   1 1.00       0.000000000000
      0.1687144782D+00  0.1000000000D+01  0.1000000000D+01
 D   1 1.00       0.000000000000
      0.8000000000D+00  0.1000000000D+01
 ****
      7 0
 S   3 1.00       0.000000000000
      0.1873113696D+02  0.3349460434D-01
      0.2825394365D+01  0.2347269535D+00
      0.6401216923D+00  0.8137573261D+00
 S   1 1.00       0.000000000000
      0.1612777588D+00  0.1000000000D+01
 ****
      8 0
 S   6 1.00       0.000000000000
      0.3047524880D+04  0.1834737132D-02
      0.4573695180D+03  0.1403732281D-01
      0.1039486850D+03  0.6884262226D-01
      0.2921015530D+02  0.2321844432D+00
      0.9286662960D+01  0.4679413484D+00
      0.3163926960D+01  0.3623119853D+00
 SP   3 1.00       0.000000000000
      0.7868272350D+01 -0.1193324198D+00  0.6899906659D-01
      0.1881288540D+01 -0.1608541517D+00  0.3164239610D+00
      0.5442492580D+00  0.1143456438D+01  0.7443082909D+00
 SP   1 1.00       0.000000000000
      0.1687144782D+00  0.1000000000D+01  0.1000000000D+01
 D   1 1.00       0.000000000000
      0.8000000000D+00  0.1000000000D+01
 ****
      9 0
 S   3 1.00       0.000000000000
      0.1873113696D+02  0.3349460434D-01
      0.2825394365D+01  0.2347269535D+00
      0.6401216923D+00  0.8137573261D+00
 S   1 1.00       0.000000000000
      0.1612777588D+00  0.1000000000D+01
 ****
     10 0
 S   6 1.00       0.000000000000
      0.3047524880D+04  0.1834737132D-02
      0.4573695180D+03  0.1403732281D-01
      0.1039486850D+03  0.6884262226D-01
      0.2921015530D+02  0.2321844432D+00
      0.9286662960D+01  0.4679413484D+00
      0.3163926960D+01  0.3623119853D+00
 SP   3 1.00       0.000000000000
      0.7868272350D+01 -0.1193324198D+00  0.6899906659D-01
      0.1881288540D+01 -0.1608541517D+00  0.3164239610D+00
      0.5442492580D+00  0.1143456438D+01  0.7443082909D+00
 SP   1 1.00       0.000000000000
      0.1687144782D+00  0.1000000000D+01  0.1000000000D+01
 D   1 1.00       0.000000000000
      0.8000000000D+00  0.1000000000D+01
 ****
     11 0
 S   3 1.00       0.000000000000
      0.1873113696D+02  0.3349460434D-01
      0.2825394365D+01  0.2347269535D+00
      0.6401216923D+00  0.8137573261D+00
 S   1 1.00       0.000000000000
      0.1612777588D+00  0.1000000000D+01
 ****
     12 0
 S   6 1.00       0.000000000000
      0.3047524880D+04  0.1834737132D-02
      0.4573695180D+03  0.1403732281D-01
      0.1039486850D+03  0.6884262226D-01
      0.2921015530D+02  0.2321844432D+00
      0.9286662960D+01  0.4679413484D+00
      0.3163926960D+01  0.3623119853D+00
 SP   3 1.00       0.000000000000
      0.7868272350D+01 -0.1193324198D+00  0.6899906659D-01
      0.1881288540D+01 -0.1608541517D+00  0.3164239610D+00
      0.5442492580D+00  0.1143456438D+01  0.7443082909D+00
 SP   1 1.00       0.000000000000
      0.1687144782D+00  0.1000000000D+01  0.1000000000D+01
 D   1 1.00       0.000000000000
      0.8000000000D+00  0.1000000000D+01
 ****
     13 0
 S   3 1.00       0.000000000000
      0.1873113696D+02  0.3349460434D-01
      0.2825394365D+01  0.2347269535D+00
      0.6401216923D+00  0.8137573261D+00
 S   1 1.00       0.000000000000
      0.1612777588D+00  0.1000000000D+01
 ****
     14 0
 S   3 1.00       0.000000000000
      0.1873113696D+02  0.3349460434D-01
      0.2825394365D+01  0.2347269535D+00
      0.6401216923D+00  0.8137573261D+00
 S   1 1.00       0.000000000000
      0.1612777588D+00  0.1000000000D+01
 ****
     15 0
 S   6 1.00       0.000000000000
      0.3047524880D+04  0.1834737132D-02
      0.4573695180D+03  0.1403732281D-01
      0.1039486850D+03  0.6884262226D-01
      0.2921015530D+02  0.2321844432D+00
      0.9286662960D+01  0.4679413484D+00
      0.3163926960D+01  0.3623119853D+00
 SP   3 1.00       0.000000000000
      0.7868272350D+01 -0.1193324198D+00  0.6899906659D-01
      0.1881288540D+01 -0.1608541517D+00  0.3164239610D+00
      0.5442492580D+00  0.1143456438D+01  0.7443082909D+00
 SP   1 1.00       0.000000000000
      0.1687144782D+00  0.1000000000D+01  0.1000000000D+01
 D   1 1.00       0.000000000000
      0.8000000000D+00  0.1000000000D+01
 ****
     16 0
 S   6 1.00       0.000000000000
      0.3047524880D+04  0.1834737132D-02
      0.4573695180D+03  0.1403732281D-01
      0.1039486850D+03  0.6884262226D-01
      0.2921015530D+02  0.2321844432D+00
      0.9286662960D+01  0.4679413484D+00
      0.3163926960D+01  0.3623119853D+00
 SP   3 1.00       0.000000000000
      0.7868272350D+01 -0.1193324198D+00  0.6899906659D-01
      0.1881288540D+01 -0.1608541517D+00  0.3164239610D+00
      0.5442492580D+00  0.1143456438D+01  0.7443082909D+00
 SP   1 1.00       0.000000000000
      0.1687144782D+00  0.1000000000D+01  0.1000000000D+01
 D   1 1.00       0.000000000000
      0.8000000000D+00  0.1000000000D+01
 ****
     17 0
 S   3 1.00       0.000000000000
      0.1873113696D+02  0.3349460434D-01
      0.2825394365D+01  0.2347269535D+00
      0.6401216923D+00  0.8137573261D+00
 S   1 1.00       0.000000000000
      0.1612777588D+00  0.1000000000D+01
 ****
     18 0
 S   3 1.00       0.000000000000
      0.1873113696D+02  0.3349460434D-01
      0.2825394365D+01  0.2347269535D+00
      0.6401216923D+00  0.8137573261D+00
 S   1 1.00       0.000000000000
      0.1612777588D+00  0.1000000000D+01
 ****
     19 0
 S   6 1.00       0.000000000000
      0.3047524880D+04  0.1834737132D-02
      0.4573695180D+03  0.1403732281D-01
      0.1039486850D+03  0.6884262226D-01
      0.2921015530D+02  0.2321844432D+00
      0.9286662960D+01  0.4679413484D+00
      0.3163926960D+01  0.3623119853D+00
 SP   3 1.00       0.000000000000
      0.7868272350D+01 -0.1193324198D+00  0.6899906659D-01
      0.1881288540D+01 -0.1608541517D+00  0.3164239610D+00
      0.5442492580D+00  0.1143456438D+01  0.7443082909D+00
 SP   1 1.00       0.000000000000
      0.1687144782D+00  0.1000000000D+01  0.1000000000D+01
 D   1 1.00       0.000000000000
      0.8000000000D+00  0.1000000000D+01
 ****
     20 0
 S   3 1.00       0.000000000000
      0.1873113696D+02  0.3349460434D-01
      0.2825394365D+01  0.2347269535D+00
      0.6401216923D+00  0.8137573261D+00
 S   1 1.00       0.000000000000
      0.1612777588D+00  0.1000000000D+01
 ****
     21 0
 S   3 1.00       0.000000000000
      0.1873113696D+02  0.3349460434D-01
      0.2825394365D+01  0.2347269535D+00
      0.6401216923D+00  0.8137573261D+00
 S   1 1.00       0.000000000000
      0.1612777588D+00  0.1000000000D+01
 ****
     22 0
 S   6 1.00       0.000000000000
      0.3047524880D+04  0.1834737132D-02
      0.4573695180D+03  0.1403732281D-01
      0.1039486850D+03  0.6884262226D-01
      0.2921015530D+02  0.2321844432D+00
      0.9286662960D+01  0.4679413484D+00
      0.3163926960D+01  0.3623119853D+00
 SP   3 1.00       0.000000000000
      0.7868272350D+01 -0.1193324198D+00  0.6899906659D-01
      0.1881288540D+01 -0.1608541517D+00  0.3164239610D+00
      0.5442492580D+00  0.1143456438D+01  0.7443082909D+00
 SP   1 1.00       0.000000000000
      0.1687144782D+00  0.1000000000D+01  0.1000000000D+01
 D   1 1.00       0.000000000000
      0.8000000000D+00  0.1000000000D+01
 ****
     23 0
 S   3 1.00       0.000000000000
      0.1873113696D+02  0.3349460434D-01
      0.2825394365D+01  0.2347269535D+00
      0.6401216923D+00  0.8137573261D+00
 S   1 1.00       0.000000000000
      0.1612777588D+00  0.1000000000D+01
 ****
     24 0
 S   3 1.00       0.000000000000
      0.1873113696D+02  0.3349460434D-01
      0.2825394365D+01  0.2347269535D+00
      0.6401216923D+00  0.8137573261D+00
 S   1 1.00       0.000000000000
      0.1612777588D+00  0.1000000000D+01
 ****
     25 0
 S   6 1.00       0.000000000000
      0.3047524880D+04  0.1834737132D-02
      0.4573695180D+03  0.1403732281D-01
      0.1039486850D+03  0.6884262226D-01
      0.2921015530D+02  0.2321844432D+00
      0.9286662960D+01  0.4679413484D+00
      0.3163926960D+01  0.3623119853D+00
 SP   3 1.00       0.000000000000
      0.7868272350D+01 -0.1193324198D+00  0.6899906659D-01
      0.1881288540D+01 -0.1608541517D+00  0.3164239610D+00
      0.5442492580D+00  0.1143456438D+01  0.7443082909D+00
 SP   1 1.00       0.000000000000
      0.1687144782D+00  0.1000000000D+01  0.1000000000D+01
 D   1 1.00       0.000000000000
      0.8000000000D+00  0.1000000000D+01
 ****
     26 0
 S   3 1.00       0.000000000000
      0.1873113696D+02  0.3349460434D-01
      0.2825394365D+01  0.2347269535D+00
      0.6401216923D+00  0.8137573261D+00
 S   1 1.00       0.000000000000
      0.1612777588D+00  0.1000000000D+01
 ****
     27 0
 S   3 1.00       0.000000000000
      0.1873113696D+02  0.3349460434D-01
      0.2825394365D+01  0.2347269535D+00
      0.6401216923D+00  0.8137573261D+00
 S   1 1.00       0.000000000000
      0.1612777588D+00  0.1000000000D+01
 ****
     28 0
 S   6 1.00       0.000000000000
      0.3047524880D+04  0.1834737132D-02
      0.4573695180D+03  0.1403732281D-01
      0.1039486850D+03  0.6884262226D-01
      0.2921015530D+02  0.2321844432D+00
      0.9286662960D+01  0.4679413484D+00
      0.3163926960D+01  0.3623119853D+00
 SP   3 1.00       0.000000000000
      0.7868272350D+01 -0.1193324198D+00  0.6899906659D-01
      0.1881288540D+01 -0.1608541517D+00  0.3164239610D+00
      0.5442492580D+00  0.1143456438D+01  0.7443082909D+00
 SP   1 1.00       0.000000000000
      0.1687144782D+00  0.1000000000D+01  0.1000000000D+01
 D   1 1.00       0.000000000000
      0.8000000000D+00  0.1000000000D+01
 ****
     29 0
 S   3 1.00       0.000000000000
      0.1873113696D+02  0.3349460434D-01
      0.2825394365D+01  0.2347269535D+00
      0.6401216923D+00  0.8137573261D+00
 S   1 1.00       0.000000000000
      0.1612777588D+00  0.1000000000D+01
 ****
     30 0
 S   6 1.00       0.000000000000
      0.3047524880D+04  0.1834737132D-02
      0.4573695180D+03  0.1403732281D-01
      0.1039486850D+03  0.6884262226D-01
      0.2921015530D+02  0.2321844432D+00
      0.9286662960D+01  0.4679413484D+00
      0.3163926960D+01  0.3623119853D+00
 SP   3 1.00       0.000000000000
      0.7868272350D+01 -0.1193324198D+00  0.6899906659D-01
      0.1881288540D+01 -0.1608541517D+00  0.3164239610D+00
      0.5442492580D+00  0.1143456438D+01  0.7443082909D+00
 SP   1 1.00       0.000000000000
      0.1687144782D+00  0.1000000000D+01  0.1000000000D+01
 D   1 1.00       0.000000000000
      0.8000000000D+00  0.1000000000D+01
 ****
     31 0
 S   3 1.00       0.000000000000
      0.1873113696D+02  0.3349460434D-01
      0.2825394365D+01  0.2347269535D+00
      0.6401216923D+00  0.8137573261D+00
 S   1 1.00       0.000000000000
      0.1612777588D+00  0.1000000000D+01
 ****
     32 0
 S   3 1.00       0.000000000000
      0.1873113696D+02  0.3349460434D-01
      0.2825394365D+01  0.2347269535D+00
      0.6401216923D+00  0.8137573261D+00
 S   1 1.00       0.000000000000
      0.1612777588D+00  0.1000000000D+01
 ****
     33 0
 S   3 1.00       0.000000000000
      0.1873113696D+02  0.3349460434D-01
      0.2825394365D+01  0.2347269535D+00
      0.6401216923D+00  0.8137573261D+00
 S   1 1.00       0.000000000000
      0.1612777588D+00  0.1000000000D+01
 ****
     34 0
 S   6 1.00       0.000000000000
      0.3047524880D+04  0.1834737132D-02
      0.4573695180D+03  0.1403732281D-01
      0.1039486850D+03  0.6884262226D-01
      0.2921015530D+02  0.2321844432D+00
      0.9286662960D+01  0.4679413484D+00
      0.3163926960D+01  0.3623119853D+00
 SP   3 1.00       0.000000000000
      0.7868272350D+01 -0.1193324198D+00  0.6899906659D-01
      0.1881288540D+01 -0.1608541517D+00  0.3164239610D+00
      0.5442492580D+00  0.1143456438D+01  0.7443082909D+00
 SP   1 1.00       0.000000000000
      0.1687144782D+00  0.1000000000D+01  0.1000000000D+01
 D   1 1.00       0.000000000000
      0.8000000000D+00  0.1000000000D+01
 ****
     35 0
 S   6 1.00       0.000000000000
      0.3047524880D+04  0.1834737132D-02
      0.4573695180D+03  0.1403732281D-01
      0.1039486850D+03  0.6884262226D-01
      0.2921015530D+02  0.2321844432D+00
      0.9286662960D+01  0.4679413484D+00
      0.3163926960D+01  0.3623119853D+00
 SP   3 1.00       0.000000000000
      0.7868272350D+01 -0.1193324198D+00  0.6899906659D-01
      0.1881288540D+01 -0.1608541517D+00  0.3164239610D+00
      0.5442492580D+00  0.1143456438D+01  0.7443082909D+00
 SP   1 1.00       0.000000000000
      0.1687144782D+00  0.1000000000D+01  0.1000000000D+01
 D   1 1.00       0.000000000000
      0.8000000000D+00  0.1000000000D+01
 ****
     36 0
 S   3 1.00       0.000000000000
      0.1873113696D+02  0.3349460434D-01
      0.2825394365D+01  0.2347269535D+00
      0.6401216923D+00  0.8137573261D+00
 S   1 1.00       0.000000000000
      0.1612777588D+00  0.1000000000D+01
 ****
     37 0
 S   3 1.00       0.000000000000
      0.1873113696D+02  0.3349460434D-01
      0.2825394365D+01  0.2347269535D+00
      0.6401216923D+00  0.8137573261D+00
 S   1 1.00       0.000000000000
      0.1612777588D+00  0.1000000000D+01
 ****
     38 0
 S   6 1.00       0.000000000000
      0.3047524880D+04  0.1834737132D-02
      0.4573695180D+03  0.1403732281D-01
      0.1039486850D+03  0.6884262226D-01
      0.2921015530D+02  0.2321844432D+00
      0.9286662960D+01  0.4679413484D+00
      0.3163926960D+01  0.3623119853D+00
 SP   3 1.00       0.000000000000
      0.7868272350D+01 -0.1193324198D+00  0.6899906659D-01
      0.1881288540D+01 -0.1608541517D+00  0.3164239610D+00
      0.5442492580D+00  0.1143456438D+01  0.7443082909D+00
 SP   1 1.00       0.000000000000
      0.1687144782D+00  0.1000000000D+01  0.1000000000D+01
 D   1 1.00       0.000000000000
      0.8000000000D+00  0.1000000000D+01
 ****
     39 0
 S   3 1.00       0.000000000000
      0.1873113696D+02  0.3349460434D-01
      0.2825394365D+01  0.2347269535D+00
      0.6401216923D+00  0.8137573261D+00
 S   1 1.00       0.000000000000
      0.1612777588D+00  0.1000000000D+01
 ****
     40 0
 S   6 1.00       0.000000000000
      0.3047524880D+04  0.1834737132D-02
      0.4573695180D+03  0.1403732281D-01
      0.1039486850D+03  0.6884262226D-01
      0.2921015530D+02  0.2321844432D+00
      0.9286662960D+01  0.4679413484D+00
      0.3163926960D+01  0.3623119853D+00
 SP   3 1.00       0.000000000000
      0.7868272350D+01 -0.1193324198D+00  0.6899906659D-01
      0.1881288540D+01 -0.1608541517D+00  0.3164239610D+00
      0.5442492580D+00  0.1143456438D+01  0.7443082909D+00
 SP   1 1.00       0.000000000000
      0.1687144782D+00  0.1000000000D+01  0.1000000000D+01
 D   1 1.00       0.000000000000
      0.8000000000D+00  0.1000000000D+01
 ****
     41 0
 S   3 1.00       0.000000000000
      0.1873113696D+02  0.3349460434D-01
      0.2825394365D+01  0.2347269535D+00
      0.6401216923D+00  0.8137573261D+00
 S   1 1.00       0.000000000000
      0.1612777588D+00  0.1000000000D+01
 ****
     42 0
 S   3 1.00       0.000000000000
      0.1873113696D+02  0.3349460434D-01
      0.2825394365D+01  0.2347269535D+00
      0.6401216923D+00  0.8137573261D+00
 S   1 1.00       0.000000000000
      0.1612777588D+00  0.1000000000D+01
 ****
     43 0
 S   3 1.00       0.000000000000
      0.1873113696D+02  0.3349460434D-01
      0.2825394365D+01  0.2347269535D+00
      0.6401216923D+00  0.8137573261D+00
 S   1 1.00       0.000000000000
      0.1612777588D+00  0.1000000000D+01
 ****
     44 0
 S   6 1.00       0.000000000000
      0.3047524880D+04  0.1834737132D-02
      0.4573695180D+03  0.1403732281D-01
      0.1039486850D+03  0.6884262226D-01
      0.2921015530D+02  0.2321844432D+00
      0.9286662960D+01  0.4679413484D+00
      0.3163926960D+01  0.3623119853D+00
 SP   3 1.00       0.000000000000
      0.7868272350D+01 -0.1193324198D+00  0.6899906659D-01
      0.1881288540D+01 -0.1608541517D+00  0.3164239610D+00
      0.5442492580D+00  0.1143456438D+01  0.7443082909D+00
 SP   1 1.00       0.000000000000
      0.1687144782D+00  0.1000000000D+01  0.1000000000D+01
 D   1 1.00       0.000000000000
      0.8000000000D+00  0.1000000000D+01
 ****
     45 0
 S   3 1.00       0.000000000000
      0.1873113696D+02  0.3349460434D-01
      0.2825394365D+01  0.2347269535D+00
      0.6401216923D+00  0.8137573261D+00
 S   1 1.00       0.000000000000
      0.1612777588D+00  0.1000000000D+01
 ****
     46 0
 S   3 1.00       0.000000000000
      0.1873113696D+02  0.3349460434D-01
      0.2825394365D+01  0.2347269535D+00
      0.6401216923D+00  0.8137573261D+00
 S   1 1.00       0.000000000000
      0.1612777588D+00  0.1000000000D+01
 ****
     47 0
 S   6 1.00       0.000000000000
      0.3047524880D+04  0.1834737132D-02
      0.4573695180D+03  0.1403732281D-01
      0.1039486850D+03  0.6884262226D-01
      0.2921015530D+02  0.2321844432D+00
      0.9286662960D+01  0.4679413484D+00
      0.3163926960D+01  0.3623119853D+00
 SP   3 1.00       0.000000000000
      0.7868272350D+01 -0.1193324198D+00  0.6899906659D-01
      0.1881288540D+01 -0.1608541517D+00  0.3164239610D+00
      0.5442492580D+00  0.1143456438D+01  0.7443082909D+00
 SP   1 1.00       0.000000000000
      0.1687144782D+00  0.1000000000D+01  0.1000000000D+01
 D   1 1.00       0.000000000000
      0.8000000000D+00  0.1000000000D+01
 ****
     48 0
 S   3 1.00       0.000000000000
      0.1873113696D+02  0.3349460434D-01
      0.2825394365D+01  0.2347269535D+00
      0.6401216923D+00  0.8137573261D+00
 S   1 1.00       0.000000000000
      0.1612777588D+00  0.1000000000D+01
 ****
     49 0
 S   3 1.00       0.000000000000
      0.1873113696D+02  0.3349460434D-01
      0.2825394365D+01  0.2347269535D+00
      0.6401216923D+00  0.8137573261D+00
 S   1 1.00       0.000000000000
      0.1612777588D+00  0.1000000000D+01
 ****
     50 0
 S   6 1.00       0.000000000000
      0.3047524880D+04  0.1834737132D-02
      0.4573695180D+03  0.1403732281D-01
      0.1039486850D+03  0.6884262226D-01
      0.2921015530D+02  0.2321844432D+00
      0.9286662960D+01  0.4679413484D+00
      0.3163926960D+01  0.3623119853D+00
 SP   3 1.00       0.000000000000
      0.7868272350D+01 -0.1193324198D+00  0.6899906659D-01
      0.1881288540D+01 -0.1608541517D+00  0.3164239610D+00
      0.5442492580D+00  0.1143456438D+01  0.7443082909D+00
 SP   1 1.00       0.000000000000
      0.1687144782D+00  0.1000000000D+01  0.1000000000D+01
 D   1 1.00       0.000000000000
      0.8000000000D+00  0.1000000000D+01
 ****
     51 0
 S   3 1.00       0.000000000000
      0.1873113696D+02  0.3349460434D-01
      0.2825394365D+01  0.2347269535D+00
      0.6401216923D+00  0.8137573261D+00
 S   1 1.00       0.000000000000
      0.1612777588D+00  0.1000000000D+01
 ****
     52 0
 S   3 1.00       0.000000000000
      0.1873113696D+02  0.3349460434D-01
      0.2825394365D+01  0.2347269535D+00
      0.6401216923D+00  0.8137573261D+00
 S   1 1.00       0.000000000000
      0.1612777588D+00  0.1000000000D+01
 ****
     53 0
 S   6 1.00       0.000000000000
      0.3047524880D+04  0.1834737132D-02
      0.4573695180D+03  0.1403732281D-01
      0.1039486850D+03  0.6884262226D-01
      0.2921015530D+02  0.2321844432D+00
      0.9286662960D+01  0.4679413484D+00
      0.3163926960D+01  0.3623119853D+00
 SP   3 1.00       0.000000000000
      0.7868272350D+01 -0.1193324198D+00  0.6899906659D-01
      0.1881288540D+01 -0.1608541517D+00  0.3164239610D+00
      0.5442492580D+00  0.1143456438D+01  0.7443082909D+00
 SP   1 1.00       0.000000000000
      0.1687144782D+00  0.1000000000D+01  0.1000000000D+01
 D   1 1.00       0.000000000000
      0.8000000000D+00  0.1000000000D+01
 ****
     54 0
 S   3 1.00       0.000000000000
      0.1873113696D+02  0.3349460434D-01
      0.2825394365D+01  0.2347269535D+00
      0.6401216923D+00  0.8137573261D+00
 S   1 1.00       0.000000000000
      0.1612777588D+00  0.1000000000D+01
 ****
     55 0
 S   6 1.00       0.000000000000
      0.3047524880D+04  0.1834737132D-02
      0.4573695180D+03  0.1403732281D-01
      0.1039486850D+03  0.6884262226D-01
      0.2921015530D+02  0.2321844432D+00
      0.9286662960D+01  0.4679413484D+00
      0.3163926960D+01  0.3623119853D+00
 SP   3 1.00       0.000000000000
      0.7868272350D+01 -0.1193324198D+00  0.6899906659D-01
      0.1881288540D+01 -0.1608541517D+00  0.3164239610D+00
      0.5442492580D+00  0.1143456438D+01  0.7443082909D+00
 SP   1 1.00       0.000000000000
      0.1687144782D+00  0.1000000000D+01  0.1000000000D+01
 D   1 1.00       0.000000000000
      0.8000000000D+00  0.1000000000D+01
 ****
     56 0
 S   3 1.00       0.000000000000
      0.1873113696D+02  0.3349460434D-01
      0.2825394365D+01  0.2347269535D+00
      0.6401216923D+00  0.8137573261D+00
 S   1 1.00       0.000000000000
      0.1612777588D+00  0.1000000000D+01
 ****
     57 0
 S   3 1.00       0.000000000000
      0.1873113696D+02  0.3349460434D-01
      0.2825394365D+01  0.2347269535D+00
      0.6401216923D+00  0.8137573261D+00
 S   1 1.00       0.000000000000
      0.1612777588D+00  0.1000000000D+01
 ****
     58 0
 S   3 1.00       0.000000000000
      0.1873113696D+02  0.3349460434D-01
      0.2825394365D+01  0.2347269535D+00
      0.6401216923D+00  0.8137573261D+00
 S   1 1.00       0.000000000000
      0.1612777588D+00  0.1000000000D+01
 ****
     59 0
 S   6 1.00       0.000000000000
      0.3047524880D+04  0.1834737132D-02
      0.4573695180D+03  0.1403732281D-01
      0.1039486850D+03  0.6884262226D-01
      0.2921015530D+02  0.2321844432D+00
      0.9286662960D+01  0.4679413484D+00
      0.3163926960D+01  0.3623119853D+00
 SP   3 1.00       0.000000000000
      0.7868272350D+01 -0.1193324198D+00  0.6899906659D-01
      0.1881288540D+01 -0.1608541517D+00  0.3164239610D+00
      0.5442492580D+00  0.1143456438D+01  0.7443082909D+00
 SP   1 1.00       0.000000000000
      0.1687144782D+00  0.1000000000D+01  0.1000000000D+01
 D   1 1.00       0.000000000000
      0.8000000000D+00  0.1000000000D+01
 ****
     60 0
 S   3 1.00       0.000000000000
      0.1873113696D+02  0.3349460434D-01
      0.2825394365D+01  0.2347269535D+00
      0.6401216923D+00  0.8137573261D+00
 S   1 1.00       0.000000000000
      0.1612777588D+00  0.1000000000D+01
 ****
     61 0
 S   3 1.00       0.000000000000
      0.1873113696D+02  0.3349460434D-01
      0.2825394365D+01  0.2347269535D+00
      0.6401216923D+00  0.8137573261D+00
 S   1 1.00       0.000000000000
      0.1612777588D+00  0.1000000000D+01
 ****
     62 0
 S   6 1.00       0.000000000000
      0.3047524880D+04  0.1834737132D-02
      0.4573695180D+03  0.1403732281D-01
      0.1039486850D+03  0.6884262226D-01
      0.2921015530D+02  0.2321844432D+00
      0.9286662960D+01  0.4679413484D+00
      0.3163926960D+01  0.3623119853D+00
 SP   3 1.00       0.000000000000
      0.7868272350D+01 -0.1193324198D+00  0.6899906659D-01
      0.1881288540D+01 -0.1608541517D+00  0.3164239610D+00
      0.5442492580D+00  0.1143456438D+01  0.7443082909D+00
 SP   1 1.00       0.000000000000
      0.1687144782D+00  0.1000000000D+01  0.1000000000D+01
 D   1 1.00       0.000000000000
      0.8000000000D+00  0.1000000000D+01
 ****
     63 0
 S   3 1.00       0.000000000000
      0.1873113696D+02  0.3349460434D-01
      0.2825394365D+01  0.2347269535D+00
      0.6401216923D+00  0.8137573261D+00
 S   1 1.00       0.000000000000
      0.1612777588D+00  0.1000000000D+01
 ****
     64 0
 S   3 1.00       0.000000000000
      0.1873113696D+02  0.3349460434D-01
      0.2825394365D+01  0.2347269535D+00
      0.6401216923D+00  0.8137573261D+00
 S   1 1.00       0.000000000000
      0.1612777588D+00  0.1000000000D+01
 ****
     65 0
 S   6 1.00       0.000000000000
      0.3047524880D+04  0.1834737132D-02
      0.4573695180D+03  0.1403732281D-01
      0.1039486850D+03  0.6884262226D-01
      0.2921015530D+02  0.2321844432D+00
      0.9286662960D+01  0.4679413484D+00
      0.3163926960D+01  0.3623119853D+00
 SP   3 1.00       0.000000000000
      0.7868272350D+01 -0.1193324198D+00  0.6899906659D-01
      0.1881288540D+01 -0.1608541517D+00  0.3164239610D+00
      0.5442492580D+00  0.1143456438D+01  0.7443082909D+00
 SP   1 1.00       0.000000000000
      0.1687144782D+00  0.1000000000D+01  0.1000000000D+01
 D   1 1.00       0.000000000000
      0.8000000000D+00  0.1000000000D+01
 ****
     66 0
 S   3 1.00       0.000000000000
      0.1873113696D+02  0.3349460434D-01
      0.2825394365D+01  0.2347269535D+00
      0.6401216923D+00  0.8137573261D+00
 S   1 1.00       0.000000000000
      0.1612777588D+00  0.1000000000D+01
 ****
     67 0
 S   6 1.00       0.000000000000
      0.3047524880D+04  0.1834737132D-02
      0.4573695180D+03  0.1403732281D-01
      0.1039486850D+03  0.6884262226D-01
      0.2921015530D+02  0.2321844432D+00
      0.9286662960D+01  0.4679413484D+00
      0.3163926960D+01  0.3623119853D+00
 SP   3 1.00       0.000000000000
      0.7868272350D+01 -0.1193324198D+00  0.6899906659D-01
      0.1881288540D+01 -0.1608541517D+00  0.3164239610D+00
      0.5442492580D+00  0.1143456438D+01  0.7443082909D+00
 SP   1 1.00       0.000000000000
      0.1687144782D+00  0.1000000000D+01  0.1000000000D+01
 D   1 1.00       0.000000000000
      0.8000000000D+00  0.1000000000D+01
 ****
     68 0
 S   3 1.00       0.000000000000
      0.1873113696D+02  0.3349460434D-01
      0.2825394365D+01  0.2347269535D+00
      0.6401216923D+00  0.8137573261D+00
 S   1 1.00       0.000000000000
      0.1612777588D+00  0.1000000000D+01
 ****
     69 0
 S   3 1.00       0.000000000000
      0.1873113696D+02  0.3349460434D-01
      0.2825394365D+01  0.2347269535D+00
      0.6401216923D+00  0.8137573261D+00
 S   1 1.00       0.000000000000
      0.1612777588D+00  0.1000000000D+01
 ****
     70 0
 S   3 1.00       0.000000000000
      0.1873113696D+02  0.3349460434D-01
      0.2825394365D+01  0.2347269535D+00
      0.6401216923D+00  0.8137573261D+00
 S   1 1.00       0.000000000000
      0.1612777588D+00  0.1000000000D+01
 ****
     71 0
 S   6 1.00       0.000000000000
      0.3047524880D+04  0.1834737132D-02
      0.4573695180D+03  0.1403732281D-01
      0.1039486850D+03  0.6884262226D-01
      0.2921015530D+02  0.2321844432D+00
      0.9286662960D+01  0.4679413484D+00
      0.3163926960D+01  0.3623119853D+00
 SP   3 1.00       0.000000000000
      0.7868272350D+01 -0.1193324198D+00  0.6899906659D-01
      0.1881288540D+01 -0.1608541517D+00  0.3164239610D+00
      0.5442492580D+00  0.1143456438D+01  0.7443082909D+00
 SP   1 1.00       0.000000000000
      0.1687144782D+00  0.1000000000D+01  0.1000000000D+01
 D   1 1.00       0.000000000000
      0.8000000000D+00  0.1000000000D+01
 ****
     72 0
 S   3 1.00       0.000000000000
      0.1873113696D+02  0.3349460434D-01
      0.2825394365D+01  0.2347269535D+00
      0.6401216923D+00  0.8137573261D+00
 S   1 1.00       0.000000000000
      0.1612777588D+00  0.1000000000D+01
 ****
     73 0
 S   3 1.00       0.000000000000
      0.1873113696D+02  0.3349460434D-01
      0.2825394365D+01  0.2347269535D+00
      0.6401216923D+00  0.8137573261D+00
 S   1 1.00       0.000000000000
      0.1612777588D+00  0.1000000000D+01
 ****
     74 0
 S   3 1.00       0.000000000000
      0.1873113696D+02  0.3349460434D-01
      0.2825394365D+01  0.2347269535D+00
      0.6401216923D+00  0.8137573261D+00
 S   1 1.00       0.000000000000
      0.1612777588D+00  0.1000000000D+01
 ****

 AO basis set (Overlap normalization):
 Atom O1       Shell     1 S   6     bf    1 -     1          0.765961389532         -6.209769216546         13.788003151990
      0.5484671660D+04  0.1831074430D-02
      0.8252349460D+03  0.1395017220D-01
      0.1880469580D+03  0.6844507810D-01
      0.5296450000D+02  0.2327143360D+00
      0.1689757040D+02  0.4701928980D+00
      0.5799635340D+01  0.3585208530D+00
 Atom O1       Shell     2 SP   3    bf    2 -     5          0.765961389532         -6.209769216546         13.788003151990
      0.1553961625D+02 -0.1107775495D+00  0.7087426823D-01
      0.3599933586D+01 -0.1480262627D+00  0.3397528391D+00
      0.1013761750D+01  0.1130767015D+01  0.7271585773D+00
 Atom O1       Shell     3 SP   1    bf    6 -     9          0.765961389532         -6.209769216546         13.788003151990
      0.2700058226D+00  0.1000000000D+01  0.1000000000D+01
 Atom O1       Shell     4 D   1     bf   10 -    15          0.765961389532         -6.209769216546         13.788003151990
      0.8000000000D+00  0.1000000000D+01
 Atom H2       Shell     5 S   3     bf   16 -    16          0.461179385730         -7.992597321547         13.535395825313
      0.1873113696D+02  0.3349460434D-01
      0.2825394365D+01  0.2347269535D+00
      0.6401216923D+00  0.8137573261D+00
 Atom H2       Shell     6 S   1     bf   17 -    17          0.461179385730         -7.992597321547         13.535395825313
      0.1612777588D+00  0.1000000000D+01
 Atom C3       Shell     7 S   6     bf   18 -    18          2.852665488036          2.827462550753          0.000000000000
      0.3047524880D+04  0.1834737132D-02
      0.4573695180D+03  0.1403732281D-01
      0.1039486850D+03  0.6884262226D-01
      0.2921015530D+02  0.2321844432D+00
      0.9286662960D+01  0.4679413484D+00
      0.3163926960D+01  0.3623119853D+00
 Atom C3       Shell     8 SP   3    bf   19 -    22          2.852665488036          2.827462550753          0.000000000000
      0.7868272350D+01 -0.1193324198D+00  0.6899906659D-01
      0.1881288540D+01 -0.1608541517D+00  0.3164239610D+00
      0.5442492580D+00  0.1143456438D+01  0.7443082909D+00
 Atom C3       Shell     9 SP   1    bf   23 -    26          2.852665488036          2.827462550753          0.000000000000
      0.1687144782D+00  0.1000000000D+01  0.1000000000D+01
 Atom C3       Shell    10 D   1     bf   27 -    32          2.852665488036          2.827462550753          0.000000000000
      0.8000000000D+00  0.1000000000D+01
 Atom C4       Shell    11 S   6     bf   33 -    33          2.084868078388          0.000000000000          0.000000000000
      0.3047524880D+04  0.1834737132D-02
      0.4573695180D+03  0.1403732281D-01
      0.1039486850D+03  0.6884262226D-01
      0.2921015530D+02  0.2321844432D+00
      0.9286662960D+01  0.4679413484D+00
      0.3163926960D+01  0.3623119853D+00
 Atom C4       Shell    12 SP   3    bf   34 -    37          2.084868078388          0.000000000000          0.000000000000
      0.7868272350D+01 -0.1193324198D+00  0.6899906659D-01
      0.1881288540D+01 -0.1608541517D+00  0.3164239610D+00
      0.5442492580D+00  0.1143456438D+01  0.7443082909D+00
 Atom C4       Shell    13 SP   1    bf   38 -    41          2.084868078388          0.000000000000          0.000000000000
      0.1687144782D+00  0.1000000000D+01  0.1000000000D+01
 Atom C4       Shell    14 D   1     bf   42 -    47          2.084868078388          0.000000000000          0.000000000000
      0.8000000000D+00  0.1000000000D+01
 Atom H5       Shell    15 S   3     bf   48 -    48          0.000000000000          0.000000000000          0.000000000000
      0.1873113696D+02  0.3349460434D-01
      0.2825394365D+01  0.2347269535D+00
      0.6401216923D+00  0.8137573261D+00
 Atom H5       Shell    16 S   1     bf   49 -    49          0.000000000000          0.000000000000          0.000000000000
      0.1612777588D+00  0.1000000000D+01
 Atom C6       Shell    17 S   6     bf   50 -    50          2.853909362469         -1.470760129813          2.375418970423
      0.3047524880D+04  0.1834737132D-02
      0.4573695180D+03  0.1403732281D-01
      0.1039486850D+03  0.6884262226D-01
      0.2921015530D+02  0.2321844432D+00
      0.9286662960D+01  0.4679413484D+00
      0.3163926960D+01  0.3623119853D+00
 Atom C6       Shell    18 SP   3    bf   51 -    54          2.853909362469         -1.470760129813          2.375418970423
      0.7868272350D+01 -0.1193324198D+00  0.6899906659D-01
      0.1881288540D+01 -0.1608541517D+00  0.3164239610D+00
      0.5442492580D+00  0.1143456438D+01  0.7443082909D+00
 Atom C6       Shell    19 SP   1    bf   55 -    58          2.853909362469         -1.470760129813          2.375418970423
      0.1687144782D+00  0.1000000000D+01  0.1000000000D+01
 Atom C6       Shell    20 D   1     bf   59 -    64          2.853909362469         -1.470760129813          2.375418970423
      0.8000000000D+00  0.1000000000D+01
 Atom H7       Shell    21 S   3     bf   65 -    65          4.925477094800         -1.509676639568          2.521026224003
      0.1873113696D+02  0.3349460434D-01
      0.2825394365D+01  0.2347269535D+00
      0.6401216923D+00  0.8137573261D+00
 Atom H7       Shell    22 S   1     bf   66 -    66          4.925477094800         -1.509676639568          2.521026224003
      0.1612777588D+00  0.1000000000D+01
 Atom C8       Shell    23 S   6     bf   67 -    67          1.741658285805         -0.154115537624          4.753150228639
      0.3047524880D+04  0.1834737132D-02
      0.4573695180D+03  0.1403732281D-01
      0.1039486850D+03  0.6884262226D-01
      0.2921015530D+02  0.2321844432D+00
      0.9286662960D+01  0.4679413484D+00
      0.3163926960D+01  0.3623119853D+00
 Atom C8       Shell    24 SP   3    bf   68 -    71          1.741658285805         -0.154115537624          4.753150228639
      0.7868272350D+01 -0.1193324198D+00  0.6899906659D-01
      0.1881288540D+01 -0.1608541517D+00  0.3164239610D+00
      0.5442492580D+00  0.1143456438D+01  0.7443082909D+00
 Atom C8       Shell    25 SP   1    bf   72 -    75          1.741658285805         -0.154115537624          4.753150228639
      0.1687144782D+00  0.1000000000D+01  0.1000000000D+01
 Atom C8       Shell    26 D   1     bf   76 -    81          1.741658285805         -0.154115537624          4.753150228639
      0.8000000000D+00  0.1000000000D+01
 Atom H9       Shell    27 S   3     bf   82 -    82         -0.321429035943         -0.407491850555          4.606888732974
      0.1873113696D+02  0.3349460434D-01
      0.2825394365D+01  0.2347269535D+00
      0.6401216923D+00  0.8137573261D+00
 Atom H9       Shell    28 S   1     bf   83 -    83         -0.321429035943         -0.407491850555          4.606888732974
      0.1612777588D+00  0.1000000000D+01
 Atom C10      Shell    29 S   6     bf   84 -    84          1.797339104105          3.615424377588         -2.639351142355
      0.3047524880D+04  0.1834737132D-02
      0.4573695180D+03  0.1403732281D-01
      0.1039486850D+03  0.6884262226D-01
      0.2921015530D+02  0.2321844432D+00
      0.9286662960D+01  0.4679413484D+00
      0.3163926960D+01  0.3623119853D+00
 Atom C10      Shell    30 SP   3    bf   85 -    88          1.797339104105          3.615424377588         -2.639351142355
      0.7868272350D+01 -0.1193324198D+00  0.6899906659D-01
      0.1881288540D+01 -0.1608541517D+00  0.3164239610D+00
      0.5442492580D+00  0.1143456438D+01  0.7443082909D+00
 Atom C10      Shell    31 SP   1    bf   89 -    92          1.797339104105          3.615424377588         -2.639351142355
      0.1687144782D+00  0.1000000000D+01  0.1000000000D+01
 Atom C10      Shell    32 D   1     bf   93 -    98          1.797339104105          3.615424377588         -2.639351142355
      0.8000000000D+00  0.1000000000D+01
 Atom H11      Shell    33 S   3     bf   99 -    99         -0.262842064515          3.470450371234         -2.410487317469
      0.1873113696D+02  0.3349460434D-01
      0.2825394365D+01  0.2347269535D+00
      0.6401216923D+00  0.8137573261D+00
 Atom H11      Shell    34 S   1     bf  100 -   100         -0.262842064515          3.470450371234         -2.410487317469
      0.1612777588D+00  0.1000000000D+01
 Atom C12      Shell    35 S   6     bf  101 -   101          1.544362146997          4.074176523484          2.277337818859
      0.3047524880D+04  0.1834737132D-02
      0.4573695180D+03  0.1403732281D-01
      0.1039486850D+03  0.6884262226D-01
      0.2921015530D+02  0.2321844432D+00
      0.9286662960D+01  0.4679413484D+00
      0.3163926960D+01  0.3623119853D+00
 Atom C12      Shell    36 SP   3    bf  102 -   105          1.544362146997          4.074176523484          2.277337818859
      0.7868272350D+01 -0.1193324198D+00  0.6899906659D-01
      0.1881288540D+01 -0.1608541517D+00  0.3164239610D+00
      0.5442492580D+00  0.1143456438D+01  0.7443082909D+00
 Atom C12      Shell    37 SP   1    bf  106 -   109          1.544362146997          4.074176523484          2.277337818859
      0.1687144782D+00  0.1000000000D+01  0.1000000000D+01
 Atom C12      Shell    38 D   1     bf  110 -   115          1.544362146997          4.074176523484          2.277337818859
      0.8000000000D+00  0.1000000000D+01
 Atom H13      Shell    39 S   3     bf  116 -   116         -0.512606147046          3.992936649010          1.992154372651
      0.1873113696D+02  0.3349460434D-01
      0.2825394365D+01  0.2347269535D+00
      0.6401216923D+00  0.8137573261D+00
 Atom H13      Shell    40 S   1     bf  117 -   117         -0.512606147046          3.992936649010          1.992154372651
      0.1612777588D+00  0.1000000000D+01
 Atom H14      Shell    41 S   3     bf  118 -   118          2.042527857313          6.083542370575          2.426073627435
      0.1873113696D+02  0.3349460434D-01
      0.2825394365D+01  0.2347269535D+00
      0.6401216923D+00  0.8137573261D+00
 Atom H14      Shell    42 S   1     bf  119 -   119          2.042527857313          6.083542370575          2.426073627435
      0.1612777588D+00  0.1000000000D+01
 Atom C15      Shell    43 S   6     bf  120 -   120          2.536313012377         -1.499496873863          7.274625489365
      0.3047524880D+04  0.1834737132D-02
      0.4573695180D+03  0.1403732281D-01
      0.1039486850D+03  0.6884262226D-01
      0.2921015530D+02  0.2321844432D+00
      0.9286662960D+01  0.4679413484D+00
      0.3163926960D+01  0.3623119853D+00
 Atom C15      Shell    44 SP   3    bf  121 -   124          2.536313012377         -1.499496873863          7.274625489365
      0.7868272350D+01 -0.1193324198D+00  0.6899906659D-01
      0.1881288540D+01 -0.1608541517D+00  0.3164239610D+00
      0.5442492580D+00  0.1143456438D+01  0.7443082909D+00
 Atom C15      Shell    45 SP   1    bf  125 -   128          2.536313012377         -1.499496873863          7.274625489365
      0.1687144782D+00  0.1000000000D+01  0.1000000000D+01
 Atom C15      Shell    46 D   1     bf  129 -   134          2.536313012377         -1.499496873863          7.274625489365
      0.8000000000D+00  0.1000000000D+01
 Atom C16      Shell    47 S   6     bf  135 -   135          2.903054921986         -0.963731528345         -2.624330181756
      0.3047524880D+04  0.1834737132D-02
      0.4573695180D+03  0.1403732281D-01
      0.1039486850D+03  0.6884262226D-01
      0.2921015530D+02  0.2321844432D+00
      0.9286662960D+01  0.4679413484D+00
      0.3163926960D+01  0.3623119853D+00
 Atom C16      Shell    48 SP   3    bf  136 -   139          2.903054921986         -0.963731528345         -2.624330181756
      0.7868272350D+01 -0.1193324198D+00  0.6899906659D-01
      0.1881288540D+01 -0.1608541517D+00  0.3164239610D+00
      0.5442492580D+00  0.1143456438D+01  0.7443082909D+00
 Atom C16      Shell    49 SP   1    bf  140 -   143          2.903054921986         -0.963731528345         -2.624330181756
      0.1687144782D+00  0.1000000000D+01  0.1000000000D+01
 Atom C16      Shell    50 D   1     bf  144 -   149          2.903054921986         -0.963731528345         -2.624330181756
      0.8000000000D+00  0.1000000000D+01
 Atom H17      Shell    51 S   3     bf  150 -   150          1.767957547705         -2.574617118583         -3.252808439325
      0.1873113696D+02  0.3349460434D-01
      0.2825394365D+01  0.2347269535D+00
      0.6401216923D+00  0.8137573261D+00
 Atom H17      Shell    52 S   1     bf  151 -   151          1.767957547705         -2.574617118583         -3.252808439325
      0.1612777588D+00  0.1000000000D+01
 Atom H18      Shell    53 S   3     bf  152 -   152          4.875061525937         -1.602779156457         -2.591634612636
      0.1873113696D+02  0.3349460434D-01
      0.2825394365D+01  0.2347269535D+00
      0.6401216923D+00  0.8137573261D+00
 Atom H18      Shell    54 S   1     bf  153 -   153          4.875061525937         -1.602779156457         -2.591634612636
      0.1612777588D+00  0.1000000000D+01
 Atom C19      Shell    55 S   6     bf  154 -   154          2.231674382097          2.732959425546          4.774081345513
      0.3047524880D+04  0.1834737132D-02
      0.4573695180D+03  0.1403732281D-01
      0.1039486850D+03  0.6884262226D-01
      0.2921015530D+02  0.2321844432D+00
      0.9286662960D+01  0.4679413484D+00
      0.3163926960D+01  0.3623119853D+00
 Atom C19      Shell    56 SP   3    bf  155 -   158          2.231674382097          2.732959425546          4.774081345513
      0.7868272350D+01 -0.1193324198D+00  0.6899906659D-01
      0.1881288540D+01 -0.1608541517D+00  0.3164239610D+00
      0.5442492580D+00  0.1143456438D+01  0.7443082909D+00
 Atom C19      Shell    57 SP   1    bf  159 -   162          2.231674382097          2.732959425546          4.774081345513
      0.1687144782D+00  0.1000000000D+01  0.1000000000D+01
 Atom C19      Shell    58 D   1     bf  163 -   168          2.231674382097          2.732959425546          4.774081345513
      0.8000000000D+00  0.1000000000D+01
 Atom H20      Shell    59 S   3     bf  169 -   169          4.221710107192          3.106229072828          5.198678675769
      0.1873113696D+02  0.3349460434D-01
      0.2825394365D+01  0.2347269535D+00
      0.6401216923D+00  0.8137573261D+00
 Atom H20      Shell    60 S   1     bf  170 -   170          4.221710107192          3.106229072828          5.198678675769
      0.1612777588D+00  0.1000000000D+01
 Atom H21      Shell    61 S   3     bf  171 -   171          1.151418655432          3.605512764021          6.309992977394
      0.1873113696D+02  0.3349460434D-01
      0.2825394365D+01  0.2347269535D+00
      0.6401216923D+00  0.8137573261D+00
 Atom H21      Shell    62 S   1     bf  172 -   172          1.151418655432          3.605512764021          6.309992977394
      0.1612777588D+00  0.1000000000D+01
 Atom C22      Shell    63 S   6     bf  173 -   173          2.589965474235          1.378961731826         -4.390534536041
      0.3047524880D+04  0.1834737132D-02
      0.4573695180D+03  0.1403732281D-01
      0.1039486850D+03  0.6884262226D-01
      0.2921015530D+02  0.2321844432D+00
      0.9286662960D+01  0.4679413484D+00
      0.3163926960D+01  0.3623119853D+00
 Atom C22      Shell    64 SP   3    bf  174 -   177          2.589965474235          1.378961731826         -4.390534536041
      0.7868272350D+01 -0.1193324198D+00  0.6899906659D-01
      0.1881288540D+01 -0.1608541517D+00  0.3164239610D+00
      0.5442492580D+00  0.1143456438D+01  0.7443082909D+00
 Atom C22      Shell    65 SP   1    bf  178 -   181          2.589965474235          1.378961731826         -4.390534536041
      0.1687144782D+00  0.1000000000D+01  0.1000000000D+01
 Atom C22      Shell    66 D   1     bf  182 -   187          2.589965474235          1.378961731826         -4.390534536041
      0.8000000000D+00  0.1000000000D+01
 Atom H23      Shell    67 S   3     bf  188 -   188          4.367176198230          1.777648176698         -5.365714384347
      0.1873113696D+02  0.3349460434D-01
      0.2825394365D+01  0.2347269535D+00
      0.6401216923D+00  0.8137573261D+00
 Atom H23      Shell    68 S   1     bf  189 -   189          4.367176198230          1.777648176698         -5.365714384347
      0.1612777588D+00  0.1000000000D+01
 Atom H24      Shell    69 S   3     bf  190 -   190          1.176247502530          1.047840309445         -5.864869063937
      0.1873113696D+02  0.3349460434D-01
      0.2825394365D+01  0.2347269535D+00
      0.6401216923D+00  0.8137573261D+00
 Atom H24      Shell    70 S   1     bf  191 -   191          1.176247502530          1.047840309445         -5.864869063937
      0.1612777588D+00  0.1000000000D+01
 Atom C25      Shell    71 S   6     bf  192 -   192          1.921024155044         -4.218293973672          2.248313326211
      0.3047524880D+04  0.1834737132D-02
      0.4573695180D+03  0.1403732281D-01
      0.1039486850D+03  0.6884262226D-01
      0.2921015530D+02  0.2321844432D+00
      0.9286662960D+01  0.4679413484D+00
      0.3163926960D+01  0.3623119853D+00
 Atom C25      Shell    72 SP   3    bf  193 -   196          1.921024155044         -4.218293973672          2.248313326211
      0.7868272350D+01 -0.1193324198D+00  0.6899906659D-01
      0.1881288540D+01 -0.1608541517D+00  0.3164239610D+00
      0.5442492580D+00  0.1143456438D+01  0.7443082909D+00
 Atom C25      Shell    73 SP   1    bf  197 -   200          1.921024155044         -4.218293973672          2.248313326211
      0.1687144782D+00  0.1000000000D+01  0.1000000000D+01
 Atom C25      Shell    74 D   1     bf  201 -   206          1.921024155044         -4.218293973672          2.248313326211
      0.8000000000D+00  0.1000000000D+01
 Atom H26      Shell    75 S   3     bf  207 -   207          3.063022393423         -5.295020863552          0.890504073778
      0.1873113696D+02  0.3349460434D-01
      0.2825394365D+01  0.2347269535D+00
      0.6401216923D+00  0.8137573261D+00
 Atom H26      Shell    76 S   1     bf  208 -   208          3.063022393423         -5.295020863552          0.890504073778
      0.1612777588D+00  0.1000000000D+01
 Atom H27      Shell    77 S   3     bf  209 -   209         -0.018997284533         -4.257995645738          1.488137919050
      0.1873113696D+02  0.3349460434D-01
      0.2825394365D+01  0.2347269535D+00
      0.6401216923D+00  0.8137573261D+00
 Atom H27      Shell    78 S   1     bf  210 -   210         -0.018997284533         -4.257995645738          1.488137919050
      0.1612777588D+00  0.1000000000D+01
 Atom C28      Shell    79 S   6     bf  211 -   211          2.256651138060          6.358604500306         -3.618762692185
      0.3047524880D+04  0.1834737132D-02
      0.4573695180D+03  0.1403732281D-01
      0.1039486850D+03  0.6884262226D-01
      0.2921015530D+02  0.2321844432D+00
      0.9286662960D+01  0.4679413484D+00
      0.3163926960D+01  0.3623119853D+00
 Atom C28      Shell    80 SP   3    bf  212 -   215          2.256651138060          6.358604500306         -3.618762692185
      0.7868272350D+01 -0.1193324198D+00  0.6899906659D-01
      0.1881288540D+01 -0.1608541517D+00  0.3164239610D+00
      0.5442492580D+00  0.1143456438D+01  0.7443082909D+00
 Atom C28      Shell    81 SP   1    bf  216 -   219          2.256651138060          6.358604500306         -3.618762692185
      0.1687144782D+00  0.1000000000D+01  0.1000000000D+01
 Atom C28      Shell    82 D   1     bf  220 -   225          2.256651138060          6.358604500306         -3.618762692185
      0.8000000000D+00  0.1000000000D+01
 Atom H29      Shell    83 S   3     bf  226 -   226          2.344718441873          7.570910226226         -1.933482930465
      0.1873113696D+02  0.3349460434D-01
      0.2825394365D+01  0.2347269535D+00
      0.6401216923D+00  0.8137573261D+00
 Atom H29      Shell    84 S   1     bf  227 -   227          2.344718441873          7.570910226226         -1.933482930465
      0.1612777588D+00  0.1000000000D+01
 Atom C30      Shell    85 S   6     bf  228 -   228          5.742725557091          3.199115008204          0.169209441651
      0.3047524880D+04  0.1834737132D-02
      0.4573695180D+03  0.1403732281D-01
      0.1039486850D+03  0.6884262226D-01
      0.2921015530D+02  0.2321844432D+00
      0.9286662960D+01  0.4679413484D+00
      0.3163926960D+01  0.3623119853D+00
 Atom C30      Shell    86 SP   3    bf  229 -   232          5.742725557091          3.199115008204          0.169209441651
      0.7868272350D+01 -0.1193324198D+00  0.6899906659D-01
      0.1881288540D+01 -0.1608541517D+00  0.3164239610D+00
      0.5442492580D+00  0.1143456438D+01  0.7443082909D+00
 Atom C30      Shell    87 SP   1    bf  233 -   236          5.742725557091          3.199115008204          0.169209441651
      0.1687144782D+00  0.1000000000D+01  0.1000000000D+01
 Atom C30      Shell    88 D   1     bf  237 -   242          5.742725557091          3.199115008204          0.169209441651
      0.8000000000D+00  0.1000000000D+01
 Atom H31      Shell    89 S   3     bf  243 -   243          6.206778479276          5.214222844843          0.235462994206
      0.1873113696D+02  0.3349460434D-01
      0.2825394365D+01  0.2347269535D+00
      0.6401216923D+00  0.8137573261D+00
 Atom H31      Shell    90 S   1     bf  244 -   244          6.206778479276          5.214222844843          0.235462994206
      0.1612777588D+00  0.1000000000D+01
 Atom H32      Shell    91 S   3     bf  245 -   245          6.541678805903          2.338847195059          1.867755572152
      0.1873113696D+02  0.3349460434D-01
      0.2825394365D+01  0.2347269535D+00
      0.6401216923D+00  0.8137573261D+00
 Atom H32      Shell    92 S   1     bf  246 -   246          6.541678805903          2.338847195059          1.867755572152
      0.1612777588D+00  0.1000000000D+01
 Atom H33      Shell    93 S   3     bf  247 -   247          6.734059181224          2.380118643726         -1.448709501384
      0.1873113696D+02  0.3349460434D-01
      0.2825394365D+01  0.2347269535D+00
      0.6401216923D+00  0.8137573261D+00
 Atom H33      Shell    94 S   1     bf  248 -   248          6.734059181224          2.380118643726         -1.448709501384
      0.1612777588D+00  0.1000000000D+01
 Atom C34      Shell    95 S   6     bf  249 -   249          2.263586867605         -4.375704003144          7.004114424874
      0.3047524880D+04  0.1834737132D-02
      0.4573695180D+03  0.1403732281D-01
      0.1039486850D+03  0.6884262226D-01
      0.2921015530D+02  0.2321844432D+00
      0.9286662960D+01  0.4679413484D+00
      0.3163926960D+01  0.3623119853D+00
 Atom C34      Shell    96 SP   3    bf  250 -   253          2.263586867605         -4.375704003144          7.004114424874
      0.7868272350D+01 -0.1193324198D+00  0.6899906659D-01
      0.1881288540D+01 -0.1608541517D+00  0.3164239610D+00
      0.5442492580D+00  0.1143456438D+01  0.7443082909D+00
 Atom C34      Shell    97 SP   1    bf  254 -   257          2.263586867605         -4.375704003144          7.004114424874
      0.1687144782D+00  0.1000000000D+01  0.1000000000D+01
 Atom C34      Shell    98 D   1     bf  258 -   263          2.263586867605         -4.375704003144          7.004114424874
      0.8000000000D+00  0.1000000000D+01
 Atom C35      Shell    99 S   6     bf  264 -   264          0.730109675414         -0.605967348546          9.428334911275
      0.3047524880D+04  0.1834737132D-02
      0.4573695180D+03  0.1403732281D-01
      0.1039486850D+03  0.6884262226D-01
      0.2921015530D+02  0.2321844432D+00
      0.9286662960D+01  0.4679413484D+00
      0.3163926960D+01  0.3623119853D+00
 Atom C35      Shell   100 SP   3    bf  265 -   268          0.730109675414         -0.605967348546          9.428334911275
      0.7868272350D+01 -0.1193324198D+00  0.6899906659D-01
      0.1881288540D+01 -0.1608541517D+00  0.3164239610D+00
      0.5442492580D+00  0.1143456438D+01  0.7443082909D+00
 Atom C35      Shell   101 SP   1    bf  269 -   272          0.730109675414         -0.605967348546          9.428334911275
      0.1687144782D+00  0.1000000000D+01  0.1000000000D+01
 Atom C35      Shell   102 D   1     bf  273 -   278          0.730109675414         -0.605967348546          9.428334911275
      0.8000000000D+00  0.1000000000D+01
 Atom H36      Shell   103 S   3     bf  279 -   279         -1.221427339477         -0.727746950830          8.728608819543
      0.1873113696D+02  0.3349460434D-01
      0.2825394365D+01  0.2347269535D+00
      0.6401216923D+00  0.8137573261D+00
 Atom H36      Shell   104 S   1     bf  280 -   280         -1.221427339477         -0.727746950830          8.728608819543
      0.1612777588D+00  0.1000000000D+01
 Atom H37      Shell   105 S   3     bf  281 -   281          1.082897866155          1.391993264341          9.838748656377
      0.1873113696D+02  0.3349460434D-01
      0.2825394365D+01  0.2347269535D+00
      0.6401216923D+00  0.8137573261D+00
 Atom H37      Shell   106 S   1     bf  282 -   282          1.082897866155          1.391993264341          9.838748656377
      0.1612777588D+00  0.1000000000D+01
 Atom C38      Shell   107 S   6     bf  283 -   283          1.961883945770         -5.527866776036          4.766849760445
      0.3047524880D+04  0.1834737132D-02
      0.4573695180D+03  0.1403732281D-01
      0.1039486850D+03  0.6884262226D-01
      0.2921015530D+02  0.2321844432D+00
      0.9286662960D+01  0.4679413484D+00
      0.3163926960D+01  0.3623119853D+00
 Atom C38      Shell   108 SP   3    bf  284 -   287          1.961883945770         -5.527866776036          4.766849760445
      0.7868272350D+01 -0.1193324198D+00  0.6899906659D-01
      0.1881288540D+01 -0.1608541517D+00  0.3164239610D+00
      0.5442492580D+00  0.1143456438D+01  0.7443082909D+00
 Atom C38      Shell   109 SP   1    bf  288 -   291          1.961883945770         -5.527866776036          4.766849760445
      0.1687144782D+00  0.1000000000D+01  0.1000000000D+01
 Atom C38      Shell   110 D   1     bf  292 -   297          1.961883945770         -5.527866776036          4.766849760445
      0.8000000000D+00  0.1000000000D+01
 Atom H39      Shell   111 S   3     bf  298 -   298          1.731704531345         -7.575710073912          4.737633196033
      0.1873113696D+02  0.3349460434D-01
      0.2825394365D+01  0.2347269535D+00
      0.6401216923D+00  0.8137573261D+00
 Atom H39      Shell   112 S   1     bf  299 -   299          1.731704531345         -7.575710073912          4.737633196033
      0.1612777588D+00  0.1000000000D+01
 Atom C40      Shell   113 S   6     bf  300 -   300          5.309400110950         -0.881010713296          8.004647198028
      0.3047524880D+04  0.1834737132D-02
      0.4573695180D+03  0.1403732281D-01
      0.1039486850D+03  0.6884262226D-01
      0.2921015530D+02  0.2321844432D+00
      0.9286662960D+01  0.4679413484D+00
      0.3163926960D+01  0.3623119853D+00
 Atom C40      Shell   114 SP   3    bf  301 -   304          5.309400110950         -0.881010713296          8.004647198028
      0.7868272350D+01 -0.1193324198D+00  0.6899906659D-01
      0.1881288540D+01 -0.1608541517D+00  0.3164239610D+00
      0.5442492580D+00  0.1143456438D+01  0.7443082909D+00
[...]
 1510 Fit       0.002281
 1511 Fit       0.000216
 1512 Fit       0.002612
 1513 Fit       0.004629
 1514 Fit       0.006246
 1515 Fit       0.000344
 1516 Fit       0.001982
 1517 Fit       0.000078
 1518 Fit      -0.001843
 1519 Fit      -0.000026
 1520 Fit       0.001873
 1521 Fit       0.002459
 1522 Fit       0.000692
 1523 Fit      -0.001435
 1524 Fit       0.000975
 1525 Fit       0.002296
 1526 Fit       0.003106
 1527 Fit       0.002069
 1528 Fit      -0.000483
 1529 Fit      -0.002151
 1530 Fit      -0.000983
 1531 Fit      -0.000990
 1532 Fit      -0.002178
 1533 Fit      -0.000893
 1534 Fit       0.000749
 1535 Fit       0.001258
 1536 Fit       0.000525
 1537 Fit      -0.001201
 1538 Fit       0.001466
 1539 Fit       0.002394
 1540 Fit       0.002182
 1541 Fit       0.000604
 1542 Fit       0.003472
 1543 Fit      -0.002400
 1544 Fit      -0.000417
 1545 Fit      -0.002431
 1546 Fit      -0.001412
 1547 Fit      -0.002660
 1548 Fit      -0.001834
 1549 Fit      -0.002158
 1550 Fit       0.002447
 1551 Fit       0.000912
 1552 Fit      -0.000902
 1553 Fit      -0.001027
 1554 Fit       0.003212
 1555 Fit       0.002868
 1556 Fit       0.001164
 1557 Fit       0.000791
 1558 Fit      -0.000787
 1559 Fit       0.003078
 1560 Fit       0.003043
 1561 Fit       0.002777
 1562 Fit       0.002066
 1563 Fit       0.000983
 1564 Fit      -0.000925
 1565 Fit       0.000646
 1566 Fit       0.001323
 1567 Fit       0.002109
 1568 Fit       0.000242
 1569 Fit      -0.000766
 1570 Fit      -0.000253
 1571 Fit       0.000370
 1572 Fit      -0.002228
 1573 Fit      -0.000655
 1574 Fit      -0.001035
 1575 Fit       0.000793
 1576 Fit       0.002193
 1577 Fit       0.003395
 1578 Fit      -0.001892
 1579 Fit       0.000259
 1580 Fit       0.001935
 1581 Fit       0.002727
 1582 Fit      -0.000962
 1583 Fit       0.001007
 1584 Fit       0.001232
 1585 Fit      -0.000424
 1586 Fit      -0.023559
 1587 Fit      -0.024024
 1588 Fit      -0.026509
 1589 Fit      -0.025720
 1590 Fit      -0.021858
 1591 Fit      -0.015901
 1592 Fit      -0.017513
 1593 Fit      -0.022936
 1594 Fit      -0.024733
 1595 Fit      -0.024511
 1596 Fit      -0.022773
 1597 Fit      -0.022163
 1598 Fit      -0.018620
 1599 Fit      -0.011445
 1600 Fit      -0.008777
 1601 Fit      -0.017222
 1602 Fit      -0.019336
 1603 Fit      -0.019377
 1604 Fit      -0.015550
 1605 Fit      -0.009990
 1606 Fit      -0.004918
 1607 Fit      -0.014572
 1608 Fit      -0.003185
 1609 Fit      -0.001528
 1610 Fit      -0.003239
 1611 Fit      -0.002615
 1612 Fit       0.005921
 1613 Fit       0.008308
 1614 Fit       0.004993
 1615 Fit       0.007397
 1616 Fit       0.012976
 1617 Fit       0.014878
 1618 Fit       0.013217
 1619 Fit       0.007741
 1620 Fit       0.012309
 1621 Fit       0.016798
 1622 Fit       0.018360
 1623 Fit       0.016750
 1624 Fit       0.011590
 1625 Fit       0.018117
 1626 Fit       0.003978
 1627 Fit       0.003936
 1628 Fit       0.003781
 1629 Fit       0.003726
 1630 Fit       0.003111
 1631 Fit      -0.002886
 1632 Fit       0.003013
 1633 Fit       0.000545
 1634 Fit       0.002201
 1635 Fit       0.002943
 1636 Fit       0.003214
 1637 Fit       0.001741
 1638 Fit       0.003505
 1639 Fit       0.003246
 1640 Fit       0.002156
 1641 Fit       0.003804
 1642 Fit       0.003991
 1643 Fit       0.002627
 1644 Fit       0.002794
 1645 Fit       0.002864
 1646 Fit       0.001234
 1647 Fit       0.000757
 1648 Fit       0.000753
 1649 Fit       0.000214
 1650 Fit       0.000318
 1651 Fit       0.000841
 1652 Fit       0.001908
 1653 Fit       0.002660
 1654 Fit       0.000761
 1655 Fit       0.002065
 1656 Fit       0.003002
 1657 Fit       0.003593
 1658 Fit       0.001341
 1659 Fit       0.002741
 1660 Fit       0.003614
 1661 Fit       0.004175
 1662 Fit       0.001850
 1663 Fit       0.002355
 1664 Fit       0.002186
 1665 Fit       0.001169
 1666 Fit       0.003005
 1667 Fit       0.001283
 1668 Fit       0.004070
 1669 Fit       0.001475
 1670 Fit       0.000058
 1671 Fit      -0.000629
 1672 Fit      -0.000282
 1673 Fit       0.002828
 1674 Fit       0.003262
 1675 Fit       0.003249
 1676 Fit       0.002782
 1677 Fit       0.001953
 1678 Fit       0.002669
 1679 Fit       0.002728
 1680 Fit       0.002083
 1681 Fit       0.000691
 1682 Fit       0.001427
 1683 Fit      -0.000014
 1684 Fit       0.003260
 1685 Fit       0.002494
 1686 Fit       0.002921
 1687 Fit       0.003627
 1688 Fit       0.001272
 1689 Fit       0.002003
 1690 Fit       0.002791
 1691 Fit       0.002804
 1692 Fit       0.000498
 1693 Fit       0.001715
 1694 Fit       0.002346
 1695 Fit       0.001227
 1696 Fit       0.001585
 1697 Fit       0.002223
 1698 Fit       0.002803
 1699 Fit       0.002205
 1700 Fit       0.001515
 1701 Fit       0.002296
 1702 Fit       0.002777
 1703 Fit       0.003004
 1704 Fit       0.002427
 1705 Fit       0.001539
 1706 Fit       0.001930
 1707 Fit       0.002127
 1708 Fit       0.002185
 1709 Fit       0.001948
 1710 Fit      -0.000870
 1711 Fit      -0.000470
 1712 Fit       0.003342
 1713 Fit       0.003006
 1714 Fit       0.002402
 1715 Fit      -0.000027
 1716 Fit       0.001729
 1717 Fit       0.001765
 1718 Fit       0.000350
 1719 Fit       0.000771
 1720 Fit       0.002140
 1721 Fit       0.002436
 1722 Fit       0.002194
 1723 Fit       0.002560
 1724 Fit       0.002408
 1725 Fit       0.002523
 1726 Fit       0.002649
 1727 Fit       0.002250
 1728 Fit       0.001064
 1729 Fit       0.001264
 1730 Fit       0.002480
 1731 Fit       0.002392
 1732 Fit       0.001704
 1733 Fit       0.000288
 1734 Fit       0.001331
 1735 Fit       0.002954
 1736 Fit       0.002513
 1737 Fit      -0.000392
 1738 Fit       0.000549
 1739 Fit      -0.000774
 1740 Fit       0.002001
 1741 Fit       0.003756
 1742 Fit       0.003414
 1743 Fit       0.002601
 1744 Fit       0.001975
 1745 Fit       0.002421
 1746 Fit       0.003096
 1747 Fit       0.003173
 1748 Fit       0.002773
 1749 Fit       0.002270
 1750 Fit       0.002959
 1751 Fit       0.001872
 1752 Fit       0.001255
 1753 Fit       0.001329
 1754 Fit       0.003964
 1755 Fit       0.003327
 1756 Fit       0.002869
 1757 Fit       0.002587
 1758 Fit       0.003818
 1759 Fit       0.003450
 1760 Fit       0.002849
 1761 Fit       0.002676
 1762 Fit       0.001727
 1763 Fit       0.001721
 1764 Fit       0.000378
 1765 Fit      -0.000115
 1766 Fit      -0.000049
 1767 Fit       0.000676
 1768 Fit       0.000228
 1769 Fit      -0.000001
 1770 Fit       0.001683
 1771 Fit       0.001440
 1772 Fit       0.002281
 1773 Fit       0.001770
 1774 Fit       0.001124
 1775 Fit       0.002403
 1776 Fit       0.002245
 1777 Fit       0.001171
 1778 Fit       0.001852
 1779 Fit       0.001329
 1780 Fit       0.003665
 1781 Fit       0.002645
 1782 Fit       0.003318
 1783 Fit       0.003983
 1784 Fit      -0.007920
 1785 Fit       0.000044
 1786 Fit       0.000601
 1787 Fit       0.000791
 1788 Fit       0.001436
 1789 Fit       0.001997
 1790 Fit       0.002634
 1791 Fit       0.001776
 1792 Fit       0.002400
 1793 Fit       0.002782
 1794 Fit       0.002609
 1795 Fit       0.003313
 1796 Fit       0.002606
 1797 Fit      -0.001377
 1798 Fit      -0.000694
 1799 Fit       0.001169
 1800 Fit       0.001883
 1801 Fit       0.001781
 1802 Fit       0.000873
 1803 Fit       0.003547
 1804 Fit       0.003462
 1805 Fit       0.003246
 1806 Fit       0.002041
 1807 Fit      -0.003498
 1808 Fit      -0.002400
 1809 Fit       0.001015
 1810 Fit      -0.003172
 1811 Fit      -0.006964
 1812 Fit      -0.004659
 1813 Fit      -0.001004
 1814 Fit       0.001135
 1815 Fit      -0.001761
 1816 Fit      -0.004572
 1817 Fit       0.002447
 1818 Fit       0.001335
 1819 Fit       0.003780
 1820 Fit       0.007182
 1821 Fit       0.008220
 1822 Fit       0.006871
 1823 Fit       0.003283
 1824 Fit       0.003100
 1825 Fit       0.005634
 1826 Fit       0.006531
 1827 Fit       0.005651
 1828 Fit       0.003069
 1829 Fit       0.004656
 1830 Fit       0.005355
 1831 Fit       0.004387
 1832 Fit      -0.001443
 1833 Fit      -0.001561
 1834 Fit      -0.001415
 1835 Fit      -0.001496
 1836 Fit      -0.001076
 1837 Fit      -0.001555
 1838 Fit       0.000055
 1839 Fit       0.001159
 1840 Fit      -0.005863
 1841 Fit       0.000044
 1842 Fit       0.000753
 1843 Fit       0.000152
 1844 Fit       0.001653
 1845 Fit       0.002616
 1846 Fit       0.000316
 1847 Fit       0.001971
 1848 Fit       0.002907
 1849 Fit       0.003169
 1850 Fit       0.000958
 1851 Fit       0.002716
 1852 Fit      -0.001565
 1853 Fit      -0.003443
 1854 Fit      -0.000934
 1855 Fit      -0.001471
 1856 Fit      -0.000518
 1857 Fit      -0.001276
 1858 Fit      -0.000620
 1859 Fit      -0.001921
 1860 Fit      -0.000637
 1861 Fit      -0.001159
 1862 Fit       0.001351
 1863 Fit       0.001698
 1864 Fit       0.002527
 1865 Fit      -0.001628
 1866 Fit       0.000522
 1867 Fit       0.003231
 1868 Fit       0.002017
 1869 Fit      -0.000831
 1870 Fit      -0.001847
 1871 Fit      -0.006400
 1872 Fit       0.010635
 1873 Fit       0.015947
 1874 Fit       0.016426
 1875 Fit       0.013793
 1876 Fit       0.009520
 1877 Fit       0.004653
 1878 Fit       0.008639
 1879 Fit       0.010613
 1880 Fit       0.010142
 1881 Fit       0.007690
 1882 Fit       0.003889
 1883 Fit      -0.012909
 1884 Fit      -0.003131
 1885 Fit      -0.004002
 1886 Fit      -0.004226
 1887 Fit      -0.000076
 1888 Fit      -0.000803
 1889 Fit      -0.000957
 1890 Fit      -0.000917
 1891 Fit      -0.000882
 1892 Fit      -0.001248
 1893 Fit      -0.020941
 1894 Fit      -0.011883
 1895 Fit      -0.006326
 1896 Fit      -0.002484
 1897 Fit      -0.017647
 1898 Fit      -0.011748
 1899 Fit      -0.008637
 1900 Fit      -0.006242
 1901 Fit      -0.004111
 1902 Fit      -0.004010
 1903 Fit      -0.013712
 1904 Fit      -0.001460
 1905 Fit      -0.001255
 1906 Fit      -0.001037
 1907 Fit      -0.004223
 1908 Fit      -0.014247
 1909 Fit      -0.008817
 1910 Fit      -0.006625
 1911 Fit      -0.010146
 1912 Fit      -0.004855
 1913 Fit      -0.003052
 1914 Fit      -0.002720
 1915 Fit      -0.004271
 1916 Fit      -0.009306
 1917 Fit      -0.000716
 1918 Fit      -0.000637
 1919 Fit      -0.001157
 1920 Fit      -0.002892
 1921 Fit      -0.007149
 1922 Fit       0.000195
 1923 Fit      -0.000200
 1924 Fit       0.001306
 1925 Fit       0.002648
 1926 Fit       0.001090
 1927 Fit       0.001891
 1928 Fit       0.001550
 1929 Fit       0.001011
 1930 Fit       0.000008
 1931 Fit       0.001211
 1932 Fit       0.001667
 1933 Fit       0.001664
 1934 Fit       0.001100
 1935 Fit      -0.008834
 1936 Fit      -0.005275
 1937 Fit      -0.004264
 1938 Fit       0.000113
 1939 Fit       0.000543
 1940 Fit       0.002466
 1941 Fit       0.007636
 1942 Fit       0.002495
 1943 Fit       0.002647
 1944 Fit       0.003989
 1945 Fit       0.007078
 1946 Fit       0.012992
 1947 Fit       0.002204
 1948 Fit       0.002532
 1949 Fit       0.003956
 1950 Fit      -0.002963
 1951 Fit      -0.000370
 1952 Fit      -0.000821
 1953 Fit      -0.001434
 1954 Fit      -0.000221
 1955 Fit       0.000634
 1956 Fit      -0.001547
 1957 Fit      -0.001766
 1958 Fit      -0.001300
 1959 Fit      -0.001080
 1960 Fit      -0.001540
 1961 Fit      -0.000147
 1962 Fit      -0.000829
 1963 Fit      -0.000065
 1964 Fit       0.001567
 1965 Fit      -0.000948
 1966 Fit       0.000377
 1967 Fit       0.001784
 1968 Fit       0.002752
 1969 Fit       0.000979
 1970 Fit      -0.000040
 1971 Fit      -0.000295
 1972 Fit       0.000614
 1973 Fit       0.001822
 1974 Fit       0.001904
 1975 Fit       0.001018
 1976 Fit       0.001076
 1977 Fit       0.000109
 1978 Fit       0.001658
 1979 Fit       0.000532
 1980 Fit      -0.001083
 1981 Fit       0.001933
 1982 Fit       0.000455
 1983 Fit       0.000440
 1984 Fit       0.001096
 1985 Fit       0.002429
 1986 Fit       0.000970
 1987 Fit       0.002182
 1988 Fit       0.003183
 1989 Fit      -0.000097
 1990 Fit       0.001062
 1991 Fit       0.001962
 1992 Fit       0.002503
 1993 Fit      -0.000278
 1994 Fit       0.000488
 1995 Fit       0.000806
 1996 Fit       0.000829
 1997 Fit      -0.000956
 1998 Fit      -0.001220
 1999 Fit      -0.000393
 2000 Fit      -0.000346
 2001 Fit      -0.001060
 2002 Fit       0.002236
 2003 Fit       0.001685
 2004 Fit       0.000664
 2005 Fit      -0.000160
 2006 Fit       0.001242
 2007 Fit       0.001997
 2008 Fit       0.000866
 2009 Fit      -0.000157
 2010 Fit       0.000666
 2011 Fit      -0.000430
 2012 Fit       0.000724
 2013 Fit       0.001834
 2014 Fit      -0.000613
 2015 Fit       0.000600
 2016 Fit       0.001528
 2017 Fit       0.001432
 2018 Fit      -0.000650
 2019 Fit       0.000612
 2020 Fit       0.000630
 2021 Fit      -0.000037
 2022 Fit      -0.000277
 2023 Fit      -0.001340
 2024 Fit       0.000004
 2025 Fit       0.000578
 2026 Fit       0.001534
 2027 Fit       0.002659
 2028 Fit       0.000139
 2029 Fit       0.001296
 2030 Fit      -0.000504
 2031 Fit       0.000889
 2032 Fit       0.000409
 2033 Fit      -0.000899
 2034 Fit       0.002649
 2035 Fit       0.001965
 2036 Fit       0.001084
 2037 Fit       0.000089
 2038 Fit       0.001550
 2039 Fit       0.001687
 2040 Fit       0.001278
 2041 Fit       0.000595
 2042 Fit       0.000609
 2043 Fit       0.000468
 2044 Fit       0.001310
 2045 Fit      -0.001458
 2046 Fit      -0.000333
 2047 Fit      -0.001809
 2048 Fit      -0.002071
 2049 Fit       0.000593
 2050 Fit      -0.001631
 2051 Fit      -0.001932
 2052 Fit      -0.001984
 2053 Fit      -0.001724
 2054 Fit      -0.001574
 2055 Fit      -0.001534
 2056 Fit      -0.001292
 2057 Fit      -0.000405
 2058 Fit      -0.000183
 2059 Fit       0.001303
 2060 Fit       0.001081
 2061 Fit       0.000347
 2062 Fit       0.001954
 2063 Fit       0.002958
 2064 Fit       0.003289
 2065 Fit       0.001858
 2066 Fit      -0.000174
 2067 Fit       0.001557
 2068 Fit       0.003043
 2069 Fit       0.004369
 2070 Fit      -0.001040
 2071 Fit       0.000874
 2072 Fit       0.000248
 2073 Fit       0.001354
 2074 Fit       0.000021
 2075 Fit      -0.001223
 2076 Fit       0.000200
 2077 Fit       0.001376
 2078 Fit       0.001873
 2079 Fit       0.000620
 2080 Fit      -0.000905
 2081 Fit       0.001004
 2082 Fit       0.001872
 2083 Fit       0.002344
 2084 Fit       0.001841
 2085 Fit       0.000272
 2086 Fit      -0.001170
 2087 Fit       0.001727
 2088 Fit       0.002566
 2089 Fit       0.002959
 2090 Fit      -0.001160
 2091 Fit      -0.001412
 2092 Fit      -0.001429
 2093 Fit      -0.001355
 2094 Fit      -0.000277
 2095 Fit       0.000224
 2096 Fit      -0.000047
 2097 Fit      -0.000955
 2098 Fit      -0.000305
 2099 Fit       0.000942
 2100 Fit       0.001399
 2101 Fit       0.001061
 2102 Fit      -0.000024
 2103 Fit       0.002187
 2104 Fit       0.001950
 2105 Fit      -0.001459
 2106 Fit       0.000118
 2107 Fit      -0.001576
 2108 Fit       0.000588
 2109 Fit      -0.000307
 2110 Fit      -0.001707
 2111 Fit      -0.001845
 2112 Fit      -0.000713
 2113 Fit      -0.001347
 2114 Fit      -0.001820
 2115 Fit      -0.001561
 2116 Fit      -0.001042
 2117 Fit      -0.001260
 2118 Fit       0.001301
 2119 Fit      -0.000008
 2120 Fit       0.002346
 2121 Fit       0.001225
 2122 Fit      -0.000179
 2123 Fit      -0.000404
 2124 Fit       0.002695
 2125 Fit       0.002469
 2126 Fit       0.001198
 2127 Fit       0.000848
 2128 Fit       0.002476
 2129 Fit       0.002602
 2130 Fit       0.002456
 2131 Fit       0.001851
 2132 Fit       0.001117
 2133 Fit       0.001066
 2134 Fit       0.001460
 2135 Fit       0.001920
 2136 Fit       0.000797
 2137 Fit       0.000093
 2138 Fit      -0.001010
 2139 Fit       0.000062
 2140 Fit       0.000607
 2141 Fit       0.000947
 2142 Fit      -0.000706
 2143 Fit      -0.001359
 2144 Fit      -0.000669
 2145 Fit      -0.000505
 2146 Fit      -0.001406
 2147 Fit      -0.000182
 2148 Fit       0.001055
 2149 Fit      -0.000614
 2150 Fit       0.000731
 2151 Fit       0.001772
 2152 Fit       0.002529
 2153 Fit      -0.001280
 2154 Fit       0.000187
 2155 Fit       0.001389
 2156 Fit       0.001989
 2157 Fit      -0.000615
 2158 Fit       0.000625
 2159 Fit       0.000800
 2160 Fit      -0.000181
 -----------------------------------------------------------------
 Leave Link  602 at Tue Mar 21 12:35:35 2017, MaxMem=    33554432 cpu:         3.2
 (Enter /home/michal/g09/l9999.exe)

 Test job not archived.
 1\1\GINC-LINUX\SP\RHF\6-31G(d)\C27H46O1\MICHAL\21-Mar-2017\0\\#P HF/6-
 31G* SCF(Conver=6) NoSymm Test Pop=mk IOp(6/33=2) GFInput GFPrint\\MEP
  - Input generated by R.E.D.-III.x MOLECULE\\0,1\O,0,0.40532931,-3.286
 06834,7.29629702\H,0,0.24404562,-4.22950034,7.16262298\C,0,1.50956556,
 1.49622874,0.\C,0,1.10326467,0.,0.\H,0,0.,0.,0.\C,0,1.51022379,-0.7782
 9274,1.25701758\H,0,2.60645022,-0.79888647,1.33406962\C,0,0.92164587,-
 0.08155443,2.51525877\H,0,-0.17009292,-0.2156354,2.43786052\C,0,0.9511
 1089,1.91320018,-1.39668447\H,0,-0.13909003,1.83648324,-1.27557495\C,0
 ,0.81724125,2.15596136,1.20511527\H,0,-0.27125949,2.11297107,1.0542026
 9\H,0,1.08085919,3.21927197,1.28382287\C,0,1.34215904,-0.79349957,3.84
 956601\C,0,1.5362305,-0.50998476,-1.38873572\H,0,0.93556284,-1.3624287
 ,-1.72131209\H,0,2.57977145,-0.8481542,-1.37143397\C,0,1.18095122,1.44
 621984,2.52633504\H,0,2.23403277,1.64374563,2.75102227\H,0,0.60930451,
 1.90795518,3.33910447\C,0,1.3705507,0.72971512,-2.32337081\H,0,2.31101
 011,0.9406909,-2.83941376\H,0,0.62244337,0.55449321,-3.10355504\C,0,1.
 0165622,-2.23222503,1.18975617\H,0,1.62088164,-2.80200436,0.47123446\H
 ,0,-0.01005293,-2.25323425,0.78748867\C,0,1.19416835,3.36482858,-1.914
 96674\H,0,1.24077156,4.00635314,-1.0231551\C,0,3.03891948,1.69289875,0
 .08954178\H,0,3.28448571,2.75924789,0.12460165\H,0,3.46170733,1.237664
 63,0.98837368\H,0,3.56351064,1.25950454,-0.76662405\C,0,1.19783858,-2.
 31552283,3.70641772\C,0,0.3863574,-0.32066411,4.98925995\H,0,-0.646351
 51,-0.3851071,4.61898085\H,0,0.57304487,0.73661111,5.20644155\C,0,1.03
 818427,-2.92522111,2.52250825\H,0,0.91637857,-4.00889311,2.50704751\C,
 0,2.80961353,-0.46621079,4.23587686\H,0,2.92298559,0.58317679,4.525683
 61\H,0,3.14583785,-1.0703818,5.08211434\H,0,3.49177149,-0.66842531,3.4
 0436439\C,0,1.24209929,-3.12568284,4.98880143\H,0,1.03752374,-4.180043
 83,4.76231561\H,0,2.24369452,-3.087922,5.44014621\C,0,0.48805214,-1.12
 314624,6.29457107\H,0,1.47447024,-1.0013365,6.75917249\H,0,-0.2473567,
 -0.75470559,7.01878488\C,0,2.50201541,3.57156838,-2.71607576\H,0,3.348
 50599,3.16569886,-2.15301003\H,0,2.44529297,2.97876772,-3.63851016\C,0
 ,0.2540642,-2.60695441,6.04356961\H,0,-0.77402045,-2.74897481,5.671252
 53\C,0,-0.02622416,3.82863413,-2.73714366\H,0,-0.13948212,3.2245471,-3
 .64642178\H,0,0.05665132,4.87536848,-3.04458974\H,0,-0.94991219,3.7312
 4487,-2.15628365\C,0,2.82580575,5.0240519,-3.12986501\H,0,3.74653574,5
 .00325418,-3.72682085\H,0,2.04998791,5.3890729,-3.8138448\C,0,2.980509
 44,6.05264597,-1.99402053\H,0,2.0362691,6.12471362,-1.43745301\H,0,3.1
 3269425,7.04310021,-2.44826264\C,0,4.12384381,5.80895527,-0.98648457\H
 ,0,3.9763005,4.82018382,-0.5296142\C,0,4.06743103,6.85063605,0.1425802
 2\H,0,3.09934892,6.83182151,0.65637159\H,0,4.84801095,6.67079906,0.890
 62795\H,0,4.21381384,7.86383612,-0.25335603\C,0,5.50818978,5.81412346,
 -1.65446442\H,0,5.60707266,5.02650253,-2.40829321\H,0,6.30059773,5.661
 09008,-0.91300921\H,0,5.69756675,6.77569424,-2.14923246\\Version=EM64L
 -G09RevD.01\HF=-1124.0734766\RMSD=4.754e-07\Dipole=-0.1237153,-0.19429
 02,-0.6258083\Quadrupole=3.3408128,8.6997574,-12.0405702,1.024072,-2.1
 352517,0.6706927\PG=C01 [X(C27H46O1)]\\@


 IF GOD HAD MEANT MAN TO SEE THE SUN RISE, HE
 WOULD HAVE SCHEDULED IT FOR A LATER HOUR.
 Job cpu time:       0 days  0 hours 10 minutes 47.0 seconds.
 File lengths (MBytes):  RWF=    142 Int=      0 D2E=      0 Chk=     10 Scr=      1
 Normal termination of Gaussian 09 at Tue Mar 21 12:35:35 2017.
