 Entering Gaussian System, Link 0=/home/michal/g09/g09
 Input=JOB2-gau_m1-9-1.com
 Output=JOB2-gau_m1-9-1.log
 Initial command:
 /home/michal/g09/l1.exe "/home/michal/gauss_scratch/Gau-15906.inp" -scrdir="/home/michal/gauss_scratch/"
 Entering Link 1 = /home/michal/g09/l1.exe PID=     15907.
  
 Copyright (c) 1988,1990,1992,1993,1995,1998,2003,2009,2013,
            Gaussian, Inc.  All Rights Reserved.
  
 This is part of the Gaussian(R) 09 program.  It is based on
 the Gaussian(R) 03 system (copyright 2003, Gaussian, Inc.),
 the Gaussian(R) 98 system (copyright 1998, Gaussian, Inc.),
 the Gaussian(R) 94 system (copyright 1995, Gaussian, Inc.),
 the Gaussian 92(TM) system (copyright 1992, Gaussian, Inc.),
 the Gaussian 90(TM) system (copyright 1990, Gaussian, Inc.),
 the Gaussian 88(TM) system (copyright 1988, Gaussian, Inc.),
 the Gaussian 86(TM) system (copyright 1986, Carnegie Mellon
 University), and the Gaussian 82(TM) system (copyright 1983,
 Carnegie Mellon University). Gaussian is a federally registered
 trademark of Gaussian, Inc.
  
 This software contains proprietary and confidential information,
 including trade secrets, belonging to Gaussian, Inc.
  
 This software is provided under written license and may be
 used, copied, transmitted, or stored only in accord with that
 written license.
  
 The following legend is applicable only to US Government
 contracts under FAR:
  
                    RESTRICTED RIGHTS LEGEND
  
 Use, reproduction and disclosure by the US Government is
 subject to restrictions as set forth in subparagraphs (a)
 and (c) of the Commercial Computer Software - Restricted
 Rights clause in FAR 52.227-19.
  
 Gaussian, Inc.
 340 Quinnipiac St., Bldg. 40, Wallingford CT 06492
  
  
 ---------------------------------------------------------------
 Warning -- This program may not be used in any manner that
 competes with the business of Gaussian, Inc. or will provide
 assistance to any competitor of Gaussian, Inc.  The licensee
 of this program is prohibited from giving any competitor of
 Gaussian, Inc. access to this program.  By using this program,
 the user acknowledges that Gaussian, Inc. is engaged in the
 business of creating and licensing software in the field of
 computational chemistry and represents and warrants to the
 licensee that it is not a competitor of Gaussian, Inc. and that
 it will not use this program in any manner prohibited above.
 ---------------------------------------------------------------
  

 Cite this work as:
 Gaussian 09, Revision D.01,
 M. J. Frisch, G. W. Trucks, H. B. Schlegel, G. E. Scuseria, 
 M. A. Robb, J. R. Cheeseman, G. Scalmani, V. Barone, B. Mennucci, 
 G. A. Petersson, H. Nakatsuji, M. Caricato, X. Li, H. P. Hratchian, 
 A. F. Izmaylov, J. Bloino, G. Zheng, J. L. Sonnenberg, M. Hada, 
 M. Ehara, K. Toyota, R. Fukuda, J. Hasegawa, M. Ishida, T. Nakajima, 
 Y. Honda, O. Kitao, H. Nakai, T. Vreven, J. A. Montgomery, Jr., 
 J. E. Peralta, F. Ogliaro, M. Bearpark, J. J. Heyd, E. Brothers, 
 K. N. Kudin, V. N. Staroverov, T. Keith, R. Kobayashi, J. Normand, 
 K. Raghavachari, A. Rendell, J. C. Burant, S. S. Iyengar, J. Tomasi, 
 M. Cossi, N. Rega, J. M. Millam, M. Klene, J. E. Knox, J. B. Cross, 
 V. Bakken, C. Adamo, J. Jaramillo, R. Gomperts, R. E. Stratmann, 
 O. Yazyev, A. J. Austin, R. Cammi, C. Pomelli, J. W. Ochterski, 
 R. L. Martin, K. Morokuma, V. G. Zakrzewski, G. A. Voth, 
 P. Salvador, J. J. Dannenberg, S. Dapprich, A. D. Daniels, 
 O. Farkas, J. B. Foresman, J. V. Ortiz, J. Cioslowski, 
 and D. J. Fox, Gaussian, Inc., Wallingford CT, 2013.
 
 ******************************************
 Gaussian 09:  EM64L-G09RevD.01 24-Apr-2013
                21-Mar-2017 
 ******************************************
 %Mem=256MB
 %NProc=12
 Will use up to   12 processors via shared memory.
 ----------------------------------------------------------------------
 #P HF/6-31G* SCF(Conver=6) NoSymm Test Pop=mk IOp(6/33=2) GFInput GFPr
 int
 ----------------------------------------------------------------------
 1/38=1/1;
 2/12=2,15=1,17=6,18=5,40=1/2;
 3/5=1,6=6,7=1,11=9,16=1,24=110,25=1,30=1/1,2,3;
 4//1;
 5/5=2,6=6,38=5/2;
 6/7=2,8=2,9=2,10=2,15=8,20=1,28=1,33=2/1,2;
 99/5=1,9=1/99;
 Leave Link    1 at Tue Mar 21 12:16:00 2017, MaxMem=    33554432 cpu:         0.6
 (Enter /home/michal/g09/l101.exe)
 ----------------------------------------------
 MEP - Input generated by R.E.D.-III.x MOLECULE
 ----------------------------------------------
 Symbolic Z-matrix:
 Charge =  0 Multiplicity = 1
 O                     4.98858  -0.24007  -7.25919 
 H                     5.94027  -0.32518  -7.11432 
 C                     0.        0.        0. 
 C                     1.55463   0.        0. 
 H                     1.84039   1.06611   0. 
 C                     2.21301  -0.60376  -1.24731 
 H                     1.9477   -1.66834  -1.3164 
 C                     1.70874   0.13033  -2.5174 
 H                     2.11532   1.15288  -2.44665 
 C                    -0.26699   0.64444   1.40481 
 H                    -0.00618   1.70794   1.2963 
 C                    -0.43565   0.82133  -1.23094 
 H                    -0.10999   1.86254  -1.09215 
 H                    -1.52504   0.84739  -1.33607 
 C                     2.30194  -0.47181  -3.83951 
 C                     1.93854  -0.55097   1.38241 
 H                     2.93128  -0.21898   1.70238 
 H                     1.96175  -1.64779   1.37014 
 C                     0.16822   0.26348  -2.53664 
 H                    -0.28689  -0.71127  -2.74146 
 H                    -0.1348    0.91554  -3.36367 
 C                     0.81246  -0.02687   2.31677 
 H                     0.36816  -0.85164   2.88628 
 H                     1.19861   0.68206   3.05581 
 C                     3.74482  -0.50578  -1.1625 
 H                     4.1298   -1.23302  -0.43528 
 H                     4.02798   0.48249  -0.76332 
 C                    -1.68739   0.57862   2.01845 
 H                    -1.93917  -0.48603   2.1351 
 C                    -0.59377  -1.42618  -0.05919 
 H                    -1.68724  -1.3871   -0.10832 
 H                    -0.25241  -1.98261  -0.93553 
 H                    -0.32861  -2.01856   0.82181 
 C                     3.80784  -0.72284  -3.67735 
 C                     2.10323   0.5628   -4.99078 
 H                     2.42792   1.54737  -4.62615 
 H                     1.03576   0.65305  -5.21958 
 C                     4.424    -0.71571  -2.48608 
 H                     5.50224  -0.87692  -2.45648 
 C                     1.61128  -1.80893  -4.22006 
 H                     0.57139  -1.65021  -4.52252 
 H                     2.11729  -2.29829  -5.05597 
 H                     1.62135  -2.51161  -3.38111 
 C                     4.59361  -0.98542  -4.94862 
 H                     5.66265  -1.05616  -4.70984 
 H                     4.30488  -1.94802  -5.39398 
 C                     2.86621   0.24571  -6.28516 
 H                     2.49955  -0.68049  -6.74511 
 H                     2.70742   1.04433  -7.01868 
 C                    -1.72966   1.14778   3.46676 
 H                    -2.75639   1.03404   3.83903 
 H                    -1.12173   0.4891    4.09838 
 C                     4.35754   0.09256  -6.01638 
 H                     4.75502   1.05314  -5.64888 
 C                    -2.77811   1.19191   1.1192 
 H                    -2.50717   2.19018   0.76131 
 H                    -3.72446   1.27886   1.66467 
 H                    -2.96926   0.57154   0.23944 
 C                    -1.24614   2.59236   3.72884 
 H                    -1.05636   2.68026   4.8064 
 H                    -0.26725   2.74062   3.25573 
 C                    -2.16178   3.75853   3.3037 
 H                    -2.27136   3.76784   2.21311 
 H                    -1.64644   4.69713   3.55829 
 C                    -3.56921   3.80585   3.93582 
 H                    -4.09795   2.87841   3.67403 
 C                    -4.37456   4.97479   3.34564 
 H                    -4.44936   4.89825   2.25481 
 H                    -5.39261   5.00182   3.75074 
 H                    -3.89812   5.93552   3.57989 
 C                    -3.52394   3.90329   5.46916 
 H                    -3.03279   3.03737   5.92453 
 H                    -4.53534   3.96508   5.88678 
 H                    -2.97849   4.80181   5.78631 
 
 NAtoms=     74 NQM=       74 NQMF=       0 NMMI=      0 NMMIF=      0
                NMic=       0 NMicF=      0.
                    Isotopes and Nuclear Properties:
 (Nuclear quadrupole moments (NQMom) in fm**2, nuclear magnetic moments (NMagM)
  in nuclear magnetons)

  Atom         1           2           3           4           5           6           7           8           9          10
 IAtWgt=          16           1          12          12           1          12           1          12           1          12
 AtmWgt=  15.9949146   1.0078250  12.0000000  12.0000000   1.0078250  12.0000000   1.0078250  12.0000000   1.0078250  12.0000000
 NucSpn=           0           1           0           0           1           0           1           0           1           0
 AtZEff=   0.0000000   0.0000000   0.0000000   0.0000000   0.0000000   0.0000000   0.0000000   0.0000000   0.0000000   0.0000000
 NQMom=    0.0000000   0.0000000   0.0000000   0.0000000   0.0000000   0.0000000   0.0000000   0.0000000   0.0000000   0.0000000
 NMagM=    0.0000000   2.7928460   0.0000000   0.0000000   2.7928460   0.0000000   2.7928460   0.0000000   2.7928460   0.0000000
 AtZNuc=   8.0000000   1.0000000   6.0000000   6.0000000   1.0000000   6.0000000   1.0000000   6.0000000   1.0000000   6.0000000

  Atom        11          12          13          14          15          16          17          18          19          20
 IAtWgt=           1          12           1           1          12          12           1           1          12           1
 AtmWgt=   1.0078250  12.0000000   1.0078250   1.0078250  12.0000000  12.0000000   1.0078250   1.0078250  12.0000000   1.0078250
 NucSpn=           1           0           1           1           0           0           1           1           0           1
 AtZEff=   0.0000000   0.0000000   0.0000000   0.0000000   0.0000000   0.0000000   0.0000000   0.0000000   0.0000000   0.0000000
 NQMom=    0.0000000   0.0000000   0.0000000   0.0000000   0.0000000   0.0000000   0.0000000   0.0000000   0.0000000   0.0000000
 NMagM=    2.7928460   0.0000000   2.7928460   2.7928460   0.0000000   0.0000000   2.7928460   2.7928460   0.0000000   2.7928460
 AtZNuc=   1.0000000   6.0000000   1.0000000   1.0000000   6.0000000   6.0000000   1.0000000   1.0000000   6.0000000   1.0000000

  Atom        21          22          23          24          25          26          27          28          29          30
 IAtWgt=           1          12           1           1          12           1           1          12           1          12
 AtmWgt=   1.0078250  12.0000000   1.0078250   1.0078250  12.0000000   1.0078250   1.0078250  12.0000000   1.0078250  12.0000000
 NucSpn=           1           0           1           1           0           1           1           0           1           0
 AtZEff=   0.0000000   0.0000000   0.0000000   0.0000000   0.0000000   0.0000000   0.0000000   0.0000000   0.0000000   0.0000000
 NQMom=    0.0000000   0.0000000   0.0000000   0.0000000   0.0000000   0.0000000   0.0000000   0.0000000   0.0000000   0.0000000
 NMagM=    2.7928460   0.0000000   2.7928460   2.7928460   0.0000000   2.7928460   2.7928460   0.0000000   2.7928460   0.0000000
 AtZNuc=   1.0000000   6.0000000   1.0000000   1.0000000   6.0000000   1.0000000   1.0000000   6.0000000   1.0000000   6.0000000

  Atom        31          32          33          34          35          36          37          38          39          40
 IAtWgt=           1           1           1          12          12           1           1          12           1          12
 AtmWgt=   1.0078250   1.0078250   1.0078250  12.0000000  12.0000000   1.0078250   1.0078250  12.0000000   1.0078250  12.0000000
 NucSpn=           1           1           1           0           0           1           1           0           1           0
 AtZEff=   0.0000000   0.0000000   0.0000000   0.0000000   0.0000000   0.0000000   0.0000000   0.0000000   0.0000000   0.0000000
 NQMom=    0.0000000   0.0000000   0.0000000   0.0000000   0.0000000   0.0000000   0.0000000   0.0000000   0.0000000   0.0000000
 NMagM=    2.7928460   2.7928460   2.7928460   0.0000000   0.0000000   2.7928460   2.7928460   0.0000000   2.7928460   0.0000000
 AtZNuc=   1.0000000   1.0000000   1.0000000   6.0000000   6.0000000   1.0000000   1.0000000   6.0000000   1.0000000   6.0000000

  Atom        41          42          43          44          45          46          47          48          49          50
 IAtWgt=           1           1           1          12           1           1          12           1           1          12
 AtmWgt=   1.0078250   1.0078250   1.0078250  12.0000000   1.0078250   1.0078250  12.0000000   1.0078250   1.0078250  12.0000000
 NucSpn=           1           1           1           0           1           1           0           1           1           0
 AtZEff=   0.0000000   0.0000000   0.0000000   0.0000000   0.0000000   0.0000000   0.0000000   0.0000000   0.0000000   0.0000000
 NQMom=    0.0000000   0.0000000   0.0000000   0.0000000   0.0000000   0.0000000   0.0000000   0.0000000   0.0000000   0.0000000
 NMagM=    2.7928460   2.7928460   2.7928460   0.0000000   2.7928460   2.7928460   0.0000000   2.7928460   2.7928460   0.0000000
 AtZNuc=   1.0000000   1.0000000   1.0000000   6.0000000   1.0000000   1.0000000   6.0000000   1.0000000   1.0000000   6.0000000

  Atom        51          52          53          54          55          56          57          58          59          60
 IAtWgt=           1           1          12           1          12           1           1           1          12           1
 AtmWgt=   1.0078250   1.0078250  12.0000000   1.0078250  12.0000000   1.0078250   1.0078250   1.0078250  12.0000000   1.0078250
 NucSpn=           1           1           0           1           0           1           1           1           0           1
 AtZEff=   0.0000000   0.0000000   0.0000000   0.0000000   0.0000000   0.0000000   0.0000000   0.0000000   0.0000000   0.0000000
 NQMom=    0.0000000   0.0000000   0.0000000   0.0000000   0.0000000   0.0000000   0.0000000   0.0000000   0.0000000   0.0000000
 NMagM=    2.7928460   2.7928460   0.0000000   2.7928460   0.0000000   2.7928460   2.7928460   2.7928460   0.0000000   2.7928460
 AtZNuc=   1.0000000   1.0000000   6.0000000   1.0000000   6.0000000   1.0000000   1.0000000   1.0000000   6.0000000   1.0000000

  Atom        61          62          63          64          65          66          67          68          69          70
 IAtWgt=           1          12           1           1          12           1          12           1           1           1
 AtmWgt=   1.0078250  12.0000000   1.0078250   1.0078250  12.0000000   1.0078250  12.0000000   1.0078250   1.0078250   1.0078250
 NucSpn=           1           0           1           1           0           1           0           1           1           1
 AtZEff=   0.0000000   0.0000000   0.0000000   0.0000000   0.0000000   0.0000000   0.0000000   0.0000000   0.0000000   0.0000000
 NQMom=    0.0000000   0.0000000   0.0000000   0.0000000   0.0000000   0.0000000   0.0000000   0.0000000   0.0000000   0.0000000
 NMagM=    2.7928460   0.0000000   2.7928460   2.7928460   0.0000000   2.7928460   0.0000000   2.7928460   2.7928460   2.7928460
 AtZNuc=   1.0000000   6.0000000   1.0000000   1.0000000   6.0000000   1.0000000   6.0000000   1.0000000   1.0000000   1.0000000

  Atom        71          72          73          74
 IAtWgt=          12           1           1           1
 AtmWgt=  12.0000000   1.0078250   1.0078250   1.0078250
 NucSpn=           0           1           1           1
 AtZEff=   0.0000000   0.0000000   0.0000000   0.0000000
 NQMom=    0.0000000   0.0000000   0.0000000   0.0000000
 NMagM=    0.0000000   2.7928460   2.7928460   2.7928460
 AtZNuc=   6.0000000   1.0000000   1.0000000   1.0000000
 Leave Link  101 at Tue Mar 21 12:16:00 2017, MaxMem=    33554432 cpu:         1.0
 (Enter /home/michal/g09/l202.exe)
 Symmetry turned off by external request.
 Stoichiometry    C27H46O
 Framework group  C1[X(C27H46O)]
 Deg. of freedom   216
 Full point group                 C1      NOp   1
                          Input orientation:                          
 ---------------------------------------------------------------------
 Center     Atomic      Atomic             Coordinates (Angstroms)
 Number     Number       Type             X           Y           Z
 ---------------------------------------------------------------------
      1          8           0        4.988580   -0.240075   -7.259187
      2          1           0        5.940273   -0.325178   -7.114322
      3          6           0        0.000000    0.000000    0.000000
      4          6           0        1.554625    0.000000    0.000000
      5          1           0        1.840387    1.066112    0.000000
      6          6           0        2.213012   -0.603764   -1.247306
      7          1           0        1.947701   -1.668337   -1.316399
      8          6           0        1.708740    0.130326   -2.517397
      9          1           0        2.115319    1.152885   -2.446647
     10          6           0       -0.266993    0.644440    1.404810
     11          1           0       -0.006182    1.707943    1.296299
     12          6           0       -0.435652    0.821334   -1.230943
     13          1           0       -0.109992    1.862542   -1.092150
     14          1           0       -1.525039    0.847391   -1.336070
     15          6           0        2.301937   -0.471807   -3.839512
     16          6           0        1.938541   -0.550965    1.382415
     17          1           0        2.931283   -0.218978    1.702381
     18          1           0        1.961748   -1.647787    1.370142
     19          6           0        0.168216    0.263483   -2.536639
     20          1           0       -0.286894   -0.711269   -2.741460
     21          1           0       -0.134803    0.915542   -3.363674
     22          6           0        0.812455   -0.026868    2.316773
     23          1           0        0.368157   -0.851639    2.886284
     24          1           0        1.198610    0.682064    3.055807
     25          6           0        3.744822   -0.505782   -1.162497
     26          1           0        4.129799   -1.233023   -0.435281
     27          1           0        4.027979    0.482494   -0.763317
     28          6           0       -1.687388    0.578623    2.018451
     29          1           0       -1.939172   -0.486033    2.135100
     30          6           0       -0.593766   -1.426177   -0.059186
     31          1           0       -1.687244   -1.387105   -0.108316
     32          1           0       -0.252414   -1.982608   -0.935526
     33          1           0       -0.328614   -2.018564    0.821808
     34          6           0        3.807842   -0.722844   -3.677354
     35          6           0        2.103227    0.562803   -4.990777
     36          1           0        2.427917    1.547371   -4.626147
     37          1           0        1.035761    0.653052   -5.219577
     38          6           0        4.424001   -0.715713   -2.486083
     39          1           0        5.502241   -0.876919   -2.456478
     40          6           0        1.611284   -1.808928   -4.220061
     41          1           0        0.571388   -1.650211   -4.522523
     42          1           0        2.117290   -2.298294   -5.055974
     43          1           0        1.621347   -2.511610   -3.381113
     44          6           0        4.593607   -0.985422   -4.948625
     45          1           0        5.662646   -1.056163   -4.709840
     46          1           0        4.304882   -1.948021   -5.393978
     47          6           0        2.866207    0.245705   -6.285163
     48          1           0        2.499550   -0.680493   -6.745112
     49          1           0        2.707425    1.044332   -7.018683
     50          6           0       -1.729655    1.147778    3.466757
     51          1           0       -2.756393    1.034041    3.839030
     52          1           0       -1.121731    0.489100    4.098381
     53          6           0        4.357540    0.092560   -6.016382
     54          1           0        4.755022    1.053144   -5.648883
     55          6           0       -2.778112    1.191915    1.119205
     56          1           0       -2.507167    2.190181    0.761306
     57          1           0       -3.724462    1.278864    1.664667
     58          1           0       -2.969262    0.571536    0.239437
     59          6           0       -1.246144    2.592364    3.728839
     60          1           0       -1.056365    2.680262    4.806397
     61          1           0       -0.267247    2.740624    3.255730
     62          6           0       -2.161775    3.758535    3.303696
     63          1           0       -2.271361    3.767840    2.213111
     64          1           0       -1.646436    4.697125    3.558286
     65          6           0       -3.569209    3.805854    3.935818
     66          1           0       -4.097946    2.878411    3.674031
     67          6           0       -4.374557    4.974789    3.345641
     68          1           0       -4.449356    4.898249    2.254813
     69          1           0       -5.392609    5.001817    3.750740
     70          1           0       -3.898117    5.935524    3.579887
     71          6           0       -3.523938    3.903293    5.469159
     72          1           0       -3.032787    3.037371    5.924534
     73          1           0       -4.535338    3.965076    5.886776
     74          1           0       -2.978488    4.801812    5.786310
 ---------------------------------------------------------------------
 Rotational constants (GHZ):      0.4450595      0.0618148      0.0590955
 Leave Link  202 at Tue Mar 21 12:16:00 2017, MaxMem=    33554432 cpu:         0.1
 (Enter /home/michal/g09/l301.exe)
 Standard basis: 6-31G(d) (6D, 7F)
 Ernie: Thresh=  0.10000D-02 Tol=  0.10000D-05 Strict=F.
 AO basis set in the form of general basis input (Overlap normalization):
      1 0
 S   6 1.00       0.000000000000
      0.5484671660D+04  0.1831074430D-02
      0.8252349460D+03  0.1395017220D-01
      0.1880469580D+03  0.6844507810D-01
      0.5296450000D+02  0.2327143360D+00
      0.1689757040D+02  0.4701928980D+00
      0.5799635340D+01  0.3585208530D+00
 SP   3 1.00       0.000000000000
      0.1553961625D+02 -0.1107775495D+00  0.7087426823D-01
      0.3599933586D+01 -0.1480262627D+00  0.3397528391D+00
      0.1013761750D+01  0.1130767015D+01  0.7271585773D+00
 SP   1 1.00       0.000000000000
      0.2700058226D+00  0.1000000000D+01  0.1000000000D+01
 D   1 1.00       0.000000000000
      0.8000000000D+00  0.1000000000D+01
 ****
      2 0
 S   3 1.00       0.000000000000
      0.1873113696D+02  0.3349460434D-01
      0.2825394365D+01  0.2347269535D+00
      0.6401216923D+00  0.8137573261D+00
 S   1 1.00       0.000000000000
      0.1612777588D+00  0.1000000000D+01
 ****
      3 0
 S   6 1.00       0.000000000000
      0.3047524880D+04  0.1834737132D-02
      0.4573695180D+03  0.1403732281D-01
      0.1039486850D+03  0.6884262226D-01
      0.2921015530D+02  0.2321844432D+00
      0.9286662960D+01  0.4679413484D+00
      0.3163926960D+01  0.3623119853D+00
 SP   3 1.00       0.000000000000
      0.7868272350D+01 -0.1193324198D+00  0.6899906659D-01
      0.1881288540D+01 -0.1608541517D+00  0.3164239610D+00
      0.5442492580D+00  0.1143456438D+01  0.7443082909D+00
 SP   1 1.00       0.000000000000
      0.1687144782D+00  0.1000000000D+01  0.1000000000D+01
 D   1 1.00       0.000000000000
      0.8000000000D+00  0.1000000000D+01
 ****
      4 0
 S   6 1.00       0.000000000000
      0.3047524880D+04  0.1834737132D-02
      0.4573695180D+03  0.1403732281D-01
      0.1039486850D+03  0.6884262226D-01
      0.2921015530D+02  0.2321844432D+00
      0.9286662960D+01  0.4679413484D+00
      0.3163926960D+01  0.3623119853D+00
 SP   3 1.00       0.000000000000
      0.7868272350D+01 -0.1193324198D+00  0.6899906659D-01
      0.1881288540D+01 -0.1608541517D+00  0.3164239610D+00
      0.5442492580D+00  0.1143456438D+01  0.7443082909D+00
 SP   1 1.00       0.000000000000
      0.1687144782D+00  0.1000000000D+01  0.1000000000D+01
 D   1 1.00       0.000000000000
      0.8000000000D+00  0.1000000000D+01
 ****
      5 0
 S   3 1.00       0.000000000000
      0.1873113696D+02  0.3349460434D-01
      0.2825394365D+01  0.2347269535D+00
      0.6401216923D+00  0.8137573261D+00
 S   1 1.00       0.000000000000
      0.1612777588D+00  0.1000000000D+01
 ****
      6 0
 S   6 1.00       0.000000000000
      0.3047524880D+04  0.1834737132D-02
      0.4573695180D+03  0.1403732281D-01
      0.1039486850D+03  0.6884262226D-01
      0.2921015530D+02  0.2321844432D+00
      0.9286662960D+01  0.4679413484D+00
      0.3163926960D+01  0.3623119853D+00
 SP   3 1.00       0.000000000000
      0.7868272350D+01 -0.1193324198D+00  0.6899906659D-01
      0.1881288540D+01 -0.1608541517D+00  0.3164239610D+00
      0.5442492580D+00  0.1143456438D+01  0.7443082909D+00
 SP   1 1.00       0.000000000000
      0.1687144782D+00  0.1000000000D+01  0.1000000000D+01
 D   1 1.00       0.000000000000
      0.8000000000D+00  0.1000000000D+01
 ****
      7 0
 S   3 1.00       0.000000000000
      0.1873113696D+02  0.3349460434D-01
      0.2825394365D+01  0.2347269535D+00
      0.6401216923D+00  0.8137573261D+00
 S   1 1.00       0.000000000000
      0.1612777588D+00  0.1000000000D+01
 ****
      8 0
 S   6 1.00       0.000000000000
      0.3047524880D+04  0.1834737132D-02
      0.4573695180D+03  0.1403732281D-01
      0.1039486850D+03  0.6884262226D-01
      0.2921015530D+02  0.2321844432D+00
      0.9286662960D+01  0.4679413484D+00
      0.3163926960D+01  0.3623119853D+00
 SP   3 1.00       0.000000000000
      0.7868272350D+01 -0.1193324198D+00  0.6899906659D-01
      0.1881288540D+01 -0.1608541517D+00  0.3164239610D+00
      0.5442492580D+00  0.1143456438D+01  0.7443082909D+00
 SP   1 1.00       0.000000000000
      0.1687144782D+00  0.1000000000D+01  0.1000000000D+01
 D   1 1.00       0.000000000000
      0.8000000000D+00  0.1000000000D+01
 ****
      9 0
 S   3 1.00       0.000000000000
      0.1873113696D+02  0.3349460434D-01
      0.2825394365D+01  0.2347269535D+00
      0.6401216923D+00  0.8137573261D+00
 S   1 1.00       0.000000000000
      0.1612777588D+00  0.1000000000D+01
 ****
     10 0
 S   6 1.00       0.000000000000
      0.3047524880D+04  0.1834737132D-02
      0.4573695180D+03  0.1403732281D-01
      0.1039486850D+03  0.6884262226D-01
      0.2921015530D+02  0.2321844432D+00
      0.9286662960D+01  0.4679413484D+00
      0.3163926960D+01  0.3623119853D+00
 SP   3 1.00       0.000000000000
      0.7868272350D+01 -0.1193324198D+00  0.6899906659D-01
      0.1881288540D+01 -0.1608541517D+00  0.3164239610D+00
      0.5442492580D+00  0.1143456438D+01  0.7443082909D+00
 SP   1 1.00       0.000000000000
      0.1687144782D+00  0.1000000000D+01  0.1000000000D+01
 D   1 1.00       0.000000000000
      0.8000000000D+00  0.1000000000D+01
 ****
     11 0
 S   3 1.00       0.000000000000
      0.1873113696D+02  0.3349460434D-01
      0.2825394365D+01  0.2347269535D+00
      0.6401216923D+00  0.8137573261D+00
 S   1 1.00       0.000000000000
      0.1612777588D+00  0.1000000000D+01
 ****
     12 0
 S   6 1.00       0.000000000000
      0.3047524880D+04  0.1834737132D-02
      0.4573695180D+03  0.1403732281D-01
      0.1039486850D+03  0.6884262226D-01
      0.2921015530D+02  0.2321844432D+00
      0.9286662960D+01  0.4679413484D+00
      0.3163926960D+01  0.3623119853D+00
 SP   3 1.00       0.000000000000
      0.7868272350D+01 -0.1193324198D+00  0.6899906659D-01
      0.1881288540D+01 -0.1608541517D+00  0.3164239610D+00
      0.5442492580D+00  0.1143456438D+01  0.7443082909D+00
 SP   1 1.00       0.000000000000
      0.1687144782D+00  0.1000000000D+01  0.1000000000D+01
 D   1 1.00       0.000000000000
      0.8000000000D+00  0.1000000000D+01
 ****
     13 0
 S   3 1.00       0.000000000000
      0.1873113696D+02  0.3349460434D-01
      0.2825394365D+01  0.2347269535D+00
      0.6401216923D+00  0.8137573261D+00
 S   1 1.00       0.000000000000
      0.1612777588D+00  0.1000000000D+01
 ****
     14 0
 S   3 1.00       0.000000000000
      0.1873113696D+02  0.3349460434D-01
      0.2825394365D+01  0.2347269535D+00
      0.6401216923D+00  0.8137573261D+00
 S   1 1.00       0.000000000000
      0.1612777588D+00  0.1000000000D+01
 ****
     15 0
 S   6 1.00       0.000000000000
      0.3047524880D+04  0.1834737132D-02
      0.4573695180D+03  0.1403732281D-01
      0.1039486850D+03  0.6884262226D-01
      0.2921015530D+02  0.2321844432D+00
      0.9286662960D+01  0.4679413484D+00
      0.3163926960D+01  0.3623119853D+00
 SP   3 1.00       0.000000000000
      0.7868272350D+01 -0.1193324198D+00  0.6899906659D-01
      0.1881288540D+01 -0.1608541517D+00  0.3164239610D+00
      0.5442492580D+00  0.1143456438D+01  0.7443082909D+00
 SP   1 1.00       0.000000000000
      0.1687144782D+00  0.1000000000D+01  0.1000000000D+01
 D   1 1.00       0.000000000000
      0.8000000000D+00  0.1000000000D+01
 ****
     16 0
 S   6 1.00       0.000000000000
      0.3047524880D+04  0.1834737132D-02
      0.4573695180D+03  0.1403732281D-01
      0.1039486850D+03  0.6884262226D-01
      0.2921015530D+02  0.2321844432D+00
      0.9286662960D+01  0.4679413484D+00
      0.3163926960D+01  0.3623119853D+00
 SP   3 1.00       0.000000000000
      0.7868272350D+01 -0.1193324198D+00  0.6899906659D-01
      0.1881288540D+01 -0.1608541517D+00  0.3164239610D+00
      0.5442492580D+00  0.1143456438D+01  0.7443082909D+00
 SP   1 1.00       0.000000000000
      0.1687144782D+00  0.1000000000D+01  0.1000000000D+01
 D   1 1.00       0.000000000000
      0.8000000000D+00  0.1000000000D+01
 ****
     17 0
 S   3 1.00       0.000000000000
      0.1873113696D+02  0.3349460434D-01
      0.2825394365D+01  0.2347269535D+00
      0.6401216923D+00  0.8137573261D+00
 S   1 1.00       0.000000000000
      0.1612777588D+00  0.1000000000D+01
 ****
     18 0
 S   3 1.00       0.000000000000
      0.1873113696D+02  0.3349460434D-01
      0.2825394365D+01  0.2347269535D+00
      0.6401216923D+00  0.8137573261D+00
 S   1 1.00       0.000000000000
      0.1612777588D+00  0.1000000000D+01
 ****
     19 0
 S   6 1.00       0.000000000000
      0.3047524880D+04  0.1834737132D-02
      0.4573695180D+03  0.1403732281D-01
      0.1039486850D+03  0.6884262226D-01
      0.2921015530D+02  0.2321844432D+00
      0.9286662960D+01  0.4679413484D+00
      0.3163926960D+01  0.3623119853D+00
 SP   3 1.00       0.000000000000
      0.7868272350D+01 -0.1193324198D+00  0.6899906659D-01
      0.1881288540D+01 -0.1608541517D+00  0.3164239610D+00
      0.5442492580D+00  0.1143456438D+01  0.7443082909D+00
 SP   1 1.00       0.000000000000
      0.1687144782D+00  0.1000000000D+01  0.1000000000D+01
 D   1 1.00       0.000000000000
      0.8000000000D+00  0.1000000000D+01
 ****
     20 0
 S   3 1.00       0.000000000000
      0.1873113696D+02  0.3349460434D-01
      0.2825394365D+01  0.2347269535D+00
      0.6401216923D+00  0.8137573261D+00
 S   1 1.00       0.000000000000
      0.1612777588D+00  0.1000000000D+01
 ****
     21 0
 S   3 1.00       0.000000000000
      0.1873113696D+02  0.3349460434D-01
      0.2825394365D+01  0.2347269535D+00
      0.6401216923D+00  0.8137573261D+00
 S   1 1.00       0.000000000000
      0.1612777588D+00  0.1000000000D+01
 ****
     22 0
 S   6 1.00       0.000000000000
      0.3047524880D+04  0.1834737132D-02
      0.4573695180D+03  0.1403732281D-01
      0.1039486850D+03  0.6884262226D-01
      0.2921015530D+02  0.2321844432D+00
      0.9286662960D+01  0.4679413484D+00
      0.3163926960D+01  0.3623119853D+00
 SP   3 1.00       0.000000000000
      0.7868272350D+01 -0.1193324198D+00  0.6899906659D-01
      0.1881288540D+01 -0.1608541517D+00  0.3164239610D+00
      0.5442492580D+00  0.1143456438D+01  0.7443082909D+00
 SP   1 1.00       0.000000000000
      0.1687144782D+00  0.1000000000D+01  0.1000000000D+01
 D   1 1.00       0.000000000000
      0.8000000000D+00  0.1000000000D+01
 ****
     23 0
 S   3 1.00       0.000000000000
      0.1873113696D+02  0.3349460434D-01
      0.2825394365D+01  0.2347269535D+00
      0.6401216923D+00  0.8137573261D+00
 S   1 1.00       0.000000000000
      0.1612777588D+00  0.1000000000D+01
 ****
     24 0
 S   3 1.00       0.000000000000
      0.1873113696D+02  0.3349460434D-01
      0.2825394365D+01  0.2347269535D+00
      0.6401216923D+00  0.8137573261D+00
 S   1 1.00       0.000000000000
      0.1612777588D+00  0.1000000000D+01
 ****
     25 0
 S   6 1.00       0.000000000000
      0.3047524880D+04  0.1834737132D-02
      0.4573695180D+03  0.1403732281D-01
      0.1039486850D+03  0.6884262226D-01
      0.2921015530D+02  0.2321844432D+00
      0.9286662960D+01  0.4679413484D+00
      0.3163926960D+01  0.3623119853D+00
 SP   3 1.00       0.000000000000
      0.7868272350D+01 -0.1193324198D+00  0.6899906659D-01
      0.1881288540D+01 -0.1608541517D+00  0.3164239610D+00
      0.5442492580D+00  0.1143456438D+01  0.7443082909D+00
 SP   1 1.00       0.000000000000
      0.1687144782D+00  0.1000000000D+01  0.1000000000D+01
 D   1 1.00       0.000000000000
      0.8000000000D+00  0.1000000000D+01
 ****
     26 0
 S   3 1.00       0.000000000000
      0.1873113696D+02  0.3349460434D-01
      0.2825394365D+01  0.2347269535D+00
      0.6401216923D+00  0.8137573261D+00
 S   1 1.00       0.000000000000
      0.1612777588D+00  0.1000000000D+01
 ****
     27 0
 S   3 1.00       0.000000000000
      0.1873113696D+02  0.3349460434D-01
      0.2825394365D+01  0.2347269535D+00
      0.6401216923D+00  0.8137573261D+00
 S   1 1.00       0.000000000000
      0.1612777588D+00  0.1000000000D+01
 ****
     28 0
 S   6 1.00       0.000000000000
      0.3047524880D+04  0.1834737132D-02
      0.4573695180D+03  0.1403732281D-01
      0.1039486850D+03  0.6884262226D-01
      0.2921015530D+02  0.2321844432D+00
      0.9286662960D+01  0.4679413484D+00
      0.3163926960D+01  0.3623119853D+00
 SP   3 1.00       0.000000000000
      0.7868272350D+01 -0.1193324198D+00  0.6899906659D-01
      0.1881288540D+01 -0.1608541517D+00  0.3164239610D+00
      0.5442492580D+00  0.1143456438D+01  0.7443082909D+00
 SP   1 1.00       0.000000000000
      0.1687144782D+00  0.1000000000D+01  0.1000000000D+01
 D   1 1.00       0.000000000000
      0.8000000000D+00  0.1000000000D+01
 ****
     29 0
 S   3 1.00       0.000000000000
      0.1873113696D+02  0.3349460434D-01
      0.2825394365D+01  0.2347269535D+00
      0.6401216923D+00  0.8137573261D+00
 S   1 1.00       0.000000000000
      0.1612777588D+00  0.1000000000D+01
 ****
     30 0
 S   6 1.00       0.000000000000
      0.3047524880D+04  0.1834737132D-02
      0.4573695180D+03  0.1403732281D-01
      0.1039486850D+03  0.6884262226D-01
      0.2921015530D+02  0.2321844432D+00
      0.9286662960D+01  0.4679413484D+00
      0.3163926960D+01  0.3623119853D+00
 SP   3 1.00       0.000000000000
      0.7868272350D+01 -0.1193324198D+00  0.6899906659D-01
      0.1881288540D+01 -0.1608541517D+00  0.3164239610D+00
      0.5442492580D+00  0.1143456438D+01  0.7443082909D+00
 SP   1 1.00       0.000000000000
      0.1687144782D+00  0.1000000000D+01  0.1000000000D+01
 D   1 1.00       0.000000000000
      0.8000000000D+00  0.1000000000D+01
 ****
     31 0
 S   3 1.00       0.000000000000
      0.1873113696D+02  0.3349460434D-01
      0.2825394365D+01  0.2347269535D+00
      0.6401216923D+00  0.8137573261D+00
 S   1 1.00       0.000000000000
      0.1612777588D+00  0.1000000000D+01
 ****
     32 0
 S   3 1.00       0.000000000000
      0.1873113696D+02  0.3349460434D-01
      0.2825394365D+01  0.2347269535D+00
      0.6401216923D+00  0.8137573261D+00
 S   1 1.00       0.000000000000
      0.1612777588D+00  0.1000000000D+01
 ****
     33 0
 S   3 1.00       0.000000000000
      0.1873113696D+02  0.3349460434D-01
      0.2825394365D+01  0.2347269535D+00
      0.6401216923D+00  0.8137573261D+00
 S   1 1.00       0.000000000000
      0.1612777588D+00  0.1000000000D+01
 ****
     34 0
 S   6 1.00       0.000000000000
      0.3047524880D+04  0.1834737132D-02
      0.4573695180D+03  0.1403732281D-01
      0.1039486850D+03  0.6884262226D-01
      0.2921015530D+02  0.2321844432D+00
      0.9286662960D+01  0.4679413484D+00
      0.3163926960D+01  0.3623119853D+00
 SP   3 1.00       0.000000000000
      0.7868272350D+01 -0.1193324198D+00  0.6899906659D-01
      0.1881288540D+01 -0.1608541517D+00  0.3164239610D+00
      0.5442492580D+00  0.1143456438D+01  0.7443082909D+00
 SP   1 1.00       0.000000000000
      0.1687144782D+00  0.1000000000D+01  0.1000000000D+01
 D   1 1.00       0.000000000000
      0.8000000000D+00  0.1000000000D+01
 ****
     35 0
 S   6 1.00       0.000000000000
      0.3047524880D+04  0.1834737132D-02
      0.4573695180D+03  0.1403732281D-01
      0.1039486850D+03  0.6884262226D-01
      0.2921015530D+02  0.2321844432D+00
      0.9286662960D+01  0.4679413484D+00
      0.3163926960D+01  0.3623119853D+00
 SP   3 1.00       0.000000000000
      0.7868272350D+01 -0.1193324198D+00  0.6899906659D-01
      0.1881288540D+01 -0.1608541517D+00  0.3164239610D+00
      0.5442492580D+00  0.1143456438D+01  0.7443082909D+00
 SP   1 1.00       0.000000000000
      0.1687144782D+00  0.1000000000D+01  0.1000000000D+01
 D   1 1.00       0.000000000000
      0.8000000000D+00  0.1000000000D+01
 ****
     36 0
 S   3 1.00       0.000000000000
      0.1873113696D+02  0.3349460434D-01
      0.2825394365D+01  0.2347269535D+00
      0.6401216923D+00  0.8137573261D+00
 S   1 1.00       0.000000000000
      0.1612777588D+00  0.1000000000D+01
 ****
     37 0
 S   3 1.00       0.000000000000
      0.1873113696D+02  0.3349460434D-01
      0.2825394365D+01  0.2347269535D+00
      0.6401216923D+00  0.8137573261D+00
 S   1 1.00       0.000000000000
      0.1612777588D+00  0.1000000000D+01
 ****
     38 0
 S   6 1.00       0.000000000000
      0.3047524880D+04  0.1834737132D-02
      0.4573695180D+03  0.1403732281D-01
      0.1039486850D+03  0.6884262226D-01
      0.2921015530D+02  0.2321844432D+00
      0.9286662960D+01  0.4679413484D+00
      0.3163926960D+01  0.3623119853D+00
 SP   3 1.00       0.000000000000
      0.7868272350D+01 -0.1193324198D+00  0.6899906659D-01
      0.1881288540D+01 -0.1608541517D+00  0.3164239610D+00
      0.5442492580D+00  0.1143456438D+01  0.7443082909D+00
 SP   1 1.00       0.000000000000
      0.1687144782D+00  0.1000000000D+01  0.1000000000D+01
 D   1 1.00       0.000000000000
      0.8000000000D+00  0.1000000000D+01
 ****
     39 0
 S   3 1.00       0.000000000000
      0.1873113696D+02  0.3349460434D-01
      0.2825394365D+01  0.2347269535D+00
      0.6401216923D+00  0.8137573261D+00
 S   1 1.00       0.000000000000
      0.1612777588D+00  0.1000000000D+01
 ****
     40 0
 S   6 1.00       0.000000000000
      0.3047524880D+04  0.1834737132D-02
      0.4573695180D+03  0.1403732281D-01
      0.1039486850D+03  0.6884262226D-01
      0.2921015530D+02  0.2321844432D+00
      0.9286662960D+01  0.4679413484D+00
      0.3163926960D+01  0.3623119853D+00
 SP   3 1.00       0.000000000000
      0.7868272350D+01 -0.1193324198D+00  0.6899906659D-01
      0.1881288540D+01 -0.1608541517D+00  0.3164239610D+00
      0.5442492580D+00  0.1143456438D+01  0.7443082909D+00
 SP   1 1.00       0.000000000000
      0.1687144782D+00  0.1000000000D+01  0.1000000000D+01
 D   1 1.00       0.000000000000
      0.8000000000D+00  0.1000000000D+01
 ****
     41 0
 S   3 1.00       0.000000000000
      0.1873113696D+02  0.3349460434D-01
      0.2825394365D+01  0.2347269535D+00
      0.6401216923D+00  0.8137573261D+00
 S   1 1.00       0.000000000000
      0.1612777588D+00  0.1000000000D+01
 ****
     42 0
 S   3 1.00       0.000000000000
      0.1873113696D+02  0.3349460434D-01
      0.2825394365D+01  0.2347269535D+00
      0.6401216923D+00  0.8137573261D+00
 S   1 1.00       0.000000000000
      0.1612777588D+00  0.1000000000D+01
 ****
     43 0
 S   3 1.00       0.000000000000
      0.1873113696D+02  0.3349460434D-01
      0.2825394365D+01  0.2347269535D+00
      0.6401216923D+00  0.8137573261D+00
 S   1 1.00       0.000000000000
      0.1612777588D+00  0.1000000000D+01
 ****
     44 0
 S   6 1.00       0.000000000000
      0.3047524880D+04  0.1834737132D-02
      0.4573695180D+03  0.1403732281D-01
      0.1039486850D+03  0.6884262226D-01
      0.2921015530D+02  0.2321844432D+00
      0.9286662960D+01  0.4679413484D+00
      0.3163926960D+01  0.3623119853D+00
 SP   3 1.00       0.000000000000
      0.7868272350D+01 -0.1193324198D+00  0.6899906659D-01
      0.1881288540D+01 -0.1608541517D+00  0.3164239610D+00
      0.5442492580D+00  0.1143456438D+01  0.7443082909D+00
 SP   1 1.00       0.000000000000
      0.1687144782D+00  0.1000000000D+01  0.1000000000D+01
 D   1 1.00       0.000000000000
      0.8000000000D+00  0.1000000000D+01
 ****
     45 0
 S   3 1.00       0.000000000000
      0.1873113696D+02  0.3349460434D-01
      0.2825394365D+01  0.2347269535D+00
      0.6401216923D+00  0.8137573261D+00
 S   1 1.00       0.000000000000
      0.1612777588D+00  0.1000000000D+01
 ****
     46 0
 S   3 1.00       0.000000000000
      0.1873113696D+02  0.3349460434D-01
      0.2825394365D+01  0.2347269535D+00
      0.6401216923D+00  0.8137573261D+00
 S   1 1.00       0.000000000000
      0.1612777588D+00  0.1000000000D+01
 ****
     47 0
 S   6 1.00       0.000000000000
      0.3047524880D+04  0.1834737132D-02
      0.4573695180D+03  0.1403732281D-01
      0.1039486850D+03  0.6884262226D-01
      0.2921015530D+02  0.2321844432D+00
      0.9286662960D+01  0.4679413484D+00
      0.3163926960D+01  0.3623119853D+00
 SP   3 1.00       0.000000000000
      0.7868272350D+01 -0.1193324198D+00  0.6899906659D-01
      0.1881288540D+01 -0.1608541517D+00  0.3164239610D+00
      0.5442492580D+00  0.1143456438D+01  0.7443082909D+00
 SP   1 1.00       0.000000000000
      0.1687144782D+00  0.1000000000D+01  0.1000000000D+01
 D   1 1.00       0.000000000000
      0.8000000000D+00  0.1000000000D+01
 ****
     48 0
 S   3 1.00       0.000000000000
      0.1873113696D+02  0.3349460434D-01
      0.2825394365D+01  0.2347269535D+00
      0.6401216923D+00  0.8137573261D+00
 S   1 1.00       0.000000000000
      0.1612777588D+00  0.1000000000D+01
 ****
     49 0
 S   3 1.00       0.000000000000
      0.1873113696D+02  0.3349460434D-01
      0.2825394365D+01  0.2347269535D+00
      0.6401216923D+00  0.8137573261D+00
 S   1 1.00       0.000000000000
      0.1612777588D+00  0.1000000000D+01
 ****
     50 0
 S   6 1.00       0.000000000000
      0.3047524880D+04  0.1834737132D-02
      0.4573695180D+03  0.1403732281D-01
      0.1039486850D+03  0.6884262226D-01
      0.2921015530D+02  0.2321844432D+00
      0.9286662960D+01  0.4679413484D+00
      0.3163926960D+01  0.3623119853D+00
 SP   3 1.00       0.000000000000
      0.7868272350D+01 -0.1193324198D+00  0.6899906659D-01
      0.1881288540D+01 -0.1608541517D+00  0.3164239610D+00
      0.5442492580D+00  0.1143456438D+01  0.7443082909D+00
 SP   1 1.00       0.000000000000
      0.1687144782D+00  0.1000000000D+01  0.1000000000D+01
 D   1 1.00       0.000000000000
      0.8000000000D+00  0.1000000000D+01
 ****
     51 0
 S   3 1.00       0.000000000000
      0.1873113696D+02  0.3349460434D-01
      0.2825394365D+01  0.2347269535D+00
      0.6401216923D+00  0.8137573261D+00
 S   1 1.00       0.000000000000
      0.1612777588D+00  0.1000000000D+01
 ****
     52 0
 S   3 1.00       0.000000000000
      0.1873113696D+02  0.3349460434D-01
      0.2825394365D+01  0.2347269535D+00
      0.6401216923D+00  0.8137573261D+00
 S   1 1.00       0.000000000000
      0.1612777588D+00  0.1000000000D+01
 ****
     53 0
 S   6 1.00       0.000000000000
      0.3047524880D+04  0.1834737132D-02
      0.4573695180D+03  0.1403732281D-01
      0.1039486850D+03  0.6884262226D-01
      0.2921015530D+02  0.2321844432D+00
      0.9286662960D+01  0.4679413484D+00
      0.3163926960D+01  0.3623119853D+00
 SP   3 1.00       0.000000000000
      0.7868272350D+01 -0.1193324198D+00  0.6899906659D-01
      0.1881288540D+01 -0.1608541517D+00  0.3164239610D+00
      0.5442492580D+00  0.1143456438D+01  0.7443082909D+00
 SP   1 1.00       0.000000000000
      0.1687144782D+00  0.1000000000D+01  0.1000000000D+01
 D   1 1.00       0.000000000000
      0.8000000000D+00  0.1000000000D+01
 ****
     54 0
 S   3 1.00       0.000000000000
      0.1873113696D+02  0.3349460434D-01
      0.2825394365D+01  0.2347269535D+00
      0.6401216923D+00  0.8137573261D+00
 S   1 1.00       0.000000000000
      0.1612777588D+00  0.1000000000D+01
 ****
     55 0
 S   6 1.00       0.000000000000
      0.3047524880D+04  0.1834737132D-02
      0.4573695180D+03  0.1403732281D-01
      0.1039486850D+03  0.6884262226D-01
      0.2921015530D+02  0.2321844432D+00
      0.9286662960D+01  0.4679413484D+00
      0.3163926960D+01  0.3623119853D+00
 SP   3 1.00       0.000000000000
      0.7868272350D+01 -0.1193324198D+00  0.6899906659D-01
      0.1881288540D+01 -0.1608541517D+00  0.3164239610D+00
      0.5442492580D+00  0.1143456438D+01  0.7443082909D+00
 SP   1 1.00       0.000000000000
      0.1687144782D+00  0.1000000000D+01  0.1000000000D+01
 D   1 1.00       0.000000000000
      0.8000000000D+00  0.1000000000D+01
 ****
     56 0
 S   3 1.00       0.000000000000
      0.1873113696D+02  0.3349460434D-01
      0.2825394365D+01  0.2347269535D+00
      0.6401216923D+00  0.8137573261D+00
 S   1 1.00       0.000000000000
      0.1612777588D+00  0.1000000000D+01
 ****
     57 0
 S   3 1.00       0.000000000000
      0.1873113696D+02  0.3349460434D-01
      0.2825394365D+01  0.2347269535D+00
      0.6401216923D+00  0.8137573261D+00
 S   1 1.00       0.000000000000
      0.1612777588D+00  0.1000000000D+01
 ****
     58 0
 S   3 1.00       0.000000000000
      0.1873113696D+02  0.3349460434D-01
      0.2825394365D+01  0.2347269535D+00
      0.6401216923D+00  0.8137573261D+00
 S   1 1.00       0.000000000000
      0.1612777588D+00  0.1000000000D+01
 ****
     59 0
 S   6 1.00       0.000000000000
      0.3047524880D+04  0.1834737132D-02
      0.4573695180D+03  0.1403732281D-01
      0.1039486850D+03  0.6884262226D-01
      0.2921015530D+02  0.2321844432D+00
      0.9286662960D+01  0.4679413484D+00
      0.3163926960D+01  0.3623119853D+00
 SP   3 1.00       0.000000000000
      0.7868272350D+01 -0.1193324198D+00  0.6899906659D-01
      0.1881288540D+01 -0.1608541517D+00  0.3164239610D+00
      0.5442492580D+00  0.1143456438D+01  0.7443082909D+00
 SP   1 1.00       0.000000000000
      0.1687144782D+00  0.1000000000D+01  0.1000000000D+01
 D   1 1.00       0.000000000000
      0.8000000000D+00  0.1000000000D+01
 ****
     60 0
 S   3 1.00       0.000000000000
      0.1873113696D+02  0.3349460434D-01
      0.2825394365D+01  0.2347269535D+00
      0.6401216923D+00  0.8137573261D+00
 S   1 1.00       0.000000000000
      0.1612777588D+00  0.1000000000D+01
 ****
     61 0
 S   3 1.00       0.000000000000
      0.1873113696D+02  0.3349460434D-01
      0.2825394365D+01  0.2347269535D+00
      0.6401216923D+00  0.8137573261D+00
 S   1 1.00       0.000000000000
      0.1612777588D+00  0.1000000000D+01
 ****
     62 0
 S   6 1.00       0.000000000000
      0.3047524880D+04  0.1834737132D-02
      0.4573695180D+03  0.1403732281D-01
      0.1039486850D+03  0.6884262226D-01
      0.2921015530D+02  0.2321844432D+00
      0.9286662960D+01  0.4679413484D+00
      0.3163926960D+01  0.3623119853D+00
 SP   3 1.00       0.000000000000
      0.7868272350D+01 -0.1193324198D+00  0.6899906659D-01
      0.1881288540D+01 -0.1608541517D+00  0.3164239610D+00
      0.5442492580D+00  0.1143456438D+01  0.7443082909D+00
 SP   1 1.00       0.000000000000
      0.1687144782D+00  0.1000000000D+01  0.1000000000D+01
 D   1 1.00       0.000000000000
      0.8000000000D+00  0.1000000000D+01
 ****
     63 0
 S   3 1.00       0.000000000000
      0.1873113696D+02  0.3349460434D-01
      0.2825394365D+01  0.2347269535D+00
      0.6401216923D+00  0.8137573261D+00
 S   1 1.00       0.000000000000
      0.1612777588D+00  0.1000000000D+01
 ****
     64 0
 S   3 1.00       0.000000000000
      0.1873113696D+02  0.3349460434D-01
      0.2825394365D+01  0.2347269535D+00
      0.6401216923D+00  0.8137573261D+00
 S   1 1.00       0.000000000000
      0.1612777588D+00  0.1000000000D+01
 ****
     65 0
 S   6 1.00       0.000000000000
      0.3047524880D+04  0.1834737132D-02
      0.4573695180D+03  0.1403732281D-01
      0.1039486850D+03  0.6884262226D-01
      0.2921015530D+02  0.2321844432D+00
      0.9286662960D+01  0.4679413484D+00
      0.3163926960D+01  0.3623119853D+00
 SP   3 1.00       0.000000000000
      0.7868272350D+01 -0.1193324198D+00  0.6899906659D-01
      0.1881288540D+01 -0.1608541517D+00  0.3164239610D+00
      0.5442492580D+00  0.1143456438D+01  0.7443082909D+00
 SP   1 1.00       0.000000000000
      0.1687144782D+00  0.1000000000D+01  0.1000000000D+01
 D   1 1.00       0.000000000000
      0.8000000000D+00  0.1000000000D+01
 ****
     66 0
 S   3 1.00       0.000000000000
      0.1873113696D+02  0.3349460434D-01
      0.2825394365D+01  0.2347269535D+00
      0.6401216923D+00  0.8137573261D+00
 S   1 1.00       0.000000000000
      0.1612777588D+00  0.1000000000D+01
 ****
     67 0
 S   6 1.00       0.000000000000
      0.3047524880D+04  0.1834737132D-02
      0.4573695180D+03  0.1403732281D-01
      0.1039486850D+03  0.6884262226D-01
      0.2921015530D+02  0.2321844432D+00
      0.9286662960D+01  0.4679413484D+00
      0.3163926960D+01  0.3623119853D+00
 SP   3 1.00       0.000000000000
      0.7868272350D+01 -0.1193324198D+00  0.6899906659D-01
      0.1881288540D+01 -0.1608541517D+00  0.3164239610D+00
      0.5442492580D+00  0.1143456438D+01  0.7443082909D+00
 SP   1 1.00       0.000000000000
      0.1687144782D+00  0.1000000000D+01  0.1000000000D+01
 D   1 1.00       0.000000000000
      0.8000000000D+00  0.1000000000D+01
 ****
     68 0
 S   3 1.00       0.000000000000
      0.1873113696D+02  0.3349460434D-01
      0.2825394365D+01  0.2347269535D+00
      0.6401216923D+00  0.8137573261D+00
 S   1 1.00       0.000000000000
      0.1612777588D+00  0.1000000000D+01
 ****
     69 0
 S   3 1.00       0.000000000000
      0.1873113696D+02  0.3349460434D-01
      0.2825394365D+01  0.2347269535D+00
      0.6401216923D+00  0.8137573261D+00
 S   1 1.00       0.000000000000
      0.1612777588D+00  0.1000000000D+01
 ****
     70 0
 S   3 1.00       0.000000000000
      0.1873113696D+02  0.3349460434D-01
      0.2825394365D+01  0.2347269535D+00
      0.6401216923D+00  0.8137573261D+00
 S   1 1.00       0.000000000000
      0.1612777588D+00  0.1000000000D+01
 ****
     71 0
 S   6 1.00       0.000000000000
      0.3047524880D+04  0.1834737132D-02
      0.4573695180D+03  0.1403732281D-01
      0.1039486850D+03  0.6884262226D-01
      0.2921015530D+02  0.2321844432D+00
      0.9286662960D+01  0.4679413484D+00
      0.3163926960D+01  0.3623119853D+00
 SP   3 1.00       0.000000000000
      0.7868272350D+01 -0.1193324198D+00  0.6899906659D-01
      0.1881288540D+01 -0.1608541517D+00  0.3164239610D+00
      0.5442492580D+00  0.1143456438D+01  0.7443082909D+00
 SP   1 1.00       0.000000000000
      0.1687144782D+00  0.1000000000D+01  0.1000000000D+01
 D   1 1.00       0.000000000000
      0.8000000000D+00  0.1000000000D+01
 ****
     72 0
 S   3 1.00       0.000000000000
      0.1873113696D+02  0.3349460434D-01
      0.2825394365D+01  0.2347269535D+00
      0.6401216923D+00  0.8137573261D+00
 S   1 1.00       0.000000000000
      0.1612777588D+00  0.1000000000D+01
 ****
     73 0
 S   3 1.00       0.000000000000
      0.1873113696D+02  0.3349460434D-01
      0.2825394365D+01  0.2347269535D+00
      0.6401216923D+00  0.8137573261D+00
 S   1 1.00       0.000000000000
      0.1612777588D+00  0.1000000000D+01
 ****
     74 0
 S   3 1.00       0.000000000000
      0.1873113696D+02  0.3349460434D-01
      0.2825394365D+01  0.2347269535D+00
      0.6401216923D+00  0.8137573261D+00
 S   1 1.00       0.000000000000
      0.1612777588D+00  0.1000000000D+01
 ****

 AO basis set (Overlap normalization):
 Atom O1       Shell     1 S   6     bf    1 -     1          9.427050691189         -0.453675869072        -13.717875698657
      0.5484671660D+04  0.1831074430D-02
      0.8252349460D+03  0.1395017220D-01
      0.1880469580D+03  0.6844507810D-01
      0.5296450000D+02  0.2327143360D+00
      0.1689757040D+02  0.4701928980D+00
      0.5799635340D+01  0.3585208530D+00
 Atom O1       Shell     2 SP   3    bf    2 -     5          9.427050691189         -0.453675869072        -13.717875698657
      0.1553961625D+02 -0.1107775495D+00  0.7087426823D-01
      0.3599933586D+01 -0.1480262627D+00  0.3397528391D+00
      0.1013761750D+01  0.1130767015D+01  0.7271585773D+00
 Atom O1       Shell     3 SP   1    bf    6 -     9          9.427050691189         -0.453675869072        -13.717875698657
      0.2700058226D+00  0.1000000000D+01  0.1000000000D+01
 Atom O1       Shell     4 D   1     bf   10 -    15          9.427050691189         -0.453675869072        -13.717875698657
      0.8000000000D+00  0.1000000000D+01
 Atom H2       Shell     5 S   3     bf   16 -    16         11.225489521417         -0.614496646344        -13.444119407478
      0.1873113696D+02  0.3349460434D-01
      0.2825394365D+01  0.2347269535D+00
      0.6401216923D+00  0.8137573261D+00
 Atom H2       Shell     6 S   1     bf   17 -    17         11.225489521417         -0.614496646344        -13.444119407478
      0.1612777588D+00  0.1000000000D+01
 Atom C3       Shell     7 S   6     bf   18 -    18          0.000000000000          0.000000000000          0.000000000000
      0.3047524880D+04  0.1834737132D-02
      0.4573695180D+03  0.1403732281D-01
      0.1039486850D+03  0.6884262226D-01
      0.2921015530D+02  0.2321844432D+00
      0.9286662960D+01  0.4679413484D+00
      0.3163926960D+01  0.3623119853D+00
 Atom C3       Shell     8 SP   3    bf   19 -    22          0.000000000000          0.000000000000          0.000000000000
      0.7868272350D+01 -0.1193324198D+00  0.6899906659D-01
      0.1881288540D+01 -0.1608541517D+00  0.3164239610D+00
      0.5442492580D+00  0.1143456438D+01  0.7443082909D+00
 Atom C3       Shell     9 SP   1    bf   23 -    26          0.000000000000          0.000000000000          0.000000000000
      0.1687144782D+00  0.1000000000D+01  0.1000000000D+01
 Atom C3       Shell    10 D   1     bf   27 -    32          0.000000000000          0.000000000000          0.000000000000
      0.8000000000D+00  0.1000000000D+01
 Atom C4       Shell    11 S   6     bf   33 -    33          2.937816339714          0.000000000000          0.000000000000
      0.3047524880D+04  0.1834737132D-02
      0.4573695180D+03  0.1403732281D-01
      0.1039486850D+03  0.6884262226D-01
      0.2921015530D+02  0.2321844432D+00
      0.9286662960D+01  0.4679413484D+00
      0.3163926960D+01  0.3623119853D+00
 Atom C4       Shell    12 SP   3    bf   34 -    37          2.937816339714          0.000000000000          0.000000000000
      0.7868272350D+01 -0.1193324198D+00  0.6899906659D-01
      0.1881288540D+01 -0.1608541517D+00  0.3164239610D+00
      0.5442492580D+00  0.1143456438D+01  0.7443082909D+00
 Atom C4       Shell    13 SP   1    bf   38 -    41          2.937816339714          0.000000000000          0.000000000000
      0.1687144782D+00  0.1000000000D+01  0.1000000000D+01
 Atom C4       Shell    14 D   1     bf   42 -    47          2.937816339714          0.000000000000          0.000000000000
      0.8000000000D+00  0.1000000000D+01
 Atom H5       Shell    15 S   3     bf   48 -    48          3.477827559701          2.014659933750          0.000000000000
      0.1873113696D+02  0.3349460434D-01
      0.2825394365D+01  0.2347269535D+00
      0.6401216923D+00  0.8137573261D+00
 Atom H5       Shell    16 S   1     bf   49 -    49          3.477827559701          2.014659933750          0.000000000000
      0.1612777588D+00  0.1000000000D+01
 Atom C6       Shell    17 S   6     bf   50 -    50          4.181986249742         -1.140947720724         -2.357066082501
      0.3047524880D+04  0.1834737132D-02
      0.4573695180D+03  0.1403732281D-01
      0.1039486850D+03  0.6884262226D-01
      0.2921015530D+02  0.2321844432D+00
      0.9286662960D+01  0.4679413484D+00
      0.3163926960D+01  0.3623119853D+00
 Atom C6       Shell    18 SP   3    bf   51 -    54          4.181986249742         -1.140947720724         -2.357066082501
      0.7868272350D+01 -0.1193324198D+00  0.6899906659D-01
      0.1881288540D+01 -0.1608541517D+00  0.3164239610D+00
      0.5442492580D+00  0.1143456438D+01  0.7443082909D+00
 Atom C6       Shell    19 SP   1    bf   55 -    58          4.181986249742         -1.140947720724         -2.357066082501
      0.1687144782D+00  0.1000000000D+01  0.1000000000D+01
 Atom C6       Shell    20 D   1     bf   59 -    64          4.181986249742         -1.140947720724         -2.357066082501
      0.8000000000D+00  0.1000000000D+01
 Atom H7       Shell    21 S   3     bf   65 -    65          3.680621119700         -3.152700348613         -2.487633856166
      0.1873113696D+02  0.3349460434D-01
      0.2825394365D+01  0.2347269535D+00
      0.6401216923D+00  0.8137573261D+00
 Atom H7       Shell    22 S   1     bf   66 -    66          3.680621119700         -3.152700348613         -2.487633856166
      0.1612777588D+00  0.1000000000D+01
 Atom C8       Shell    23 S   6     bf   67 -    67          3.229049819725          0.246279522029         -4.757191351282
      0.3047524880D+04  0.1834737132D-02
      0.4573695180D+03  0.1403732281D-01
      0.1039486850D+03  0.6884262226D-01
      0.2921015530D+02  0.2321844432D+00
      0.9286662960D+01  0.4679413484D+00
      0.3163926960D+01  0.3623119853D+00
 Atom C8       Shell    24 SP   3    bf   68 -    71          3.229049819725          0.246279522029         -4.757191351282
      0.7868272350D+01 -0.1193324198D+00  0.6899906659D-01
      0.1881288540D+01 -0.1608541517D+00  0.3164239610D+00
      0.5442492580D+00  0.1143456438D+01  0.7443082909D+00
 Atom C8       Shell    25 SP   1    bf   72 -    75          3.229049819725          0.246279522029         -4.757191351282
      0.1687144782D+00  0.1000000000D+01  0.1000000000D+01
 Atom C8       Shell    26 D   1     bf   76 -    81          3.229049819725          0.246279522029         -4.757191351282
      0.8000000000D+00  0.1000000000D+01
 Atom H9       Shell    27 S   3     bf   82 -    82          3.997372932285          2.178636874917         -4.623493170689
      0.1873113696D+02  0.3349460434D-01
      0.2825394365D+01  0.2347269535D+00
      0.6401216923D+00  0.8137573261D+00
 Atom H9       Shell    28 S   1     bf   83 -    83          3.997372932285          2.178636874917         -4.623493170689
      0.1612777588D+00  0.1000000000D+01
 Atom C10      Shell    29 S   6     bf   84 -    84         -0.504544537569          1.217815902762          2.654705771897
      0.3047524880D+04  0.1834737132D-02
      0.4573695180D+03  0.1403732281D-01
      0.1039486850D+03  0.6884262226D-01
      0.2921015530D+02  0.2321844432D+00
      0.9286662960D+01  0.4679413484D+00
      0.3163926960D+01  0.3623119853D+00
 Atom C10      Shell    30 SP   3    bf   85 -    88         -0.504544537569          1.217815902762          2.654705771897
      0.7868272350D+01 -0.1193324198D+00  0.6899906659D-01
      0.1881288540D+01 -0.1608541517D+00  0.3164239610D+00
      0.5442492580D+00  0.1143456438D+01  0.7443082909D+00
 Atom C10      Shell    31 SP   1    bf   89 -    92         -0.504544537569          1.217815902762          2.654705771897
      0.1687144782D+00  0.1000000000D+01  0.1000000000D+01
 Atom C10      Shell    32 D   1     bf   93 -    98         -0.504544537569          1.217815902762          2.654705771897
      0.8000000000D+00  0.1000000000D+01
 Atom H11      Shell    33 S   3     bf   99 -    99         -0.011683023947          3.227545106394          2.449650663251
      0.1873113696D+02  0.3349460434D-01
      0.2825394365D+01  0.2347269535D+00
      0.6401216923D+00  0.8137573261D+00
 Atom H11      Shell    34 S   1     bf  100 -   100         -0.011683023947          3.227545106394          2.449650663251
      0.1612777588D+00  0.1000000000D+01
 Atom C12      Shell    35 S   6     bf  101 -   101         -0.823262288942          1.552096191347         -2.326145004015
      0.3047524880D+04  0.1834737132D-02
      0.4573695180D+03  0.1403732281D-01
      0.1039486850D+03  0.6884262226D-01
      0.2921015530D+02  0.2321844432D+00
      0.9286662960D+01  0.4679413484D+00
      0.3163926960D+01  0.3623119853D+00
 Atom C12      Shell    36 SP   3    bf  102 -   105         -0.823262288942          1.552096191347         -2.326145004015
      0.7868272350D+01 -0.1193324198D+00  0.6899906659D-01
      0.1881288540D+01 -0.1608541517D+00  0.3164239610D+00
      0.5442492580D+00  0.1143456438D+01  0.7443082909D+00
 Atom C12      Shell    37 SP   1    bf  106 -   109         -0.823262288942          1.552096191347         -2.326145004015
      0.1687144782D+00  0.1000000000D+01  0.1000000000D+01
 Atom C12      Shell    38 D   1     bf  110 -   115         -0.823262288942          1.552096191347         -2.326145004015
      0.8000000000D+00  0.1000000000D+01
 Atom H13      Shell    39 S   3     bf  116 -   116         -0.207854133199          3.519693799668         -2.063864849565
      0.1873113696D+02  0.3349460434D-01
      0.2825394365D+01  0.2347269535D+00
      0.6401216923D+00  0.8137573261D+00
 Atom H13      Shell    40 S   1     bf  117 -   117         -0.207854133199          3.519693799668         -2.063864849565
      0.1612777588D+00  0.1000000000D+01
 Atom H14      Shell    41 S   3     bf  118 -   118         -2.881906486607          1.601337238726         -2.524806337673
      0.1873113696D+02  0.3349460434D-01
      0.2825394365D+01  0.2347269535D+00
      0.6401216923D+00  0.8137573261D+00
 Atom H14      Shell    42 S   1     bf  119 -   119         -2.881906486607          1.601337238726         -2.524806337673
      0.1612777588D+00  0.1000000000D+01
 Atom C15      Shell    43 S   6     bf  120 -   120          4.350030713026         -0.891585753017         -7.255625918264
      0.3047524880D+04  0.1834737132D-02
      0.4573695180D+03  0.1403732281D-01
      0.1039486850D+03  0.6884262226D-01
      0.2921015530D+02  0.2321844432D+00
      0.9286662960D+01  0.4679413484D+00
      0.3163926960D+01  0.3623119853D+00
 Atom C15      Shell    44 SP   3    bf  121 -   124          4.350030713026         -0.891585753017         -7.255625918264
      0.7868272350D+01 -0.1193324198D+00  0.6899906659D-01
      0.1881288540D+01 -0.1608541517D+00  0.3164239610D+00
      0.5442492580D+00  0.1143456438D+01  0.7443082909D+00
 Atom C15      Shell    45 SP   1    bf  125 -   128          4.350030713026         -0.891585753017         -7.255625918264
      0.1687144782D+00  0.1000000000D+01  0.1000000000D+01
 Atom C15      Shell    46 D   1     bf  129 -   134          4.350030713026         -0.891585753017         -7.255625918264
      0.8000000000D+00  0.1000000000D+01
 Atom C16      Shell    47 S   6     bf  135 -   135          3.663311492884         -1.041173790285          2.612385733096
      0.3047524880D+04  0.1834737132D-02
      0.4573695180D+03  0.1403732281D-01
      0.1039486850D+03  0.6884262226D-01
      0.2921015530D+02  0.2321844432D+00
      0.9286662960D+01  0.4679413484D+00
      0.3163926960D+01  0.3623119853D+00
 Atom C16      Shell    48 SP   3    bf  136 -   139          3.663311492884         -1.041173790285          2.612385733096
      0.7868272350D+01 -0.1193324198D+00  0.6899906659D-01
      0.1881288540D+01 -0.1608541517D+00  0.3164239610D+00
      0.5442492580D+00  0.1143456438D+01  0.7443082909D+00
 Atom C16      Shell    49 SP   1    bf  140 -   143          3.663311492884         -1.041173790285          2.612385733096
      0.1687144782D+00  0.1000000000D+01  0.1000000000D+01
 Atom C16      Shell    50 D   1     bf  144 -   149          3.663311492884         -1.041173790285          2.612385733096
      0.8000000000D+00  0.1000000000D+01
 Atom H17      Shell    51 S   3     bf  150 -   150          5.539321823422         -0.413808127874          3.217034392951
      0.1873113696D+02  0.3349460434D-01
      0.2825394365D+01  0.2347269535D+00
      0.6401216923D+00  0.8137573261D+00
 Atom H17      Shell    52 S   1     bf  151 -   151          5.539321823422         -0.413808127874          3.217034392951
      0.1612777588D+00  0.1000000000D+01
 Atom H18      Shell    53 S   3     bf  152 -   152          3.707166575120         -3.113866117535          2.589192916397
      0.1873113696D+02  0.3349460434D-01
      0.2825394365D+01  0.2347269535D+00
      0.6401216923D+00  0.8137573261D+00
 Atom H18      Shell    54 S   1     bf  153 -   153          3.707166575120         -3.113866117535          2.589192916397
      0.1612777588D+00  0.1000000000D+01
 Atom C19      Shell    55 S   6     bf  154 -   154          0.317881301895          0.497911542151         -4.793553518223
      0.3047524880D+04  0.1834737132D-02
      0.4573695180D+03  0.1403732281D-01
      0.1039486850D+03  0.6884262226D-01
      0.2921015530D+02  0.2321844432D+00
      0.9286662960D+01  0.4679413484D+00
      0.3163926960D+01  0.3623119853D+00
 Atom C19      Shell    56 SP   3    bf  155 -   158          0.317881301895          0.497911542151         -4.793553518223
      0.7868272350D+01 -0.1193324198D+00  0.6899906659D-01
      0.1881288540D+01 -0.1608541517D+00  0.3164239610D+00
      0.5442492580D+00  0.1143456438D+01  0.7443082909D+00
 Atom C19      Shell    57 SP   1    bf  159 -   162          0.317881301895          0.497911542151         -4.793553518223
      0.1687144782D+00  0.1000000000D+01  0.1000000000D+01
 Atom C19      Shell    58 D   1     bf  163 -   168          0.317881301895          0.497911542151         -4.793553518223
      0.8000000000D+00  0.1000000000D+01
 Atom H20      Shell    59 S   3     bf  169 -   169         -0.542151259243         -1.344103484531         -5.180608453083
      0.1873113696D+02  0.3349460434D-01
      0.2825394365D+01  0.2347269535D+00
      0.6401216923D+00  0.8137573261D+00
 Atom H20      Shell    60 S   1     bf  170 -   170         -0.542151259243         -1.344103484531         -5.180608453083
      0.1612777588D+00  0.1000000000D+01
 Atom H21      Shell    61 S   3     bf  171 -   171         -0.254741394398          1.730122943956         -6.356421885520
      0.1873113696D+02  0.3349460434D-01
      0.2825394365D+01  0.2347269535D+00
      0.6401216923D+00  0.8137573261D+00
 Atom H21      Shell    62 S   1     bf  172 -   172         -0.254741394398          1.730122943956         -6.356421885520
      0.1612777588D+00  0.1000000000D+01
 Atom C22      Shell    63 S   6     bf  173 -   173          1.535317653163         -0.050772368053          4.378066727728
      0.3047524880D+04  0.1834737132D-02
      0.4573695180D+03  0.1403732281D-01
      0.1039486850D+03  0.6884262226D-01
      0.2921015530D+02  0.2321844432D+00
      0.9286662960D+01  0.4679413484D+00
      0.3163926960D+01  0.3623119853D+00
 Atom C22      Shell    64 SP   3    bf  174 -   177          1.535317653163         -0.050772368053          4.378066727728
      0.7868272350D+01 -0.1193324198D+00  0.6899906659D-01
      0.1881288540D+01 -0.1608541517D+00  0.3164239610D+00
      0.5442492580D+00  0.1143456438D+01  0.7443082909D+00
 Atom C22      Shell    65 SP   1    bf  178 -   181          1.535317653163         -0.050772368053          4.378066727728
      0.1687144782D+00  0.1000000000D+01  0.1000000000D+01
 Atom C22      Shell    66 D   1     bf  182 -   187          1.535317653163         -0.050772368053          4.378066727728
      0.8000000000D+00  0.1000000000D+01
 Atom H23      Shell    67 S   3     bf  188 -   188          0.695715639343         -1.609365211078          5.454287227696
      0.1873113696D+02  0.3349460434D-01
      0.2825394365D+01  0.2347269535D+00
      0.6401216923D+00  0.8137573261D+00
 Atom H23      Shell    68 S   1     bf  189 -   189          0.695715639343         -1.609365211078          5.454287227696
      0.1612777588D+00  0.1000000000D+01
 Atom H24      Shell    69 S   3     bf  190 -   190          2.265044470063          1.288914505251          5.774638571722
      0.1873113696D+02  0.3349460434D-01
      0.2825394365D+01  0.2347269535D+00
      0.6401216923D+00  0.8137573261D+00
 Atom H24      Shell    70 S   1     bf  191 -   191          2.265044470063          1.288914505251          5.774638571722
      0.1612777588D+00  0.1000000000D+01
 Atom C25      Shell    71 S   6     bf  192 -   192          7.076687070439         -0.955789935375         -2.196800620150
      0.3047524880D+04  0.1834737132D-02
      0.4573695180D+03  0.1403732281D-01
      0.1039486850D+03  0.6884262226D-01
      0.2921015530D+02  0.2321844432D+00
      0.9286662960D+01  0.4679413484D+00
      0.3163926960D+01  0.3623119853D+00
 Atom C25      Shell    72 SP   3    bf  193 -   196          7.076687070439         -0.955789935375         -2.196800620150
      0.7868272350D+01 -0.1193324198D+00  0.6899906659D-01
      0.1881288540D+01 -0.1608541517D+00  0.3164239610D+00
      0.5442492580D+00  0.1143456438D+01  0.7443082909D+00
 Atom C25      Shell    73 SP   1    bf  197 -   200          7.076687070439         -0.955789935375         -2.196800620150
      0.1687144782D+00  0.1000000000D+01  0.1000000000D+01
 Atom C25      Shell    74 D   1     bf  201 -   206          7.076687070439         -0.955789935375         -2.196800620150
      0.8000000000D+00  0.1000000000D+01
 Atom H26      Shell    75 S   3     bf  207 -   207          7.804188470255         -2.330075596576         -0.822562391075
      0.1873113696D+02  0.3349460434D-01
      0.2825394365D+01  0.2347269535D+00
      0.6401216923D+00  0.8137573261D+00
 Atom H26      Shell    76 S   1     bf  208 -   208          7.804188470255         -2.330075596576         -0.822562391075
      0.1612777588D+00  0.1000000000D+01
 Atom H27      Shell    77 S   3     bf  209 -   209          7.611776442021          0.911780859356         -1.442460989644
      0.1873113696D+02  0.3349460434D-01
      0.2825394365D+01  0.2347269535D+00
      0.6401216923D+00  0.8137573261D+00
 Atom H27      Shell    78 S   1     bf  210 -   210          7.611776442021          0.911780859356         -1.442460989644
      0.1612777588D+00  0.1000000000D+01
 Atom C28      Shell    79 S   6     bf  211 -   211         -3.188702088089          1.093438380579          3.814319489266
      0.3047524880D+04  0.1834737132D-02
      0.4573695180D+03  0.1403732281D-01
      0.1039486850D+03  0.6884262226D-01
      0.2921015530D+02  0.2321844432D+00
      0.9286662960D+01  0.4679413484D+00
      0.3163926960D+01  0.3623119853D+00
 Atom C28      Shell    80 SP   3    bf  212 -   215         -3.188702088089          1.093438380579          3.814319489266
      0.7868272350D+01 -0.1193324198D+00  0.6899906659D-01
      0.1881288540D+01 -0.1608541517D+00  0.3164239610D+00
      0.5442492580D+00  0.1143456438D+01  0.7443082909D+00
 Atom C28      Shell    81 SP   1    bf  216 -   219         -3.188702088089          1.093438380579          3.814319489266
      0.1687144782D+00  0.1000000000D+01  0.1000000000D+01
 Atom C28      Shell    82 D   1     bf  220 -   225         -3.188702088089          1.093438380579          3.814319489266
      0.8000000000D+00  0.1000000000D+01
 Atom H29      Shell    83 S   3     bf  226 -   226         -3.664503305361         -0.918469242648          4.034753982865
      0.1873113696D+02  0.3349460434D-01
      0.2825394365D+01  0.2347269535D+00
      0.6401216923D+00  0.8137573261D+00
 Atom H29      Shell    84 S   1     bf  227 -   227         -3.664503305361         -0.918469242648          4.034753982865
      0.1612777588D+00  0.1000000000D+01
 Atom C30      Shell    85 S   6     bf  228 -   228         -1.122055013635         -2.695084173788         -0.111844707291
      0.3047524880D+04  0.1834737132D-02
      0.4573695180D+03  0.1403732281D-01
      0.1039486850D+03  0.6884262226D-01
      0.2921015530D+02  0.2321844432D+00
      0.9286662960D+01  0.4679413484D+00
      0.3163926960D+01  0.3623119853D+00
 Atom C30      Shell    86 SP   3    bf  229 -   232         -1.122055013635         -2.695084173788         -0.111844707291
      0.7868272350D+01 -0.1193324198D+00  0.6899906659D-01
      0.1881288540D+01 -0.1608541517D+00  0.3164239610D+00
      0.5442492580D+00  0.1143456438D+01  0.7443082909D+00
 Atom C30      Shell    87 SP   1    bf  233 -   236         -1.122055013635         -2.695084173788         -0.111844707291
      0.1687144782D+00  0.1000000000D+01  0.1000000000D+01
 Atom C30      Shell    88 D   1     bf  237 -   242         -1.122055013635         -2.695084173788         -0.111844707291
      0.8000000000D+00  0.1000000000D+01
 Atom H31      Shell    89 S   3     bf  243 -   243         -3.188429268327         -2.621248302995         -0.204687292351
      0.1873113696D+02  0.3349460434D-01
      0.2825394365D+01  0.2347269535D+00
      0.6401216923D+00  0.8137573261D+00
 Atom H31      Shell    90 S   1     bf  244 -   244         -3.188429268327         -2.621248302995         -0.204687292351
      0.1612777588D+00  0.1000000000D+01
 Atom H32      Shell    91 S   3     bf  245 -   245         -0.476994220277         -3.746587074834         -1.767888119167
      0.1873113696D+02  0.3349460434D-01
      0.2825394365D+01  0.2347269535D+00
      0.6401216923D+00  0.8137573261D+00
 Atom H32      Shell    92 S   1     bf  246 -   246         -0.476994220277         -3.746587074834         -1.767888119167
      0.1612777588D+00  0.1000000000D+01
 Atom H33      Shell    93 S   3     bf  247 -   247         -0.620991370501         -3.814533500750          1.552991505794
      0.1873113696D+02  0.3349460434D-01
      0.2825394365D+01  0.2347269535D+00
      0.6401216923D+00  0.8137573261D+00
 Atom H33      Shell    94 S   1     bf  248 -   248         -0.620991370501         -3.814533500750          1.552991505794
      0.1612777588D+00  0.1000000000D+01
 Atom C34      Shell    95 S   6     bf  249 -   249          7.195778953039         -1.365976837752         -6.949192652870
      0.3047524880D+04  0.1834737132D-02
      0.4573695180D+03  0.1403732281D-01
      0.1039486850D+03  0.6884262226D-01
      0.2921015530D+02  0.2321844432D+00
      0.9286662960D+01  0.4679413484D+00
      0.3163926960D+01  0.3623119853D+00
 Atom C34      Shell    96 SP   3    bf  250 -   253          7.195778953039         -1.365976837752         -6.949192652870
      0.7868272350D+01 -0.1193324198D+00  0.6899906659D-01
      0.1881288540D+01 -0.1608541517D+00  0.3164239610D+00
      0.5442492580D+00  0.1143456438D+01  0.7443082909D+00
 Atom C34      Shell    97 SP   1    bf  254 -   257          7.195778953039         -1.365976837752         -6.949192652870
      0.1687144782D+00  0.1000000000D+01  0.1000000000D+01
 Atom C34      Shell    98 D   1     bf  258 -   263          7.195778953039         -1.365976837752         -6.949192652870
      0.8000000000D+00  0.1000000000D+01
 Atom C35      Shell    99 S   6     bf  264 -   264          3.974522118222          1.063543461177         -9.431201361257
      0.3047524880D+04  0.1834737132D-02
      0.4573695180D+03  0.1403732281D-01
      0.1039486850D+03  0.6884262226D-01
      0.2921015530D+02  0.2321844432D+00
      0.9286662960D+01  0.4679413484D+00
      0.3163926960D+01  0.3623119853D+00
 Atom C35      Shell   100 SP   3    bf  265 -   268          3.974522118222          1.063543461177         -9.431201361257
      0.7868272350D+01 -0.1193324198D+00  0.6899906659D-01
      0.1881288540D+01 -0.1608541517D+00  0.3164239610D+00
      0.5442492580D+00  0.1143456438D+01  0.7443082909D+00
 Atom C35      Shell   101 SP   1    bf  269 -   272          3.974522118222          1.063543461177         -9.431201361257
      0.1687144782D+00  0.1000000000D+01  0.1000000000D+01
 Atom C35      Shell   102 D   1     bf  273 -   278          3.974522118222          1.063543461177         -9.431201361257
      0.8000000000D+00  0.1000000000D+01
 Atom H36      Shell   103 S   3     bf  279 -   279          4.588098751398          2.924107189202         -8.742150483628
      0.1873113696D+02  0.3349460434D-01
      0.2825394365D+01  0.2347269535D+00
      0.6401216923D+00  0.8137573261D+00
 Atom H36      Shell   104 S   1     bf  280 -   280          4.588098751398          2.924107189202         -8.742150483628
      0.1612777588D+00  0.1000000000D+01
 Atom H37      Shell   105 S   3     bf  281 -   281          1.957304137795          1.234088939204         -9.863570284721
      0.1873113696D+02  0.3349460434D-01
      0.2825394365D+01  0.2347269535D+00
      0.6401216923D+00  0.8137573261D+00
 Atom H37      Shell   106 S   1     bf  282 -   282          1.957304137795          1.234088939204         -9.863570284721
      0.1612777588D+00  0.1000000000D+01
 Atom C38      Shell   107 S   6     bf  283 -   283          8.360150679557         -1.352502032178         -4.698016712821
      0.3047524880D+04  0.1834737132D-02
      0.4573695180D+03  0.1403732281D-01
      0.1039486850D+03  0.6884262226D-01
      0.2921015530D+02  0.2321844432D+00
      0.9286662960D+01  0.4679413484D+00
      0.3163926960D+01  0.3623119853D+00
 Atom C38      Shell   108 SP   3    bf  284 -   287          8.360150679557         -1.352502032178         -4.698016712821
      0.7868272350D+01 -0.1193324198D+00  0.6899906659D-01
      0.1881288540D+01 -0.1608541517D+00  0.3164239610D+00
      0.5442492580D+00  0.1143456438D+01  0.7443082909D+00
 Atom C38      Shell   109 SP   1    bf  288 -   291          8.360150679557         -1.352502032178         -4.698016712821
      0.1687144782D+00  0.1000000000D+01  0.1000000000D+01
 Atom C38      Shell   110 D   1     bf  292 -   297          8.360150679557         -1.352502032178         -4.698016712821
      0.8000000000D+00  0.1000000000D+01
 Atom H39      Shell   111 S   3     bf  298 -   298         10.397728248087         -1.657136051525         -4.642070614767
      0.1873113696D+02  0.3349460434D-01
      0.2825394365D+01  0.2347269535D+00
      0.6401216923D+00  0.8137573261D+00
 Atom H39      Shell   112 S   1     bf  299 -   299         10.397728248087         -1.657136051525         -4.642070614767
      0.1612777588D+00  0.1000000000D+01
 Atom C40      Shell   113 S   6     bf  300 -   300          3.044885217739         -3.418378381828         -7.974758968256
      0.3047524880D+04  0.1834737132D-02
      0.4573695180D+03  0.1403732281D-01
      0.1039486850D+03  0.6884262226D-01
      0.2921015530D+02  0.2321844432D+00
      0.9286662960D+01  0.4679413484D+00
      0.3163926960D+01  0.3623119853D+00
 Atom C40      Shell   114 SP   3    bf  301 -   304          3.044885217739         -3.418378381828         -7.974758968256
      0.7868272350D+01 -0.1193324198D+00  0.6899906659D-01
      0.1881288540D+01 -0.1608541517D+00  0.3164239610D+00
      0.5442492580D+00  0.1143456438D+01  0.7443082909D+00
[...]
 1480 Fit       0.003210
 1481 Fit       0.001635
 1482 Fit       0.000150
 1483 Fit      -0.002914
 1484 Fit       0.000290
 1485 Fit      -0.003014
 1486 Fit      -0.003294
 1487 Fit      -0.002613
 1488 Fit      -0.001675
 1489 Fit      -0.000499
 1490 Fit      -0.002254
 1491 Fit      -0.002463
 1492 Fit      -0.001350
 1493 Fit      -0.001801
 1494 Fit      -0.001861
 1495 Fit      -0.001622
 1496 Fit      -0.001233
 1497 Fit      -0.000734
 1498 Fit      -0.000149
 1499 Fit       0.002507
 1500 Fit       0.000922
 1501 Fit       0.000725
 1502 Fit       0.001077
 1503 Fit       0.001390
 1504 Fit       0.002500
 1505 Fit       0.002164
 1506 Fit      -0.000407
 1507 Fit       0.002547
 1508 Fit      -0.002463
 1509 Fit       0.000051
 1510 Fit       0.001985
 1511 Fit       0.002752
 1512 Fit       0.002552
 1513 Fit      -0.002452
 1514 Fit      -0.000238
 1515 Fit       0.001254
 1516 Fit       0.001699
 1517 Fit       0.001292
 1518 Fit      -0.002364
 1519 Fit      -0.000838
 1520 Fit      -0.000482
 1521 Fit      -0.000988
 1522 Fit      -0.001710
 1523 Fit       0.002882
 1524 Fit       0.001948
 1525 Fit       0.000285
 1526 Fit      -0.002049
 1527 Fit       0.002053
 1528 Fit       0.001825
 1529 Fit       0.000939
 1530 Fit      -0.000861
 1531 Fit      -0.000405
 1532 Fit      -0.000130
 1533 Fit      -0.001272
 1534 Fit      -0.002498
 1535 Fit      -0.002835
 1536 Fit      -0.002310
 1537 Fit      -0.002562
 1538 Fit      -0.002850
 1539 Fit      -0.002313
 1540 Fit      -0.001375
 1541 Fit      -0.001158
 1542 Fit       0.000148
 1543 Fit       0.000583
 1544 Fit      -0.001380
 1545 Fit       0.000079
 1546 Fit      -0.000286
 1547 Fit       0.001295
 1548 Fit       0.001654
 1549 Fit      -0.000600
 1550 Fit       0.001409
 1551 Fit       0.002561
 1552 Fit       0.003051
 1553 Fit       0.001037
 1554 Fit      -0.001968
 1555 Fit      -0.000920
 1556 Fit       0.000528
 1557 Fit      -0.000840
 1558 Fit      -0.002259
 1559 Fit       0.000285
 1560 Fit       0.001984
 1561 Fit       0.001967
 1562 Fit       0.000443
 1563 Fit      -0.002090
 1564 Fit       0.001212
 1565 Fit       0.002860
 1566 Fit       0.002587
 1567 Fit       0.001275
 1568 Fit      -0.001056
 1569 Fit      -0.000056
 1570 Fit      -0.001685
 1571 Fit      -0.000005
 1572 Fit       0.001464
 1573 Fit       0.001717
 1574 Fit       0.000341
 1575 Fit      -0.002080
 1576 Fit       0.000315
 1577 Fit       0.002040
 1578 Fit       0.002711
 1579 Fit       0.002025
 1580 Fit      -0.000242
 1581 Fit      -0.002816
 1582 Fit      -0.002283
 1583 Fit      -0.004334
 1584 Fit      -0.012669
 1585 Fit      -0.016208
 1586 Fit      -0.019942
 1587 Fit      -0.018380
 1588 Fit      -0.011790
 1589 Fit      -0.007749
 1590 Fit      -0.015546
 1591 Fit      -0.020918
 1592 Fit      -0.022519
 1593 Fit      -0.024708
 1594 Fit      -0.024381
 1595 Fit      -0.020840
 1596 Fit      -0.013493
 1597 Fit      -0.005482
 1598 Fit      -0.015670
 1599 Fit      -0.020482
 1600 Fit      -0.025208
 1601 Fit      -0.026577
 1602 Fit      -0.025279
 1603 Fit      -0.019499
 1604 Fit      -0.023771
 1605 Fit       0.019645
 1606 Fit       0.017417
 1607 Fit       0.018257
 1608 Fit       0.016497
 1609 Fit       0.011845
 1610 Fit       0.012006
 1611 Fit       0.016880
 1612 Fit       0.014698
 1613 Fit       0.012543
 1614 Fit       0.006696
 1615 Fit      -0.001427
 1616 Fit       0.008119
 1617 Fit       0.013301
 1618 Fit       0.008030
 1619 Fit       0.004467
 1620 Fit      -0.002401
 1621 Fit       0.005868
 1622 Fit      -0.002870
 1623 Fit       0.003735
 1624 Fit       0.003897
 1625 Fit       0.004028
 1626 Fit       0.003918
 1627 Fit       0.003985
 1628 Fit       0.003017
 1629 Fit       0.002029
 1630 Fit       0.000309
 1631 Fit      -0.003574
 1632 Fit       0.002202
 1633 Fit       0.003172
 1634 Fit       0.003364
 1635 Fit       0.001890
 1636 Fit       0.003087
 1637 Fit       0.002692
 1638 Fit       0.003977
 1639 Fit       0.004289
 1640 Fit       0.003639
 1641 Fit      -0.000122
 1642 Fit       0.000242
 1643 Fit       0.004027
 1644 Fit       0.003395
 1645 Fit       0.002719
 1646 Fit       0.003373
 1647 Fit       0.002774
 1648 Fit       0.001894
 1649 Fit       0.000702
 1650 Fit       0.002289
 1651 Fit       0.001484
 1652 Fit       0.000232
 1653 Fit       0.001057
 1654 Fit       0.000853
 1655 Fit       0.001813
 1656 Fit       0.002471
 1657 Fit       0.002213
 1658 Fit      -0.000194
 1659 Fit      -0.000257
 1660 Fit       0.000158
 1661 Fit       0.001403
 1662 Fit       0.002526
 1663 Fit       0.002996
 1664 Fit       0.002973
 1665 Fit       0.001313
 1666 Fit       0.003087
 1667 Fit       0.003485
 1668 Fit       0.003498
 1669 Fit       0.003249
 1670 Fit       0.002367
 1671 Fit       0.002681
 1672 Fit       0.001583
 1673 Fit       0.000353
 1674 Fit       0.003458
 1675 Fit       0.002717
 1676 Fit       0.001957
 1677 Fit       0.001324
 1678 Fit       0.003041
 1679 Fit       0.002811
 1680 Fit       0.002446
 1681 Fit       0.001316
 1682 Fit       0.002337
 1683 Fit       0.001791
 1684 Fit       0.002298
 1685 Fit       0.002678
 1686 Fit       0.002393
 1687 Fit       0.001718
 1688 Fit       0.001925
 1689 Fit       0.001843
 1690 Fit       0.001691
 1691 Fit       0.001438
 1692 Fit       0.002459
 1693 Fit       0.002812
 1694 Fit       0.002542
 1695 Fit       0.002162
 1696 Fit       0.000086
 1697 Fit      -0.000571
 1698 Fit       0.002478
 1699 Fit       0.001289
 1700 Fit       0.003099
 1701 Fit       0.002950
 1702 Fit       0.001757
 1703 Fit       0.003754
 1704 Fit       0.003904
 1705 Fit       0.003088
 1706 Fit       0.001159
 1707 Fit       0.001347
 1708 Fit       0.001665
 1709 Fit       0.000197
 1710 Fit       0.001598
 1711 Fit       0.002488
 1712 Fit       0.002168
 1713 Fit       0.002864
 1714 Fit       0.003144
 1715 Fit       0.003398
 1716 Fit       0.003078
 1717 Fit       0.003086
 1718 Fit       0.002850
 1719 Fit       0.002219
 1720 Fit       0.003141
 1721 Fit       0.002506
 1722 Fit       0.002925
 1723 Fit       0.003309
 1724 Fit       0.003832
 1725 Fit       0.001917
 1726 Fit       0.001974
 1727 Fit       0.002658
 1728 Fit       0.003513
 1729 Fit      -0.000576
 1730 Fit      -0.000844
 1731 Fit       0.000605
 1732 Fit       0.002492
 1733 Fit       0.003107
 1734 Fit       0.003682
 1735 Fit       0.004058
 1736 Fit       0.002655
 1737 Fit       0.002962
 1738 Fit       0.003437
 1739 Fit       0.001252
 1740 Fit       0.001293
 1741 Fit       0.001957
 1742 Fit       0.003061
 1743 Fit       0.001345
 1744 Fit       0.002182
 1745 Fit       0.001263
 1746 Fit       0.001698
 1747 Fit       0.002137
 1748 Fit       0.001086
 1749 Fit       0.001655
 1750 Fit       0.000761
 1751 Fit      -0.000346
 1752 Fit      -0.000227
 1753 Fit      -0.000454
 1754 Fit      -0.000419
 1755 Fit       0.000486
 1756 Fit       0.000075
 1757 Fit       0.001665
 1758 Fit       0.001024
 1759 Fit       0.002067
 1760 Fit       0.000748
 1761 Fit       0.002328
 1762 Fit       0.000778
 1763 Fit       0.002549
 1764 Fit       0.000939
 1765 Fit       0.002283
 1766 Fit       0.002472
 1767 Fit       0.001086
 1768 Fit       0.002474
 1769 Fit       0.001636
 1770 Fit       0.002391
 1771 Fit       0.004285
 1772 Fit       0.002348
 1773 Fit       0.003171
 1774 Fit       0.004026
 1775 Fit       0.000592
 1776 Fit       0.001487
 1777 Fit       0.002445
 1778 Fit      -0.007860
 1779 Fit       0.000015
 1780 Fit      -0.000231
 1781 Fit       0.002771
 1782 Fit       0.002548
 1783 Fit       0.002660
 1784 Fit       0.002215
 1785 Fit       0.001545
 1786 Fit       0.002453
 1787 Fit       0.001862
 1788 Fit       0.001264
 1789 Fit       0.000607
 1790 Fit       0.000681
 1791 Fit       0.000405
 1792 Fit       0.002033
 1793 Fit       0.003214
 1794 Fit       0.003393
 1795 Fit       0.003509
 1796 Fit       0.001022
 1797 Fit       0.001822
 1798 Fit       0.001754
 1799 Fit       0.000818
 1800 Fit      -0.000501
 1801 Fit       0.001276
 1802 Fit      -0.000948
 1803 Fit      -0.004686
 1804 Fit      -0.004758
 1805 Fit      -0.002018
 1806 Fit       0.001148
 1807 Fit      -0.002362
 1808 Fit      -0.003580
 1809 Fit      -0.007173
 1810 Fit      -0.003480
 1811 Fit       0.005390
 1812 Fit       0.004384
 1813 Fit       0.002691
 1814 Fit       0.004733
 1815 Fit       0.006547
 1816 Fit       0.005504
 1817 Fit       0.002847
 1818 Fit       0.003323
 1819 Fit       0.005801
 1820 Fit       0.008254
 1821 Fit       0.006980
 1822 Fit       0.003330
 1823 Fit       0.003630
 1824 Fit       0.007094
 1825 Fit       0.001080
 1826 Fit      -0.000062
 1827 Fit      -0.005562
 1828 Fit      -0.001157
 1829 Fit      -0.001600
 1830 Fit      -0.001642
 1831 Fit      -0.001714
 1832 Fit      -0.001632
 1833 Fit       0.002429
 1834 Fit       0.000633
 1835 Fit       0.003008
 1836 Fit       0.002767
 1837 Fit       0.001753
 1838 Fit       0.000049
 1839 Fit       0.002371
 1840 Fit       0.001336
 1841 Fit      -0.000290
 1842 Fit       0.000307
 1843 Fit      -0.001165
 1844 Fit      -0.001918
 1845 Fit      -0.001305
 1846 Fit      -0.000627
 1847 Fit      -0.001482
 1848 Fit      -0.000918
 1849 Fit      -0.000592
 1850 Fit      -0.001579
 1851 Fit      -0.002690
 1852 Fit       0.002960
 1853 Fit       0.001431
 1854 Fit       0.002292
 1855 Fit       0.001562
 1856 Fit       0.001193
 1857 Fit       0.000282
 1858 Fit      -0.002033
 1859 Fit      -0.000786
 1860 Fit      -0.001351
 1861 Fit      -0.004826
 1862 Fit      -0.000944
 1863 Fit       0.001151
 1864 Fit       0.010269
 1865 Fit       0.010558
 1866 Fit       0.008351
 1867 Fit       0.004212
 1868 Fit       0.007936
 1869 Fit       0.014206
 1870 Fit       0.016607
 1871 Fit       0.005030
 1872 Fit       0.009961
 1873 Fit      -0.004932
 1874 Fit      -0.000992
 1875 Fit      -0.001270
 1876 Fit      -0.000794
 1877 Fit      -0.000260
 1878 Fit      -0.001074
 1879 Fit      -0.000814
 1880 Fit      -0.003550
 1881 Fit      -0.004578
 1882 Fit      -0.003840
 1883 Fit      -0.012921
 1884 Fit      -0.002087
 1885 Fit      -0.002660
 1886 Fit      -0.020460
 1887 Fit      -0.001067
 1888 Fit      -0.001358
 1889 Fit      -0.001546
 1890 Fit      -0.004959
 1891 Fit      -0.003944
 1892 Fit      -0.004376
 1893 Fit      -0.007235
 1894 Fit      -0.016710
 1895 Fit      -0.008767
 1896 Fit      -0.010199
 1897 Fit      -0.020734
 1898 Fit      -0.017446
 1899 Fit      -0.000204
 1900 Fit       0.000109
 1901 Fit      -0.006662
 1902 Fit      -0.002711
 1903 Fit      -0.001125
 1904 Fit      -0.000687
 1905 Fit      -0.000786
 1906 Fit      -0.007725
 1907 Fit      -0.003717
 1908 Fit      -0.002650
 1909 Fit      -0.003292
 1910 Fit      -0.012120
 1911 Fit      -0.006767
 1912 Fit      -0.007701
 1913 Fit      -0.013970
 1914 Fit       0.000268
 1915 Fit      -0.000133
 1916 Fit       0.000357
 1917 Fit       0.001690
 1918 Fit       0.000977
 1919 Fit      -0.000279
 1920 Fit       0.002512
 1921 Fit       0.001409
 1922 Fit       0.001600
 1923 Fit       0.001329
 1924 Fit       0.001623
 1925 Fit       0.000667
 1926 Fit       0.001579
 1927 Fit       0.001277
 1928 Fit      -0.000152
 1929 Fit       0.001320
 1930 Fit       0.002051
 1931 Fit       0.001492
 1932 Fit       0.001691
 1933 Fit      -0.009693
 1934 Fit       0.003596
 1935 Fit       0.002310
 1936 Fit       0.002187
 1937 Fit       0.012555
 1938 Fit       0.006747
 1939 Fit       0.003796
 1940 Fit       0.002549
 1941 Fit       0.002491
 1942 Fit       0.006906
 1943 Fit       0.002165
 1944 Fit       0.000449
 1945 Fit       0.000139
 1946 Fit      -0.004673
 1947 Fit      -0.005104
 1948 Fit       0.000587
 1949 Fit      -0.000044
 1950 Fit      -0.000900
 1951 Fit      -0.000947
 1952 Fit      -0.000327
 1953 Fit      -0.000430
 1954 Fit      -0.000307
 1955 Fit       0.002216
 1956 Fit       0.002016
 1957 Fit       0.000825
 1958 Fit       0.000311
 1959 Fit       0.003477
 1960 Fit       0.002656
 1961 Fit       0.002236
 1962 Fit       0.001962
 1963 Fit       0.001261
 1964 Fit       0.000315
 1965 Fit       0.000779
 1966 Fit       0.000586
 1967 Fit       0.000946
 1968 Fit       0.002520
 1969 Fit       0.000511
 1970 Fit       0.001882
 1971 Fit       0.003410
 1972 Fit       0.002830
 1973 Fit       0.000301
 1974 Fit      -0.000262
 1975 Fit      -0.000113
 1976 Fit       0.000339
 1977 Fit       0.001570
 1978 Fit       0.000885
 1979 Fit       0.002024
 1980 Fit       0.000897
 1981 Fit       0.000636
 1982 Fit       0.000410
 1983 Fit       0.001712
 1984 Fit       0.001287
 1985 Fit       0.000174
 1986 Fit      -0.000240
 1987 Fit       0.000894
 1988 Fit       0.001906
 1989 Fit       0.001026
 1990 Fit       0.003222
 1991 Fit       0.002085
 1992 Fit       0.004007
 1993 Fit       0.002202
 1994 Fit       0.001037
 1995 Fit       0.001460
 1996 Fit       0.000330
 1997 Fit       0.000160
 1998 Fit       0.002501
 1999 Fit       0.002613
 2000 Fit       0.001308
 2001 Fit       0.002133
 2002 Fit       0.001249
 2003 Fit       0.001734
 2004 Fit       0.001987
 2005 Fit       0.001050
 2006 Fit       0.001112
 2007 Fit       0.000978
 2008 Fit       0.000220
 2009 Fit      -0.000222
 2010 Fit      -0.001234
 2011 Fit       0.001153
 2012 Fit       0.001311
 2013 Fit       0.001757
 2014 Fit       0.002738
 2015 Fit       0.002053
 2016 Fit       0.001283
 2017 Fit      -0.001887
 2018 Fit      -0.002020
 2019 Fit      -0.002405
 2020 Fit      -0.002163
 2021 Fit      -0.002441
 2022 Fit      -0.002218
 2023 Fit      -0.001759
 2024 Fit      -0.001388
 2025 Fit      -0.000868
 2026 Fit       0.000349
 2027 Fit      -0.000258
 2028 Fit      -0.000820
 2029 Fit      -0.000969
 2030 Fit      -0.000845
 2031 Fit      -0.000548
 2032 Fit      -0.000178
 2033 Fit       0.000084
 2034 Fit       0.002136
 2035 Fit       0.000910
 2036 Fit       0.000657
 2037 Fit       0.000879
 2038 Fit       0.001072
 2039 Fit       0.001631
 2040 Fit       0.000008
 2041 Fit       0.001532
 2042 Fit       0.002356
 2043 Fit      -0.000552
 2044 Fit       0.000837
 2045 Fit       0.001625
 2046 Fit       0.001774
 2047 Fit       0.001514
 2048 Fit      -0.001405
 2049 Fit      -0.000123
 2050 Fit       0.000558
 2051 Fit       0.000615
 2052 Fit       0.000406
 2053 Fit      -0.001281
 2054 Fit      -0.000951
 2055 Fit      -0.001619
 2056 Fit       0.001411
 2057 Fit       0.000005
 2058 Fit      -0.001648
 2059 Fit       0.001815
 2060 Fit       0.001077
 2061 Fit      -0.000169
 2062 Fit      -0.001710
 2063 Fit       0.000904
 2064 Fit       0.000408
 2065 Fit      -0.000712
 2066 Fit      -0.000943
 2067 Fit      -0.000709
 2068 Fit      -0.001513
 2069 Fit      -0.002028
 2070 Fit      -0.001629
 2071 Fit      -0.001912
 2072 Fit      -0.002068
 2073 Fit      -0.001597
 2074 Fit      -0.001626
 2075 Fit      -0.000895
 2076 Fit      -0.001152
 2077 Fit       0.000035
 2078 Fit      -0.001771
 2079 Fit      -0.000735
 2080 Fit      -0.001879
 2081 Fit      -0.000012
 2082 Fit      -0.001144
 2083 Fit      -0.000098
 2084 Fit      -0.000350
 2085 Fit       0.000716
 2086 Fit       0.000975
 2087 Fit      -0.000430
 2088 Fit       0.000980
 2089 Fit       0.001845
 2090 Fit       0.002050
 2091 Fit      -0.000055
 2092 Fit       0.000928
 2093 Fit       0.001223
 2094 Fit      -0.000926
 2095 Fit       0.000054
 2096 Fit      -0.000795
 2097 Fit       0.000007
 2098 Fit       0.001193
 2099 Fit       0.001221
 2100 Fit       0.000205
 2101 Fit       0.000016
 2102 Fit       0.001632
 2103 Fit       0.002113
 2104 Fit       0.001622
 2105 Fit       0.000525
 2106 Fit       0.002663
 2107 Fit       0.001795
 2108 Fit       0.000924
 2109 Fit      -0.000977
 2110 Fit      -0.000395
 2111 Fit      -0.001485
 2112 Fit      -0.000097
 2113 Fit       0.000827
 2114 Fit       0.000945
 2115 Fit      -0.000038
 2116 Fit      -0.001637
 2117 Fit       0.000364
 2118 Fit       0.001398
 2119 Fit       0.001919
 2120 Fit       0.001541
 2121 Fit       0.000210
 2122 Fit      -0.001701
 2123 Fit       0.002513
 2124 Fit       0.002273
 -----------------------------------------------------------------
 Leave Link  602 at Tue Mar 21 12:16:55 2017, MaxMem=    33554432 cpu:         3.8
 (Enter /home/michal/g09/l9999.exe)

 Test job not archived.
 1\1\GINC-LINUX\SP\RHF\6-31G(d)\C27H46O1\MICHAL\21-Mar-2017\0\\#P HF/6-
 31G* SCF(Conver=6) NoSymm Test Pop=mk IOp(6/33=2) GFInput GFPrint\\MEP
  - Input generated by R.E.D.-III.x MOLECULE\\0,1\O,0,4.98858037,-0.240
 07493,-7.25918717\H,0,5.94027321,-0.32517762,-7.11432158\C,0,0.,0.,0.\
 C,0,1.55462545,0.,0.\H,0,1.84038708,1.06611212,0.\C,0,2.21301181,-0.60
 376353,-1.24730565\H,0,1.94770081,-1.66833717,-1.31639914\C,0,1.708739
 57,0.13032551,-2.51739724\H,0,2.11531865,1.15288498,-2.44664721\C,0,-0
 .26699347,0.64444042,1.40480979\H,0,-0.00618239,1.70794331,1.2962993\C
 ,0,-0.43565164,0.82133393,-1.23094292\H,0,-0.10999167,1.86254174,-1.09
 215024\H,0,-1.52503923,0.84739117,-1.33606997\C,0,2.30193711,-0.471806
 86,-3.83951187\C,0,1.93854095,-0.55096544,1.38241499\H,0,2.93128286,-0
 .21897783,1.70238128\H,0,1.96174806,-1.64778698,1.37014188\C,0,0.16821
 554,0.26348344,-2.53663927\H,0,-0.28689409,-0.71126893,-2.74145992\H,0
 ,-0.13480334,0.91554163,-3.36367359\C,0,0.81245511,-0.02686758,2.31677
 313\H,0,0.36815686,-0.85163939,2.88628449\H,0,1.19860991,0.68206418,3.
 05580712\C,0,3.74482151,-0.50578225,-1.16249682\H,0,4.12979867,-1.2330
 229,-0.43528127\H,0,4.02797861,0.48249365,-0.76331748\C,0,-1.68738847,
 0.57862267,2.01845094\H,0,-1.93917163,-0.48603299,2.13509985\C,0,-0.59
 376594,-1.42617712,-0.05918567\H,0,-1.6872441,-1.38710486,-0.10831585\
 H,0,-0.25241447,-1.98260849,-0.9355261\H,0,-0.32861448,-2.01856419,0.8
 2180771\C,0,3.80784222,-0.72284381,-3.67735437\C,0,2.10322652,0.562802
 96,-4.99077681\H,0,2.42791729,1.54737088,-4.62614679\H,0,1.03576074,0.
 65305174,-5.21957659\C,0,4.4240012,-0.71571325,-2.48608337\H,0,5.50224
 081,-0.87691863,-2.45647797\C,0,1.61128386,-1.80892793,-4.22006069\H,0
 ,0.57138771,-1.65021081,-4.52252272\H,0,2.11728961,-2.29829364,-5.0559
 742\H,0,1.62134663,-2.51160988,-3.38111329\C,0,4.59360749,-0.9854222,-
 4.94862499\H,0,5.66264609,-1.05616321,-4.70984048\H,0,4.30488171,-1.94
 802127,-5.39397798\C,0,2.86620652,0.24570535,-6.2851629\H,0,2.49954951
 ,-0.68049348,-6.74511205\H,0,2.7074245,1.04433171,-7.01868309\C,0,-1.7
 2965546,1.14777794,3.46675658\H,0,-2.75639308,1.03404072,3.83903041\H,
 0,-1.12173093,0.48910012,4.09838137\C,0,4.35753964,0.09255989,-6.01638
 151\H,0,4.75502217,1.05314355,-5.64888348\C,0,-2.7781119,1.19191471,1.
 11920489\H,0,-2.50716718,2.19018101,0.761306\H,0,-3.72446197,1.2788641
 5,1.66466708\H,0,-2.96926189,0.57153555,0.23943747\C,0,-1.246144,2.592
 36422,3.72883909\H,0,-1.05636457,2.68026178,4.80639682\H,0,-0.26724718
 ,2.74062423,3.2557304\C,0,-2.16177503,3.75853474,3.30369562\H,0,-2.271
 36112,3.76784015,2.21311058\H,0,-1.6464362,4.69712539,3.55828555\C,0,-
 3.56920862,3.80585434,3.93581838\H,0,-4.09794605,2.87841131,3.67403138
 \C,0,-4.37455744,4.97478927,3.34564088\H,0,-4.44935563,4.89824886,2.25
 481344\H,0,-5.39260852,5.00181722,3.75074001\H,0,-3.89811708,5.9355237
 1,3.5798869\C,0,-3.52393815,3.90329256,5.46915926\H,0,-3.03278679,3.03
 737109,5.92453405\H,0,-4.53533812,3.96507624,5.88677578\H,0,-2.9784876
 7,4.80181226,5.78630997\\Version=EM64L-G09RevD.01\HF=-1124.0729172\RMS
 D=4.568e-07\Dipole=0.2019999,0.0217629,0.6372041\Quadrupole=10.3325646
 ,2.4203157,-12.7528803,1.1303781,2.7456807,-1.4620382\PG=C01 [X(C27H46
 O1)]\\@


 EVERYBODY NEEDS BEAUTY AS WELL AS BREAD, PLACES TO PLAY IN AND PRAY IN,
 WHERE NATURE MAY HEAL AND CHEER AND GIVE STRENGTH TO BODY AND SOUL ALIKE.

                                    -- JOHN MUIR
 Job cpu time:       0 days  0 hours 10 minutes 49.2 seconds.
 File lengths (MBytes):  RWF=    142 Int=      0 D2E=      0 Chk=     10 Scr=      1
 Normal termination of Gaussian 09 at Tue Mar 21 12:16:55 2017.
