 Entering Gaussian System, Link 0=/home/michal/g09/g09
 Input=JOB2-gau_m1-22-2.com
 Output=JOB2-gau_m1-22-2.log
 Initial command:
 /home/michal/g09/l1.exe "/home/michal/gauss_scratch/Gau-22746.inp" -scrdir="/home/michal/gauss_scratch/"
 Entering Link 1 = /home/michal/g09/l1.exe PID=     22747.
  
 Copyright (c) 1988,1990,1992,1993,1995,1998,2003,2009,2013,
            Gaussian, Inc.  All Rights Reserved.
  
 This is part of the Gaussian(R) 09 program.  It is based on
 the Gaussian(R) 03 system (copyright 2003, Gaussian, Inc.),
 the Gaussian(R) 98 system (copyright 1998, Gaussian, Inc.),
 the Gaussian(R) 94 system (copyright 1995, Gaussian, Inc.),
 the Gaussian 92(TM) system (copyright 1992, Gaussian, Inc.),
 the Gaussian 90(TM) system (copyright 1990, Gaussian, Inc.),
 the Gaussian 88(TM) system (copyright 1988, Gaussian, Inc.),
 the Gaussian 86(TM) system (copyright 1986, Carnegie Mellon
 University), and the Gaussian 82(TM) system (copyright 1983,
 Carnegie Mellon University). Gaussian is a federally registered
 trademark of Gaussian, Inc.
  
 This software contains proprietary and confidential information,
 including trade secrets, belonging to Gaussian, Inc.
  
 This software is provided under written license and may be
 used, copied, transmitted, or stored only in accord with that
 written license.
  
 The following legend is applicable only to US Government
 contracts under FAR:
  
                    RESTRICTED RIGHTS LEGEND
  
 Use, reproduction and disclosure by the US Government is
 subject to restrictions as set forth in subparagraphs (a)
 and (c) of the Commercial Computer Software - Restricted
 Rights clause in FAR 52.227-19.
  
 Gaussian, Inc.
 340 Quinnipiac St., Bldg. 40, Wallingford CT 06492
  
  
 ---------------------------------------------------------------
 Warning -- This program may not be used in any manner that
 competes with the business of Gaussian, Inc. or will provide
 assistance to any competitor of Gaussian, Inc.  The licensee
 of this program is prohibited from giving any competitor of
 Gaussian, Inc. access to this program.  By using this program,
 the user acknowledges that Gaussian, Inc. is engaged in the
 business of creating and licensing software in the field of
 computational chemistry and represents and warrants to the
 licensee that it is not a competitor of Gaussian, Inc. and that
 it will not use this program in any manner prohibited above.
 ---------------------------------------------------------------
  

 Cite this work as:
 Gaussian 09, Revision D.01,
 M. J. Frisch, G. W. Trucks, H. B. Schlegel, G. E. Scuseria, 
 M. A. Robb, J. R. Cheeseman, G. Scalmani, V. Barone, B. Mennucci, 
 G. A. Petersson, H. Nakatsuji, M. Caricato, X. Li, H. P. Hratchian, 
 A. F. Izmaylov, J. Bloino, G. Zheng, J. L. Sonnenberg, M. Hada, 
 M. Ehara, K. Toyota, R. Fukuda, J. Hasegawa, M. Ishida, T. Nakajima, 
 Y. Honda, O. Kitao, H. Nakai, T. Vreven, J. A. Montgomery, Jr., 
 J. E. Peralta, F. Ogliaro, M. Bearpark, J. J. Heyd, E. Brothers, 
 K. N. Kudin, V. N. Staroverov, T. Keith, R. Kobayashi, J. Normand, 
 K. Raghavachari, A. Rendell, J. C. Burant, S. S. Iyengar, J. Tomasi, 
 M. Cossi, N. Rega, J. M. Millam, M. Klene, J. E. Knox, J. B. Cross, 
 V. Bakken, C. Adamo, J. Jaramillo, R. Gomperts, R. E. Stratmann, 
 O. Yazyev, A. J. Austin, R. Cammi, C. Pomelli, J. W. Ochterski, 
 R. L. Martin, K. Morokuma, V. G. Zakrzewski, G. A. Voth, 
 P. Salvador, J. J. Dannenberg, S. Dapprich, A. D. Daniels, 
 O. Farkas, J. B. Foresman, J. V. Ortiz, J. Cioslowski, 
 and D. J. Fox, Gaussian, Inc., Wallingford CT, 2013.
 
 ******************************************
 Gaussian 09:  EM64L-G09RevD.01 24-Apr-2013
                21-Mar-2017 
 ******************************************
 %Mem=256MB
 %NProc=12
 Will use up to   12 processors via shared memory.
 ----------------------------------------------------------------------
 #P HF/6-31G* SCF(Conver=6) NoSymm Test Pop=mk IOp(6/33=2) GFInput GFPr
 int
 ----------------------------------------------------------------------
 1/38=1/1;
 2/12=2,15=1,17=6,18=5,40=1/2;
 3/5=1,6=6,7=1,11=9,16=1,24=110,25=1,30=1/1,2,3;
 4//1;
 5/5=2,6=6,38=5/2;
 6/7=2,8=2,9=2,10=2,15=8,20=1,28=1,33=2/1,2;
 99/5=1,9=1/99;
 Leave Link    1 at Tue Mar 21 13:03:27 2017, MaxMem=    33554432 cpu:         0.6
 (Enter /home/michal/g09/l101.exe)
 ----------------------------------------------
 MEP - Input generated by R.E.D.-III.x MOLECULE
 ----------------------------------------------
 Symbolic Z-matrix:
 Charge =  0 Multiplicity = 1
 O                     0.43896  -3.39504   7.25057 
 H                     0.27667  -4.33625   7.10315 
 C                     1.50756   1.50158   0. 
 C                     1.10387   0.        0. 
 H                     0.        0.        0. 
 C                     1.51743  -0.79433   1.24599 
 H                     2.61435  -0.8125    1.31564 
 C                     0.93842  -0.12006   2.51697 
 H                    -0.15468  -0.24591   2.44484 
 C                     0.95229   1.93328  -1.40253 
 H                    -0.14273   1.9864   -1.29249 
 C                     0.82931   2.13204   1.23442 
 H                    -0.26079   2.08825   1.09604 
 H                     1.08547   3.19059   1.34354 
 C                     1.36383  -0.8517    3.8384 
 C                     1.53557  -0.51064  -1.38232 
 H                     0.97386  -1.39628  -1.69575 
 H                     2.59528  -0.79464  -1.37694 
 C                     1.21202   1.40156   2.53837 
 H                     2.27227   1.58579   2.74197 
 H                     0.66297   1.8634    3.3668 
 C                     1.28614   0.70459  -2.31697 
 H                     2.17157   0.9145   -2.92883 
 H                     0.46924   0.50442  -3.01668 
 C                     1.02828  -2.24904   1.15778 
 H                     1.633    -2.80697   0.43048 
 H                     0.00106  -2.26752   0.75693 
 C                     1.40291   3.27917  -2.02915 
 H                     2.4863    3.21506  -2.20287 
 C                     3.03965   1.70208   0.05453 
 H                     3.28843   2.76711   0.10876 
 H                     3.49088   1.22104   0.92579 
 H                     3.53777   1.2971   -0.83165 
 C                     1.2183   -2.37102   3.67273 
 C                     0.4123   -0.39559   4.9882 
 H                    -0.62174  -0.45544   4.62094 
 H                     0.59915   0.65873   5.21947 
 C                     1.05418  -2.96195   2.47997 
 H                     0.93174  -4.04522   2.44798 
 C                     2.83283  -0.53      4.22336 
 H                     2.94684   0.51493   4.52865 
 H                     3.17328  -1.14702   5.05859 
 H                     3.51119  -0.71883   3.38555 
 C                     1.26649  -3.20071   4.94236 
 H                     1.0597   -4.25131   4.70079 
 H                     2.26987  -3.17104   5.39024 
 C                     0.51918  -1.21709   6.28121 
 H                     1.50755  -1.10252   6.74355 
 H                    -0.21316  -0.85932   7.01384 
 C                     0.71169   3.47304  -3.40351 
 H                     0.87552   2.57985  -4.01762 
 H                    -0.37398   3.52946  -3.23324 
 C                     0.28328  -2.69693   6.00885 
 H                    -0.74641  -2.8325    5.63855 
 C                     1.13846   4.4925   -1.12154 
 H                     0.0761    4.56017  -0.85472 
 H                     1.41354   5.42747  -1.61901 
 H                     1.71272   4.44603  -0.19385 
 C                     1.13924   4.69673  -4.23861 
 H                     0.51231   4.71003  -5.13914 
 H                     0.9055    5.62276  -3.70051 
 C                     2.62082   4.68779  -4.65007 
 H                     2.84934   3.71787  -5.11617 
 H                     3.24847   4.7461   -3.75076 
 C                     3.07079   5.80829  -5.6178 
 H                     4.14721   5.65031  -5.78106 
 C                     2.90761   7.21294  -5.01348 
 H                     3.39977   7.28695  -4.03652 
 H                     3.34989   7.97273  -5.66795 
 H                     1.85182   7.47397  -4.87718 
 C                     2.38995   5.71658  -6.99362 
 H                     2.51062   4.71921  -7.43271 
 H                     2.82322   6.44274  -7.69092 
 H                     1.31608   5.92676  -6.93053 
 
 NAtoms=     74 NQM=       74 NQMF=       0 NMMI=      0 NMMIF=      0
                NMic=       0 NMicF=      0.
                    Isotopes and Nuclear Properties:
 (Nuclear quadrupole moments (NQMom) in fm**2, nuclear magnetic moments (NMagM)
  in nuclear magnetons)

  Atom         1           2           3           4           5           6           7           8           9          10
 IAtWgt=          16           1          12          12           1          12           1          12           1          12
 AtmWgt=  15.9949146   1.0078250  12.0000000  12.0000000   1.0078250  12.0000000   1.0078250  12.0000000   1.0078250  12.0000000
 NucSpn=           0           1           0           0           1           0           1           0           1           0
 AtZEff=   0.0000000   0.0000000   0.0000000   0.0000000   0.0000000   0.0000000   0.0000000   0.0000000   0.0000000   0.0000000
 NQMom=    0.0000000   0.0000000   0.0000000   0.0000000   0.0000000   0.0000000   0.0000000   0.0000000   0.0000000   0.0000000
 NMagM=    0.0000000   2.7928460   0.0000000   0.0000000   2.7928460   0.0000000   2.7928460   0.0000000   2.7928460   0.0000000
 AtZNuc=   8.0000000   1.0000000   6.0000000   6.0000000   1.0000000   6.0000000   1.0000000   6.0000000   1.0000000   6.0000000

  Atom        11          12          13          14          15          16          17          18          19          20
 IAtWgt=           1          12           1           1          12          12           1           1          12           1
 AtmWgt=   1.0078250  12.0000000   1.0078250   1.0078250  12.0000000  12.0000000   1.0078250   1.0078250  12.0000000   1.0078250
 NucSpn=           1           0           1           1           0           0           1           1           0           1
 AtZEff=   0.0000000   0.0000000   0.0000000   0.0000000   0.0000000   0.0000000   0.0000000   0.0000000   0.0000000   0.0000000
 NQMom=    0.0000000   0.0000000   0.0000000   0.0000000   0.0000000   0.0000000   0.0000000   0.0000000   0.0000000   0.0000000
 NMagM=    2.7928460   0.0000000   2.7928460   2.7928460   0.0000000   0.0000000   2.7928460   2.7928460   0.0000000   2.7928460
 AtZNuc=   1.0000000   6.0000000   1.0000000   1.0000000   6.0000000   6.0000000   1.0000000   1.0000000   6.0000000   1.0000000

  Atom        21          22          23          24          25          26          27          28          29          30
 IAtWgt=           1          12           1           1          12           1           1          12           1          12
 AtmWgt=   1.0078250  12.0000000   1.0078250   1.0078250  12.0000000   1.0078250   1.0078250  12.0000000   1.0078250  12.0000000
 NucSpn=           1           0           1           1           0           1           1           0           1           0
 AtZEff=   0.0000000   0.0000000   0.0000000   0.0000000   0.0000000   0.0000000   0.0000000   0.0000000   0.0000000   0.0000000
 NQMom=    0.0000000   0.0000000   0.0000000   0.0000000   0.0000000   0.0000000   0.0000000   0.0000000   0.0000000   0.0000000
 NMagM=    2.7928460   0.0000000   2.7928460   2.7928460   0.0000000   2.7928460   2.7928460   0.0000000   2.7928460   0.0000000
 AtZNuc=   1.0000000   6.0000000   1.0000000   1.0000000   6.0000000   1.0000000   1.0000000   6.0000000   1.0000000   6.0000000

  Atom        31          32          33          34          35          36          37          38          39          40
 IAtWgt=           1           1           1          12          12           1           1          12           1          12
 AtmWgt=   1.0078250   1.0078250   1.0078250  12.0000000  12.0000000   1.0078250   1.0078250  12.0000000   1.0078250  12.0000000
 NucSpn=           1           1           1           0           0           1           1           0           1           0
 AtZEff=   0.0000000   0.0000000   0.0000000   0.0000000   0.0000000   0.0000000   0.0000000   0.0000000   0.0000000   0.0000000
 NQMom=    0.0000000   0.0000000   0.0000000   0.0000000   0.0000000   0.0000000   0.0000000   0.0000000   0.0000000   0.0000000
 NMagM=    2.7928460   2.7928460   2.7928460   0.0000000   0.0000000   2.7928460   2.7928460   0.0000000   2.7928460   0.0000000
 AtZNuc=   1.0000000   1.0000000   1.0000000   6.0000000   6.0000000   1.0000000   1.0000000   6.0000000   1.0000000   6.0000000

  Atom        41          42          43          44          45          46          47          48          49          50
 IAtWgt=           1           1           1          12           1           1          12           1           1          12
 AtmWgt=   1.0078250   1.0078250   1.0078250  12.0000000   1.0078250   1.0078250  12.0000000   1.0078250   1.0078250  12.0000000
 NucSpn=           1           1           1           0           1           1           0           1           1           0
 AtZEff=   0.0000000   0.0000000   0.0000000   0.0000000   0.0000000   0.0000000   0.0000000   0.0000000   0.0000000   0.0000000
 NQMom=    0.0000000   0.0000000   0.0000000   0.0000000   0.0000000   0.0000000   0.0000000   0.0000000   0.0000000   0.0000000
 NMagM=    2.7928460   2.7928460   2.7928460   0.0000000   2.7928460   2.7928460   0.0000000   2.7928460   2.7928460   0.0000000
 AtZNuc=   1.0000000   1.0000000   1.0000000   6.0000000   1.0000000   1.0000000   6.0000000   1.0000000   1.0000000   6.0000000

  Atom        51          52          53          54          55          56          57          58          59          60
 IAtWgt=           1           1          12           1          12           1           1           1          12           1
 AtmWgt=   1.0078250   1.0078250  12.0000000   1.0078250  12.0000000   1.0078250   1.0078250   1.0078250  12.0000000   1.0078250
 NucSpn=           1           1           0           1           0           1           1           1           0           1
 AtZEff=   0.0000000   0.0000000   0.0000000   0.0000000   0.0000000   0.0000000   0.0000000   0.0000000   0.0000000   0.0000000
 NQMom=    0.0000000   0.0000000   0.0000000   0.0000000   0.0000000   0.0000000   0.0000000   0.0000000   0.0000000   0.0000000
 NMagM=    2.7928460   2.7928460   0.0000000   2.7928460   0.0000000   2.7928460   2.7928460   2.7928460   0.0000000   2.7928460
 AtZNuc=   1.0000000   1.0000000   6.0000000   1.0000000   6.0000000   1.0000000   1.0000000   1.0000000   6.0000000   1.0000000

  Atom        61          62          63          64          65          66          67          68          69          70
 IAtWgt=           1          12           1           1          12           1          12           1           1           1
 AtmWgt=   1.0078250  12.0000000   1.0078250   1.0078250  12.0000000   1.0078250  12.0000000   1.0078250   1.0078250   1.0078250
 NucSpn=           1           0           1           1           0           1           0           1           1           1
 AtZEff=   0.0000000   0.0000000   0.0000000   0.0000000   0.0000000   0.0000000   0.0000000   0.0000000   0.0000000   0.0000000
 NQMom=    0.0000000   0.0000000   0.0000000   0.0000000   0.0000000   0.0000000   0.0000000   0.0000000   0.0000000   0.0000000
 NMagM=    2.7928460   0.0000000   2.7928460   2.7928460   0.0000000   2.7928460   0.0000000   2.7928460   2.7928460   2.7928460
 AtZNuc=   1.0000000   6.0000000   1.0000000   1.0000000   6.0000000   1.0000000   6.0000000   1.0000000   1.0000000   1.0000000

  Atom        71          72          73          74
 IAtWgt=          12           1           1           1
 AtmWgt=  12.0000000   1.0078250   1.0078250   1.0078250
 NucSpn=           0           1           1           1
 AtZEff=   0.0000000   0.0000000   0.0000000   0.0000000
 NQMom=    0.0000000   0.0000000   0.0000000   0.0000000
 NMagM=    0.0000000   2.7928460   2.7928460   2.7928460
 AtZNuc=   6.0000000   1.0000000   1.0000000   1.0000000
 Leave Link  101 at Tue Mar 21 13:03:27 2017, MaxMem=    33554432 cpu:         1.0
 (Enter /home/michal/g09/l202.exe)
 Symmetry turned off by external request.
 Stoichiometry    C27H46O
 Framework group  C1[X(C27H46O)]
 Deg. of freedom   216
 Full point group                 C1      NOp   1
                          Input orientation:                          
 ---------------------------------------------------------------------
 Center     Atomic      Atomic             Coordinates (Angstroms)
 Number     Number       Type             X           Y           Z
 ---------------------------------------------------------------------
      1          8           0        0.438964   -3.395038    7.250568
      2          1           0        0.276665   -4.336245    7.103154
      3          6           0        1.507560    1.501579    0.000000
      4          6           0        1.103870    0.000000    0.000000
      5          1           0        0.000000    0.000000    0.000000
      6          6           0        1.517429   -0.794326    1.245995
      7          1           0        2.614352   -0.812502    1.315637
      8          6           0        0.938421   -0.120059    2.516973
      9          1           0       -0.154683   -0.245911    2.444844
     10          6           0        0.952292    1.933281   -1.402529
     11          1           0       -0.142734    1.986397   -1.292490
     12          6           0        0.829306    2.132043    1.234417
     13          1           0       -0.260790    2.088251    1.096037
     14          1           0        1.085469    3.190591    1.343536
     15          6           0        1.363833   -0.851701    3.838402
     16          6           0        1.535567   -0.510642   -1.382315
     17          1           0        0.973858   -1.396278   -1.695745
     18          1           0        2.595285   -0.794642   -1.376944
     19          6           0        1.212018    1.401561    2.538370
     20          1           0        2.272270    1.585789    2.741968
     21          1           0        0.662974    1.863399    3.366800
     22          6           0        1.286141    0.704594   -2.316972
     23          1           0        2.171575    0.914503   -2.928835
     24          1           0        0.469241    0.504421   -3.016681
     25          6           0        1.028284   -2.249038    1.157775
     26          1           0        1.632999   -2.806972    0.430483
     27          1           0        0.001057   -2.267521    0.756929
     28          6           0        1.402906    3.279174   -2.029154
     29          1           0        2.486301    3.215061   -2.202870
     30          6           0        3.039645    1.702080    0.054531
     31          1           0        3.288428    2.767107    0.108763
     32          1           0        3.490885    1.221039    0.925794
     33          1           0        3.537766    1.297098   -0.831646
     34          6           0        1.218300   -2.371018    3.672730
     35          6           0        0.412301   -0.395588    4.988198
     36          1           0       -0.621745   -0.455438    4.620945
     37          1           0        0.599152    0.658735    5.219469
     38          6           0        1.054183   -2.961955    2.479968
     39          1           0        0.931738   -4.045222    2.447983
     40          6           0        2.832832   -0.529996    4.223360
     41          1           0        2.946835    0.514930    4.528649
     42          1           0        3.173284   -1.147023    5.058587
     43          1           0        3.511194   -0.718832    3.385547
     44          6           0        1.266487   -3.200710    4.942364
     45          1           0        1.059702   -4.251313    4.700789
     46          1           0        2.269871   -3.171040    5.390244
     47          6           0        0.519176   -1.217094    6.281214
     48          1           0        1.507548   -1.102520    6.743546
     49          1           0       -0.213164   -0.859316    7.013842
     50          6           0        0.711694    3.473042   -3.403508
     51          1           0        0.875519    2.579850   -4.017624
     52          1           0       -0.373976    3.529462   -3.233237
     53          6           0        0.283281   -2.696930    6.008845
     54          1           0       -0.746414   -2.832496    5.638553
     55          6           0        1.138457    4.492501   -1.121543
     56          1           0        0.076102    4.560169   -0.854720
     57          1           0        1.413542    5.427465   -1.619010
     58          1           0        1.712715    4.446035   -0.193855
     59          6           0        1.139244    4.696729   -4.238608
     60          1           0        0.512308    4.710029   -5.139138
     61          1           0        0.905499    5.622765   -3.700507
     62          6           0        2.620821    4.687791   -4.650066
     63          1           0        2.849336    3.717872   -5.116175
     64          1           0        3.248471    4.746096   -3.750762
     65          6           0        3.070788    5.808291   -5.617796
     66          1           0        4.147211    5.650311   -5.781061
     67          6           0        2.907612    7.212941   -5.013485
     68          1           0        3.399770    7.286951   -4.036519
     69          1           0        3.349887    7.972729   -5.667950
     70          1           0        1.851822    7.473969   -4.877176
     71          6           0        2.389947    5.716576   -6.993624
     72          1           0        2.510625    4.719213   -7.432712
     73          1           0        2.823217    6.442743   -7.690918
     74          1           0        1.316085    5.926756   -6.930525
 ---------------------------------------------------------------------
 Rotational constants (GHZ):      0.6065237      0.0551315      0.0528525
 Leave Link  202 at Tue Mar 21 13:03:27 2017, MaxMem=    33554432 cpu:         0.0
 (Enter /home/michal/g09/l301.exe)
 Standard basis: 6-31G(d) (6D, 7F)
 Ernie: Thresh=  0.10000D-02 Tol=  0.10000D-05 Strict=F.
 AO basis set in the form of general basis input (Overlap normalization):
      1 0
 S   6 1.00       0.000000000000
      0.5484671660D+04  0.1831074430D-02
      0.8252349460D+03  0.1395017220D-01
      0.1880469580D+03  0.6844507810D-01
      0.5296450000D+02  0.2327143360D+00
      0.1689757040D+02  0.4701928980D+00
      0.5799635340D+01  0.3585208530D+00
 SP   3 1.00       0.000000000000
      0.1553961625D+02 -0.1107775495D+00  0.7087426823D-01
      0.3599933586D+01 -0.1480262627D+00  0.3397528391D+00
      0.1013761750D+01  0.1130767015D+01  0.7271585773D+00
 SP   1 1.00       0.000000000000
      0.2700058226D+00  0.1000000000D+01  0.1000000000D+01
 D   1 1.00       0.000000000000
      0.8000000000D+00  0.1000000000D+01
 ****
      2 0
 S   3 1.00       0.000000000000
      0.1873113696D+02  0.3349460434D-01
      0.2825394365D+01  0.2347269535D+00
      0.6401216923D+00  0.8137573261D+00
 S   1 1.00       0.000000000000
      0.1612777588D+00  0.1000000000D+01
 ****
      3 0
 S   6 1.00       0.000000000000
      0.3047524880D+04  0.1834737132D-02
      0.4573695180D+03  0.1403732281D-01
      0.1039486850D+03  0.6884262226D-01
      0.2921015530D+02  0.2321844432D+00
      0.9286662960D+01  0.4679413484D+00
      0.3163926960D+01  0.3623119853D+00
 SP   3 1.00       0.000000000000
      0.7868272350D+01 -0.1193324198D+00  0.6899906659D-01
      0.1881288540D+01 -0.1608541517D+00  0.3164239610D+00
      0.5442492580D+00  0.1143456438D+01  0.7443082909D+00
 SP   1 1.00       0.000000000000
      0.1687144782D+00  0.1000000000D+01  0.1000000000D+01
 D   1 1.00       0.000000000000
      0.8000000000D+00  0.1000000000D+01
 ****
      4 0
 S   6 1.00       0.000000000000
      0.3047524880D+04  0.1834737132D-02
      0.4573695180D+03  0.1403732281D-01
      0.1039486850D+03  0.6884262226D-01
      0.2921015530D+02  0.2321844432D+00
      0.9286662960D+01  0.4679413484D+00
      0.3163926960D+01  0.3623119853D+00
 SP   3 1.00       0.000000000000
      0.7868272350D+01 -0.1193324198D+00  0.6899906659D-01
      0.1881288540D+01 -0.1608541517D+00  0.3164239610D+00
      0.5442492580D+00  0.1143456438D+01  0.7443082909D+00
 SP   1 1.00       0.000000000000
      0.1687144782D+00  0.1000000000D+01  0.1000000000D+01
 D   1 1.00       0.000000000000
      0.8000000000D+00  0.1000000000D+01
 ****
      5 0
 S   3 1.00       0.000000000000
      0.1873113696D+02  0.3349460434D-01
      0.2825394365D+01  0.2347269535D+00
      0.6401216923D+00  0.8137573261D+00
 S   1 1.00       0.000000000000
      0.1612777588D+00  0.1000000000D+01
 ****
      6 0
 S   6 1.00       0.000000000000
      0.3047524880D+04  0.1834737132D-02
      0.4573695180D+03  0.1403732281D-01
      0.1039486850D+03  0.6884262226D-01
      0.2921015530D+02  0.2321844432D+00
      0.9286662960D+01  0.4679413484D+00
      0.3163926960D+01  0.3623119853D+00
 SP   3 1.00       0.000000000000
      0.7868272350D+01 -0.1193324198D+00  0.6899906659D-01
      0.1881288540D+01 -0.1608541517D+00  0.3164239610D+00
      0.5442492580D+00  0.1143456438D+01  0.7443082909D+00
 SP   1 1.00       0.000000000000
      0.1687144782D+00  0.1000000000D+01  0.1000000000D+01
 D   1 1.00       0.000000000000
      0.8000000000D+00  0.1000000000D+01
 ****
      7 0
 S   3 1.00       0.000000000000
      0.1873113696D+02  0.3349460434D-01
      0.2825394365D+01  0.2347269535D+00
      0.6401216923D+00  0.8137573261D+00
 S   1 1.00       0.000000000000
      0.1612777588D+00  0.1000000000D+01
 ****
      8 0
 S   6 1.00       0.000000000000
      0.3047524880D+04  0.1834737132D-02
      0.4573695180D+03  0.1403732281D-01
      0.1039486850D+03  0.6884262226D-01
      0.2921015530D+02  0.2321844432D+00
      0.9286662960D+01  0.4679413484D+00
      0.3163926960D+01  0.3623119853D+00
 SP   3 1.00       0.000000000000
      0.7868272350D+01 -0.1193324198D+00  0.6899906659D-01
      0.1881288540D+01 -0.1608541517D+00  0.3164239610D+00
      0.5442492580D+00  0.1143456438D+01  0.7443082909D+00
 SP   1 1.00       0.000000000000
      0.1687144782D+00  0.1000000000D+01  0.1000000000D+01
 D   1 1.00       0.000000000000
      0.8000000000D+00  0.1000000000D+01
 ****
      9 0
 S   3 1.00       0.000000000000
      0.1873113696D+02  0.3349460434D-01
      0.2825394365D+01  0.2347269535D+00
      0.6401216923D+00  0.8137573261D+00
 S   1 1.00       0.000000000000
      0.1612777588D+00  0.1000000000D+01
 ****
     10 0
 S   6 1.00       0.000000000000
      0.3047524880D+04  0.1834737132D-02
      0.4573695180D+03  0.1403732281D-01
      0.1039486850D+03  0.6884262226D-01
      0.2921015530D+02  0.2321844432D+00
      0.9286662960D+01  0.4679413484D+00
      0.3163926960D+01  0.3623119853D+00
 SP   3 1.00       0.000000000000
      0.7868272350D+01 -0.1193324198D+00  0.6899906659D-01
      0.1881288540D+01 -0.1608541517D+00  0.3164239610D+00
      0.5442492580D+00  0.1143456438D+01  0.7443082909D+00
 SP   1 1.00       0.000000000000
      0.1687144782D+00  0.1000000000D+01  0.1000000000D+01
 D   1 1.00       0.000000000000
      0.8000000000D+00  0.1000000000D+01
 ****
     11 0
 S   3 1.00       0.000000000000
      0.1873113696D+02  0.3349460434D-01
      0.2825394365D+01  0.2347269535D+00
      0.6401216923D+00  0.8137573261D+00
 S   1 1.00       0.000000000000
      0.1612777588D+00  0.1000000000D+01
 ****
     12 0
 S   6 1.00       0.000000000000
      0.3047524880D+04  0.1834737132D-02
      0.4573695180D+03  0.1403732281D-01
      0.1039486850D+03  0.6884262226D-01
      0.2921015530D+02  0.2321844432D+00
      0.9286662960D+01  0.4679413484D+00
      0.3163926960D+01  0.3623119853D+00
 SP   3 1.00       0.000000000000
      0.7868272350D+01 -0.1193324198D+00  0.6899906659D-01
      0.1881288540D+01 -0.1608541517D+00  0.3164239610D+00
      0.5442492580D+00  0.1143456438D+01  0.7443082909D+00
 SP   1 1.00       0.000000000000
      0.1687144782D+00  0.1000000000D+01  0.1000000000D+01
 D   1 1.00       0.000000000000
      0.8000000000D+00  0.1000000000D+01
 ****
     13 0
 S   3 1.00       0.000000000000
      0.1873113696D+02  0.3349460434D-01
      0.2825394365D+01  0.2347269535D+00
      0.6401216923D+00  0.8137573261D+00
 S   1 1.00       0.000000000000
      0.1612777588D+00  0.1000000000D+01
 ****
     14 0
 S   3 1.00       0.000000000000
      0.1873113696D+02  0.3349460434D-01
      0.2825394365D+01  0.2347269535D+00
      0.6401216923D+00  0.8137573261D+00
 S   1 1.00       0.000000000000
      0.1612777588D+00  0.1000000000D+01
 ****
     15 0
 S   6 1.00       0.000000000000
      0.3047524880D+04  0.1834737132D-02
      0.4573695180D+03  0.1403732281D-01
      0.1039486850D+03  0.6884262226D-01
      0.2921015530D+02  0.2321844432D+00
      0.9286662960D+01  0.4679413484D+00
      0.3163926960D+01  0.3623119853D+00
 SP   3 1.00       0.000000000000
      0.7868272350D+01 -0.1193324198D+00  0.6899906659D-01
      0.1881288540D+01 -0.1608541517D+00  0.3164239610D+00
      0.5442492580D+00  0.1143456438D+01  0.7443082909D+00
 SP   1 1.00       0.000000000000
      0.1687144782D+00  0.1000000000D+01  0.1000000000D+01
 D   1 1.00       0.000000000000
      0.8000000000D+00  0.1000000000D+01
 ****
     16 0
 S   6 1.00       0.000000000000
      0.3047524880D+04  0.1834737132D-02
      0.4573695180D+03  0.1403732281D-01
      0.1039486850D+03  0.6884262226D-01
      0.2921015530D+02  0.2321844432D+00
      0.9286662960D+01  0.4679413484D+00
      0.3163926960D+01  0.3623119853D+00
 SP   3 1.00       0.000000000000
      0.7868272350D+01 -0.1193324198D+00  0.6899906659D-01
      0.1881288540D+01 -0.1608541517D+00  0.3164239610D+00
      0.5442492580D+00  0.1143456438D+01  0.7443082909D+00
 SP   1 1.00       0.000000000000
      0.1687144782D+00  0.1000000000D+01  0.1000000000D+01
 D   1 1.00       0.000000000000
      0.8000000000D+00  0.1000000000D+01
 ****
     17 0
 S   3 1.00       0.000000000000
      0.1873113696D+02  0.3349460434D-01
      0.2825394365D+01  0.2347269535D+00
      0.6401216923D+00  0.8137573261D+00
 S   1 1.00       0.000000000000
      0.1612777588D+00  0.1000000000D+01
 ****
     18 0
 S   3 1.00       0.000000000000
      0.1873113696D+02  0.3349460434D-01
      0.2825394365D+01  0.2347269535D+00
      0.6401216923D+00  0.8137573261D+00
 S   1 1.00       0.000000000000
      0.1612777588D+00  0.1000000000D+01
 ****
     19 0
 S   6 1.00       0.000000000000
      0.3047524880D+04  0.1834737132D-02
      0.4573695180D+03  0.1403732281D-01
      0.1039486850D+03  0.6884262226D-01
      0.2921015530D+02  0.2321844432D+00
      0.9286662960D+01  0.4679413484D+00
      0.3163926960D+01  0.3623119853D+00
 SP   3 1.00       0.000000000000
      0.7868272350D+01 -0.1193324198D+00  0.6899906659D-01
      0.1881288540D+01 -0.1608541517D+00  0.3164239610D+00
      0.5442492580D+00  0.1143456438D+01  0.7443082909D+00
 SP   1 1.00       0.000000000000
      0.1687144782D+00  0.1000000000D+01  0.1000000000D+01
 D   1 1.00       0.000000000000
      0.8000000000D+00  0.1000000000D+01
 ****
     20 0
 S   3 1.00       0.000000000000
      0.1873113696D+02  0.3349460434D-01
      0.2825394365D+01  0.2347269535D+00
      0.6401216923D+00  0.8137573261D+00
 S   1 1.00       0.000000000000
      0.1612777588D+00  0.1000000000D+01
 ****
     21 0
 S   3 1.00       0.000000000000
      0.1873113696D+02  0.3349460434D-01
      0.2825394365D+01  0.2347269535D+00
      0.6401216923D+00  0.8137573261D+00
 S   1 1.00       0.000000000000
      0.1612777588D+00  0.1000000000D+01
 ****
     22 0
 S   6 1.00       0.000000000000
      0.3047524880D+04  0.1834737132D-02
      0.4573695180D+03  0.1403732281D-01
      0.1039486850D+03  0.6884262226D-01
      0.2921015530D+02  0.2321844432D+00
      0.9286662960D+01  0.4679413484D+00
      0.3163926960D+01  0.3623119853D+00
 SP   3 1.00       0.000000000000
      0.7868272350D+01 -0.1193324198D+00  0.6899906659D-01
      0.1881288540D+01 -0.1608541517D+00  0.3164239610D+00
      0.5442492580D+00  0.1143456438D+01  0.7443082909D+00
 SP   1 1.00       0.000000000000
      0.1687144782D+00  0.1000000000D+01  0.1000000000D+01
 D   1 1.00       0.000000000000
      0.8000000000D+00  0.1000000000D+01
 ****
     23 0
 S   3 1.00       0.000000000000
      0.1873113696D+02  0.3349460434D-01
      0.2825394365D+01  0.2347269535D+00
      0.6401216923D+00  0.8137573261D+00
 S   1 1.00       0.000000000000
      0.1612777588D+00  0.1000000000D+01
 ****
     24 0
 S   3 1.00       0.000000000000
      0.1873113696D+02  0.3349460434D-01
      0.2825394365D+01  0.2347269535D+00
      0.6401216923D+00  0.8137573261D+00
 S   1 1.00       0.000000000000
      0.1612777588D+00  0.1000000000D+01
 ****
     25 0
 S   6 1.00       0.000000000000
      0.3047524880D+04  0.1834737132D-02
      0.4573695180D+03  0.1403732281D-01
      0.1039486850D+03  0.6884262226D-01
      0.2921015530D+02  0.2321844432D+00
      0.9286662960D+01  0.4679413484D+00
      0.3163926960D+01  0.3623119853D+00
 SP   3 1.00       0.000000000000
      0.7868272350D+01 -0.1193324198D+00  0.6899906659D-01
      0.1881288540D+01 -0.1608541517D+00  0.3164239610D+00
      0.5442492580D+00  0.1143456438D+01  0.7443082909D+00
 SP   1 1.00       0.000000000000
      0.1687144782D+00  0.1000000000D+01  0.1000000000D+01
 D   1 1.00       0.000000000000
      0.8000000000D+00  0.1000000000D+01
 ****
     26 0
 S   3 1.00       0.000000000000
      0.1873113696D+02  0.3349460434D-01
      0.2825394365D+01  0.2347269535D+00
      0.6401216923D+00  0.8137573261D+00
 S   1 1.00       0.000000000000
      0.1612777588D+00  0.1000000000D+01
 ****
     27 0
 S   3 1.00       0.000000000000
      0.1873113696D+02  0.3349460434D-01
      0.2825394365D+01  0.2347269535D+00
      0.6401216923D+00  0.8137573261D+00
 S   1 1.00       0.000000000000
      0.1612777588D+00  0.1000000000D+01
 ****
     28 0
 S   6 1.00       0.000000000000
      0.3047524880D+04  0.1834737132D-02
      0.4573695180D+03  0.1403732281D-01
      0.1039486850D+03  0.6884262226D-01
      0.2921015530D+02  0.2321844432D+00
      0.9286662960D+01  0.4679413484D+00
      0.3163926960D+01  0.3623119853D+00
 SP   3 1.00       0.000000000000
      0.7868272350D+01 -0.1193324198D+00  0.6899906659D-01
      0.1881288540D+01 -0.1608541517D+00  0.3164239610D+00
      0.5442492580D+00  0.1143456438D+01  0.7443082909D+00
 SP   1 1.00       0.000000000000
      0.1687144782D+00  0.1000000000D+01  0.1000000000D+01
 D   1 1.00       0.000000000000
      0.8000000000D+00  0.1000000000D+01
 ****
     29 0
 S   3 1.00       0.000000000000
      0.1873113696D+02  0.3349460434D-01
      0.2825394365D+01  0.2347269535D+00
      0.6401216923D+00  0.8137573261D+00
 S   1 1.00       0.000000000000
      0.1612777588D+00  0.1000000000D+01
 ****
     30 0
 S   6 1.00       0.000000000000
      0.3047524880D+04  0.1834737132D-02
      0.4573695180D+03  0.1403732281D-01
      0.1039486850D+03  0.6884262226D-01
      0.2921015530D+02  0.2321844432D+00
      0.9286662960D+01  0.4679413484D+00
      0.3163926960D+01  0.3623119853D+00
 SP   3 1.00       0.000000000000
      0.7868272350D+01 -0.1193324198D+00  0.6899906659D-01
      0.1881288540D+01 -0.1608541517D+00  0.3164239610D+00
      0.5442492580D+00  0.1143456438D+01  0.7443082909D+00
 SP   1 1.00       0.000000000000
      0.1687144782D+00  0.1000000000D+01  0.1000000000D+01
 D   1 1.00       0.000000000000
      0.8000000000D+00  0.1000000000D+01
 ****
     31 0
 S   3 1.00       0.000000000000
      0.1873113696D+02  0.3349460434D-01
      0.2825394365D+01  0.2347269535D+00
      0.6401216923D+00  0.8137573261D+00
 S   1 1.00       0.000000000000
      0.1612777588D+00  0.1000000000D+01
 ****
     32 0
 S   3 1.00       0.000000000000
      0.1873113696D+02  0.3349460434D-01
      0.2825394365D+01  0.2347269535D+00
      0.6401216923D+00  0.8137573261D+00
 S   1 1.00       0.000000000000
      0.1612777588D+00  0.1000000000D+01
 ****
     33 0
 S   3 1.00       0.000000000000
      0.1873113696D+02  0.3349460434D-01
      0.2825394365D+01  0.2347269535D+00
      0.6401216923D+00  0.8137573261D+00
 S   1 1.00       0.000000000000
      0.1612777588D+00  0.1000000000D+01
 ****
     34 0
 S   6 1.00       0.000000000000
      0.3047524880D+04  0.1834737132D-02
      0.4573695180D+03  0.1403732281D-01
      0.1039486850D+03  0.6884262226D-01
      0.2921015530D+02  0.2321844432D+00
      0.9286662960D+01  0.4679413484D+00
      0.3163926960D+01  0.3623119853D+00
 SP   3 1.00       0.000000000000
      0.7868272350D+01 -0.1193324198D+00  0.6899906659D-01
      0.1881288540D+01 -0.1608541517D+00  0.3164239610D+00
      0.5442492580D+00  0.1143456438D+01  0.7443082909D+00
 SP   1 1.00       0.000000000000
      0.1687144782D+00  0.1000000000D+01  0.1000000000D+01
 D   1 1.00       0.000000000000
      0.8000000000D+00  0.1000000000D+01
 ****
     35 0
 S   6 1.00       0.000000000000
      0.3047524880D+04  0.1834737132D-02
      0.4573695180D+03  0.1403732281D-01
      0.1039486850D+03  0.6884262226D-01
      0.2921015530D+02  0.2321844432D+00
      0.9286662960D+01  0.4679413484D+00
      0.3163926960D+01  0.3623119853D+00
 SP   3 1.00       0.000000000000
      0.7868272350D+01 -0.1193324198D+00  0.6899906659D-01
      0.1881288540D+01 -0.1608541517D+00  0.3164239610D+00
      0.5442492580D+00  0.1143456438D+01  0.7443082909D+00
 SP   1 1.00       0.000000000000
      0.1687144782D+00  0.1000000000D+01  0.1000000000D+01
 D   1 1.00       0.000000000000
      0.8000000000D+00  0.1000000000D+01
 ****
     36 0
 S   3 1.00       0.000000000000
      0.1873113696D+02  0.3349460434D-01
      0.2825394365D+01  0.2347269535D+00
      0.6401216923D+00  0.8137573261D+00
 S   1 1.00       0.000000000000
      0.1612777588D+00  0.1000000000D+01
 ****
     37 0
 S   3 1.00       0.000000000000
      0.1873113696D+02  0.3349460434D-01
      0.2825394365D+01  0.2347269535D+00
      0.6401216923D+00  0.8137573261D+00
 S   1 1.00       0.000000000000
      0.1612777588D+00  0.1000000000D+01
 ****
     38 0
 S   6 1.00       0.000000000000
      0.3047524880D+04  0.1834737132D-02
      0.4573695180D+03  0.1403732281D-01
      0.1039486850D+03  0.6884262226D-01
      0.2921015530D+02  0.2321844432D+00
      0.9286662960D+01  0.4679413484D+00
      0.3163926960D+01  0.3623119853D+00
 SP   3 1.00       0.000000000000
      0.7868272350D+01 -0.1193324198D+00  0.6899906659D-01
      0.1881288540D+01 -0.1608541517D+00  0.3164239610D+00
      0.5442492580D+00  0.1143456438D+01  0.7443082909D+00
 SP   1 1.00       0.000000000000
      0.1687144782D+00  0.1000000000D+01  0.1000000000D+01
 D   1 1.00       0.000000000000
      0.8000000000D+00  0.1000000000D+01
 ****
     39 0
 S   3 1.00       0.000000000000
      0.1873113696D+02  0.3349460434D-01
      0.2825394365D+01  0.2347269535D+00
      0.6401216923D+00  0.8137573261D+00
 S   1 1.00       0.000000000000
      0.1612777588D+00  0.1000000000D+01
 ****
     40 0
 S   6 1.00       0.000000000000
      0.3047524880D+04  0.1834737132D-02
      0.4573695180D+03  0.1403732281D-01
      0.1039486850D+03  0.6884262226D-01
      0.2921015530D+02  0.2321844432D+00
      0.9286662960D+01  0.4679413484D+00
      0.3163926960D+01  0.3623119853D+00
 SP   3 1.00       0.000000000000
      0.7868272350D+01 -0.1193324198D+00  0.6899906659D-01
      0.1881288540D+01 -0.1608541517D+00  0.3164239610D+00
      0.5442492580D+00  0.1143456438D+01  0.7443082909D+00
 SP   1 1.00       0.000000000000
      0.1687144782D+00  0.1000000000D+01  0.1000000000D+01
 D   1 1.00       0.000000000000
      0.8000000000D+00  0.1000000000D+01
 ****
     41 0
 S   3 1.00       0.000000000000
      0.1873113696D+02  0.3349460434D-01
      0.2825394365D+01  0.2347269535D+00
      0.6401216923D+00  0.8137573261D+00
 S   1 1.00       0.000000000000
      0.1612777588D+00  0.1000000000D+01
 ****
     42 0
 S   3 1.00       0.000000000000
      0.1873113696D+02  0.3349460434D-01
      0.2825394365D+01  0.2347269535D+00
      0.6401216923D+00  0.8137573261D+00
 S   1 1.00       0.000000000000
      0.1612777588D+00  0.1000000000D+01
 ****
     43 0
 S   3 1.00       0.000000000000
      0.1873113696D+02  0.3349460434D-01
      0.2825394365D+01  0.2347269535D+00
      0.6401216923D+00  0.8137573261D+00
 S   1 1.00       0.000000000000
      0.1612777588D+00  0.1000000000D+01
 ****
     44 0
 S   6 1.00       0.000000000000
      0.3047524880D+04  0.1834737132D-02
      0.4573695180D+03  0.1403732281D-01
      0.1039486850D+03  0.6884262226D-01
      0.2921015530D+02  0.2321844432D+00
      0.9286662960D+01  0.4679413484D+00
      0.3163926960D+01  0.3623119853D+00
 SP   3 1.00       0.000000000000
      0.7868272350D+01 -0.1193324198D+00  0.6899906659D-01
      0.1881288540D+01 -0.1608541517D+00  0.3164239610D+00
      0.5442492580D+00  0.1143456438D+01  0.7443082909D+00
 SP   1 1.00       0.000000000000
      0.1687144782D+00  0.1000000000D+01  0.1000000000D+01
 D   1 1.00       0.000000000000
      0.8000000000D+00  0.1000000000D+01
 ****
     45 0
 S   3 1.00       0.000000000000
      0.1873113696D+02  0.3349460434D-01
      0.2825394365D+01  0.2347269535D+00
      0.6401216923D+00  0.8137573261D+00
 S   1 1.00       0.000000000000
      0.1612777588D+00  0.1000000000D+01
 ****
     46 0
 S   3 1.00       0.000000000000
      0.1873113696D+02  0.3349460434D-01
      0.2825394365D+01  0.2347269535D+00
      0.6401216923D+00  0.8137573261D+00
 S   1 1.00       0.000000000000
      0.1612777588D+00  0.1000000000D+01
 ****
     47 0
 S   6 1.00       0.000000000000
      0.3047524880D+04  0.1834737132D-02
      0.4573695180D+03  0.1403732281D-01
      0.1039486850D+03  0.6884262226D-01
      0.2921015530D+02  0.2321844432D+00
      0.9286662960D+01  0.4679413484D+00
      0.3163926960D+01  0.3623119853D+00
 SP   3 1.00       0.000000000000
      0.7868272350D+01 -0.1193324198D+00  0.6899906659D-01
      0.1881288540D+01 -0.1608541517D+00  0.3164239610D+00
      0.5442492580D+00  0.1143456438D+01  0.7443082909D+00
 SP   1 1.00       0.000000000000
      0.1687144782D+00  0.1000000000D+01  0.1000000000D+01
 D   1 1.00       0.000000000000
      0.8000000000D+00  0.1000000000D+01
 ****
     48 0
 S   3 1.00       0.000000000000
      0.1873113696D+02  0.3349460434D-01
      0.2825394365D+01  0.2347269535D+00
      0.6401216923D+00  0.8137573261D+00
 S   1 1.00       0.000000000000
      0.1612777588D+00  0.1000000000D+01
 ****
     49 0
 S   3 1.00       0.000000000000
      0.1873113696D+02  0.3349460434D-01
      0.2825394365D+01  0.2347269535D+00
      0.6401216923D+00  0.8137573261D+00
 S   1 1.00       0.000000000000
      0.1612777588D+00  0.1000000000D+01
 ****
     50 0
 S   6 1.00       0.000000000000
      0.3047524880D+04  0.1834737132D-02
      0.4573695180D+03  0.1403732281D-01
      0.1039486850D+03  0.6884262226D-01
      0.2921015530D+02  0.2321844432D+00
      0.9286662960D+01  0.4679413484D+00
      0.3163926960D+01  0.3623119853D+00
 SP   3 1.00       0.000000000000
      0.7868272350D+01 -0.1193324198D+00  0.6899906659D-01
      0.1881288540D+01 -0.1608541517D+00  0.3164239610D+00
      0.5442492580D+00  0.1143456438D+01  0.7443082909D+00
 SP   1 1.00       0.000000000000
      0.1687144782D+00  0.1000000000D+01  0.1000000000D+01
 D   1 1.00       0.000000000000
      0.8000000000D+00  0.1000000000D+01
 ****
     51 0
 S   3 1.00       0.000000000000
      0.1873113696D+02  0.3349460434D-01
      0.2825394365D+01  0.2347269535D+00
      0.6401216923D+00  0.8137573261D+00
 S   1 1.00       0.000000000000
      0.1612777588D+00  0.1000000000D+01
 ****
     52 0
 S   3 1.00       0.000000000000
      0.1873113696D+02  0.3349460434D-01
      0.2825394365D+01  0.2347269535D+00
      0.6401216923D+00  0.8137573261D+00
 S   1 1.00       0.000000000000
      0.1612777588D+00  0.1000000000D+01
 ****
     53 0
 S   6 1.00       0.000000000000
      0.3047524880D+04  0.1834737132D-02
      0.4573695180D+03  0.1403732281D-01
      0.1039486850D+03  0.6884262226D-01
      0.2921015530D+02  0.2321844432D+00
      0.9286662960D+01  0.4679413484D+00
      0.3163926960D+01  0.3623119853D+00
 SP   3 1.00       0.000000000000
      0.7868272350D+01 -0.1193324198D+00  0.6899906659D-01
      0.1881288540D+01 -0.1608541517D+00  0.3164239610D+00
      0.5442492580D+00  0.1143456438D+01  0.7443082909D+00
 SP   1 1.00       0.000000000000
      0.1687144782D+00  0.1000000000D+01  0.1000000000D+01
 D   1 1.00       0.000000000000
      0.8000000000D+00  0.1000000000D+01
 ****
     54 0
 S   3 1.00       0.000000000000
      0.1873113696D+02  0.3349460434D-01
      0.2825394365D+01  0.2347269535D+00
      0.6401216923D+00  0.8137573261D+00
 S   1 1.00       0.000000000000
      0.1612777588D+00  0.1000000000D+01
 ****
     55 0
 S   6 1.00       0.000000000000
      0.3047524880D+04  0.1834737132D-02
      0.4573695180D+03  0.1403732281D-01
      0.1039486850D+03  0.6884262226D-01
      0.2921015530D+02  0.2321844432D+00
      0.9286662960D+01  0.4679413484D+00
      0.3163926960D+01  0.3623119853D+00
 SP   3 1.00       0.000000000000
      0.7868272350D+01 -0.1193324198D+00  0.6899906659D-01
      0.1881288540D+01 -0.1608541517D+00  0.3164239610D+00
      0.5442492580D+00  0.1143456438D+01  0.7443082909D+00
 SP   1 1.00       0.000000000000
      0.1687144782D+00  0.1000000000D+01  0.1000000000D+01
 D   1 1.00       0.000000000000
      0.8000000000D+00  0.1000000000D+01
 ****
     56 0
 S   3 1.00       0.000000000000
      0.1873113696D+02  0.3349460434D-01
      0.2825394365D+01  0.2347269535D+00
      0.6401216923D+00  0.8137573261D+00
 S   1 1.00       0.000000000000
      0.1612777588D+00  0.1000000000D+01
 ****
     57 0
 S   3 1.00       0.000000000000
      0.1873113696D+02  0.3349460434D-01
      0.2825394365D+01  0.2347269535D+00
      0.6401216923D+00  0.8137573261D+00
 S   1 1.00       0.000000000000
      0.1612777588D+00  0.1000000000D+01
 ****
     58 0
 S   3 1.00       0.000000000000
      0.1873113696D+02  0.3349460434D-01
      0.2825394365D+01  0.2347269535D+00
      0.6401216923D+00  0.8137573261D+00
 S   1 1.00       0.000000000000
      0.1612777588D+00  0.1000000000D+01
 ****
     59 0
 S   6 1.00       0.000000000000
      0.3047524880D+04  0.1834737132D-02
      0.4573695180D+03  0.1403732281D-01
      0.1039486850D+03  0.6884262226D-01
      0.2921015530D+02  0.2321844432D+00
      0.9286662960D+01  0.4679413484D+00
      0.3163926960D+01  0.3623119853D+00
 SP   3 1.00       0.000000000000
      0.7868272350D+01 -0.1193324198D+00  0.6899906659D-01
      0.1881288540D+01 -0.1608541517D+00  0.3164239610D+00
      0.5442492580D+00  0.1143456438D+01  0.7443082909D+00
 SP   1 1.00       0.000000000000
      0.1687144782D+00  0.1000000000D+01  0.1000000000D+01
 D   1 1.00       0.000000000000
      0.8000000000D+00  0.1000000000D+01
 ****
     60 0
 S   3 1.00       0.000000000000
      0.1873113696D+02  0.3349460434D-01
      0.2825394365D+01  0.2347269535D+00
      0.6401216923D+00  0.8137573261D+00
 S   1 1.00       0.000000000000
      0.1612777588D+00  0.1000000000D+01
 ****
     61 0
 S   3 1.00       0.000000000000
      0.1873113696D+02  0.3349460434D-01
      0.2825394365D+01  0.2347269535D+00
      0.6401216923D+00  0.8137573261D+00
 S   1 1.00       0.000000000000
      0.1612777588D+00  0.1000000000D+01
 ****
     62 0
 S   6 1.00       0.000000000000
      0.3047524880D+04  0.1834737132D-02
      0.4573695180D+03  0.1403732281D-01
      0.1039486850D+03  0.6884262226D-01
      0.2921015530D+02  0.2321844432D+00
      0.9286662960D+01  0.4679413484D+00
      0.3163926960D+01  0.3623119853D+00
 SP   3 1.00       0.000000000000
      0.7868272350D+01 -0.1193324198D+00  0.6899906659D-01
      0.1881288540D+01 -0.1608541517D+00  0.3164239610D+00
      0.5442492580D+00  0.1143456438D+01  0.7443082909D+00
 SP   1 1.00       0.000000000000
      0.1687144782D+00  0.1000000000D+01  0.1000000000D+01
 D   1 1.00       0.000000000000
      0.8000000000D+00  0.1000000000D+01
 ****
     63 0
 S   3 1.00       0.000000000000
      0.1873113696D+02  0.3349460434D-01
      0.2825394365D+01  0.2347269535D+00
      0.6401216923D+00  0.8137573261D+00
 S   1 1.00       0.000000000000
      0.1612777588D+00  0.1000000000D+01
 ****
     64 0
 S   3 1.00       0.000000000000
      0.1873113696D+02  0.3349460434D-01
      0.2825394365D+01  0.2347269535D+00
      0.6401216923D+00  0.8137573261D+00
 S   1 1.00       0.000000000000
      0.1612777588D+00  0.1000000000D+01
 ****
     65 0
 S   6 1.00       0.000000000000
      0.3047524880D+04  0.1834737132D-02
      0.4573695180D+03  0.1403732281D-01
      0.1039486850D+03  0.6884262226D-01
      0.2921015530D+02  0.2321844432D+00
      0.9286662960D+01  0.4679413484D+00
      0.3163926960D+01  0.3623119853D+00
 SP   3 1.00       0.000000000000
      0.7868272350D+01 -0.1193324198D+00  0.6899906659D-01
      0.1881288540D+01 -0.1608541517D+00  0.3164239610D+00
      0.5442492580D+00  0.1143456438D+01  0.7443082909D+00
 SP   1 1.00       0.000000000000
      0.1687144782D+00  0.1000000000D+01  0.1000000000D+01
 D   1 1.00       0.000000000000
      0.8000000000D+00  0.1000000000D+01
 ****
     66 0
 S   3 1.00       0.000000000000
      0.1873113696D+02  0.3349460434D-01
      0.2825394365D+01  0.2347269535D+00
      0.6401216923D+00  0.8137573261D+00
 S   1 1.00       0.000000000000
      0.1612777588D+00  0.1000000000D+01
 ****
     67 0
 S   6 1.00       0.000000000000
      0.3047524880D+04  0.1834737132D-02
      0.4573695180D+03  0.1403732281D-01
      0.1039486850D+03  0.6884262226D-01
      0.2921015530D+02  0.2321844432D+00
      0.9286662960D+01  0.4679413484D+00
      0.3163926960D+01  0.3623119853D+00
 SP   3 1.00       0.000000000000
      0.7868272350D+01 -0.1193324198D+00  0.6899906659D-01
      0.1881288540D+01 -0.1608541517D+00  0.3164239610D+00
      0.5442492580D+00  0.1143456438D+01  0.7443082909D+00
 SP   1 1.00       0.000000000000
      0.1687144782D+00  0.1000000000D+01  0.1000000000D+01
 D   1 1.00       0.000000000000
      0.8000000000D+00  0.1000000000D+01
 ****
     68 0
 S   3 1.00       0.000000000000
      0.1873113696D+02  0.3349460434D-01
      0.2825394365D+01  0.2347269535D+00
      0.6401216923D+00  0.8137573261D+00
 S   1 1.00       0.000000000000
      0.1612777588D+00  0.1000000000D+01
 ****
     69 0
 S   3 1.00       0.000000000000
      0.1873113696D+02  0.3349460434D-01
      0.2825394365D+01  0.2347269535D+00
      0.6401216923D+00  0.8137573261D+00
 S   1 1.00       0.000000000000
      0.1612777588D+00  0.1000000000D+01
 ****
     70 0
 S   3 1.00       0.000000000000
      0.1873113696D+02  0.3349460434D-01
      0.2825394365D+01  0.2347269535D+00
      0.6401216923D+00  0.8137573261D+00
 S   1 1.00       0.000000000000
      0.1612777588D+00  0.1000000000D+01
 ****
     71 0
 S   6 1.00       0.000000000000
      0.3047524880D+04  0.1834737132D-02
      0.4573695180D+03  0.1403732281D-01
      0.1039486850D+03  0.6884262226D-01
      0.2921015530D+02  0.2321844432D+00
      0.9286662960D+01  0.4679413484D+00
      0.3163926960D+01  0.3623119853D+00
 SP   3 1.00       0.000000000000
      0.7868272350D+01 -0.1193324198D+00  0.6899906659D-01
      0.1881288540D+01 -0.1608541517D+00  0.3164239610D+00
      0.5442492580D+00  0.1143456438D+01  0.7443082909D+00
 SP   1 1.00       0.000000000000
      0.1687144782D+00  0.1000000000D+01  0.1000000000D+01
 D   1 1.00       0.000000000000
      0.8000000000D+00  0.1000000000D+01
 ****
     72 0
 S   3 1.00       0.000000000000
      0.1873113696D+02  0.3349460434D-01
      0.2825394365D+01  0.2347269535D+00
      0.6401216923D+00  0.8137573261D+00
 S   1 1.00       0.000000000000
      0.1612777588D+00  0.1000000000D+01
 ****
     73 0
 S   3 1.00       0.000000000000
      0.1873113696D+02  0.3349460434D-01
      0.2825394365D+01  0.2347269535D+00
      0.6401216923D+00  0.8137573261D+00
 S   1 1.00       0.000000000000
      0.1612777588D+00  0.1000000000D+01
 ****
     74 0
 S   3 1.00       0.000000000000
      0.1873113696D+02  0.3349460434D-01
      0.2825394365D+01  0.2347269535D+00
      0.6401216923D+00  0.8137573261D+00
 S   1 1.00       0.000000000000
      0.1612777588D+00  0.1000000000D+01
 ****

 AO basis set (Overlap normalization):
 Atom O1       Shell     1 S   6     bf    1 -     1          0.829521893374         -6.415692011843         13.701588356988
      0.5484671660D+04  0.1831074430D-02
      0.8252349460D+03  0.1395017220D-01
      0.1880469580D+03  0.6844507810D-01
      0.5296450000D+02  0.2327143360D+00
      0.1689757040D+02  0.4701928980D+00
      0.5799635340D+01  0.3585208530D+00
 Atom O1       Shell     2 SP   3    bf    2 -     5          0.829521893374         -6.415692011843         13.701588356988
      0.1553961625D+02 -0.1107775495D+00  0.7087426823D-01
      0.3599933586D+01 -0.1480262627D+00  0.3397528391D+00
      0.1013761750D+01  0.1130767015D+01  0.7271585773D+00
 Atom O1       Shell     3 SP   1    bf    6 -     9          0.829521893374         -6.415692011843         13.701588356988
      0.2700058226D+00  0.1000000000D+01  0.1000000000D+01
 Atom O1       Shell     4 D   1     bf   10 -    15          0.829521893374         -6.415692011843         13.701588356988
      0.8000000000D+00  0.1000000000D+01
 Atom H2       Shell     5 S   3     bf   16 -    16          0.522821496295         -8.194316156499         13.423016004273
      0.1873113696D+02  0.3349460434D-01
      0.2825394365D+01  0.2347269535D+00
      0.6401216923D+00  0.8137573261D+00
 Atom H2       Shell     6 S   1     bf   17 -    17          0.522821496295         -8.194316156499         13.423016004273
      0.1612777588D+00  0.1000000000D+01
 Atom C3       Shell     7 S   6     bf   18 -    18          2.848876171400          2.837573076892          0.000000000000
      0.3047524880D+04  0.1834737132D-02
      0.4573695180D+03  0.1403732281D-01
      0.1039486850D+03  0.6884262226D-01
      0.2921015530D+02  0.2321844432D+00
      0.9286662960D+01  0.4679413484D+00
      0.3163926960D+01  0.3623119853D+00
 Atom C3       Shell     8 SP   3    bf   19 -    22          2.848876171400          2.837573076892          0.000000000000
      0.7868272350D+01 -0.1193324198D+00  0.6899906659D-01
      0.1881288540D+01 -0.1608541517D+00  0.3164239610D+00
      0.5442492580D+00  0.1143456438D+01  0.7443082909D+00
 Atom C3       Shell     9 SP   1    bf   23 -    26          2.848876171400          2.837573076892          0.000000000000
      0.1687144782D+00  0.1000000000D+01  0.1000000000D+01
 Atom C3       Shell    10 D   1     bf   27 -    32          2.848876171400          2.837573076892          0.000000000000
      0.8000000000D+00  0.1000000000D+01
 Atom C4       Shell    11 S   6     bf   33 -    33          2.086012137487          0.000000000000          0.000000000000
      0.3047524880D+04  0.1834737132D-02
      0.4573695180D+03  0.1403732281D-01
      0.1039486850D+03  0.6884262226D-01
      0.2921015530D+02  0.2321844432D+00
      0.9286662960D+01  0.4679413484D+00
      0.3163926960D+01  0.3623119853D+00
 Atom C4       Shell    12 SP   3    bf   34 -    37          2.086012137487          0.000000000000          0.000000000000
      0.7868272350D+01 -0.1193324198D+00  0.6899906659D-01
      0.1881288540D+01 -0.1608541517D+00  0.3164239610D+00
      0.5442492580D+00  0.1143456438D+01  0.7443082909D+00
 Atom C4       Shell    13 SP   1    bf   38 -    41          2.086012137487          0.000000000000          0.000000000000
      0.1687144782D+00  0.1000000000D+01  0.1000000000D+01
 Atom C4       Shell    14 D   1     bf   42 -    47          2.086012137487          0.000000000000          0.000000000000
      0.8000000000D+00  0.1000000000D+01
 Atom H5       Shell    15 S   3     bf   48 -    48          0.000000000000          0.000000000000          0.000000000000
      0.1873113696D+02  0.3349460434D-01
      0.2825394365D+01  0.2347269535D+00
      0.6401216923D+00  0.8137573261D+00
 Atom H5       Shell    16 S   1     bf   49 -    49          0.000000000000          0.000000000000          0.000000000000
      0.1612777588D+00  0.1000000000D+01
 Atom C6       Shell    17 S   6     bf   50 -    50          2.867526162064         -1.501057693162          2.354588500363
      0.3047524880D+04  0.1834737132D-02
      0.4573695180D+03  0.1403732281D-01
      0.1039486850D+03  0.6884262226D-01
      0.2921015530D+02  0.2321844432D+00
      0.9286662960D+01  0.4679413484D+00
      0.3163926960D+01  0.3623119853D+00
 Atom C6       Shell    18 SP   3    bf   51 -    54          2.867526162064         -1.501057693162          2.354588500363
      0.7868272350D+01 -0.1193324198D+00  0.6899906659D-01
      0.1881288540D+01 -0.1608541517D+00  0.3164239610D+00
      0.5442492580D+00  0.1143456438D+01  0.7443082909D+00
 Atom C6       Shell    19 SP   1    bf   55 -    58          2.867526162064         -1.501057693162          2.354588500363
      0.1687144782D+00  0.1000000000D+01  0.1000000000D+01
 Atom C6       Shell    20 D   1     bf   59 -    64          2.867526162064         -1.501057693162          2.354588500363
      0.8000000000D+00  0.1000000000D+01
 Atom H7       Shell    21 S   3     bf   65 -    65          4.940409597318         -1.535405430942          2.486193223449
      0.1873113696D+02  0.3349460434D-01
      0.2825394365D+01  0.2347269535D+00
      0.6401216923D+00  0.8137573261D+00
 Atom H7       Shell    22 S   1     bf   66 -    66          4.940409597318         -1.535405430942          2.486193223449
      0.1612777588D+00  0.1000000000D+01
 Atom C8       Shell    23 S   6     bf   67 -    67          1.773359481034         -0.226878327432          4.756390277477
      0.3047524880D+04  0.1834737132D-02
      0.4573695180D+03  0.1403732281D-01
      0.1039486850D+03  0.6884262226D-01
      0.2921015530D+02  0.2321844432D+00
      0.9286662960D+01  0.4679413484D+00
      0.3163926960D+01  0.3623119853D+00
 Atom C8       Shell    24 SP   3    bf   68 -    71          1.773359481034         -0.226878327432          4.756390277477
      0.7868272350D+01 -0.1193324198D+00  0.6899906659D-01
      0.1881288540D+01 -0.1608541517D+00  0.3164239610D+00
      0.5442492580D+00  0.1143456438D+01  0.7443082909D+00
 Atom C8       Shell    25 SP   1    bf   72 -    75          1.773359481034         -0.226878327432          4.756390277477
      0.1687144782D+00  0.1000000000D+01  0.1000000000D+01
 Atom C8       Shell    26 D   1     bf   76 -    81          1.773359481034         -0.226878327432          4.756390277477
      0.8000000000D+00  0.1000000000D+01
 Atom H9       Shell    27 S   3     bf   82 -    82         -0.292308469619         -0.464704084016          4.620086410211
      0.1873113696D+02  0.3349460434D-01
      0.2825394365D+01  0.2347269535D+00
      0.6401216923D+00  0.8137573261D+00
 Atom H9       Shell    28 S   1     bf   83 -    83         -0.292308469619         -0.464704084016          4.620086410211
      0.1612777588D+00  0.1000000000D+01
 Atom C10      Shell    29 S   6     bf   84 -    84          1.799571815531          3.653371495630         -2.650395249896
      0.3047524880D+04  0.1834737132D-02
      0.4573695180D+03  0.1403732281D-01
      0.1039486850D+03  0.6884262226D-01
      0.2921015530D+02  0.2321844432D+00
      0.9286662960D+01  0.4679413484D+00
      0.3163926960D+01  0.3623119853D+00
 Atom C10      Shell    30 SP   3    bf   85 -    88          1.799571815531          3.653371495630         -2.650395249896
      0.7868272350D+01 -0.1193324198D+00  0.6899906659D-01
      0.1881288540D+01 -0.1608541517D+00  0.3164239610D+00
      0.5442492580D+00  0.1143456438D+01  0.7443082909D+00
 Atom C10      Shell    31 SP   1    bf   89 -    92          1.799571815531          3.653371495630         -2.650395249896
      0.1687144782D+00  0.1000000000D+01  0.1000000000D+01
 Atom C10      Shell    32 D   1     bf   93 -    98          1.799571815531          3.653371495630         -2.650395249896
      0.8000000000D+00  0.1000000000D+01
 Atom H11      Shell    33 S   3     bf   99 -    99         -0.269727546242          3.753745546398         -2.442451827137
      0.1873113696D+02  0.3349460434D-01
      0.2825394365D+01  0.2347269535D+00
      0.6401216923D+00  0.8137573261D+00
 Atom H11      Shell    34 S   1     bf  100 -   100         -0.269727546242          3.753745546398         -2.442451827137
      0.1612777588D+00  0.1000000000D+01
 Atom C12      Shell    35 S   6     bf  101 -   101          1.567162146325          4.028976485365          2.332710101573
      0.3047524880D+04  0.1834737132D-02
      0.4573695180D+03  0.1403732281D-01
      0.1039486850D+03  0.6884262226D-01
      0.2921015530D+02  0.2321844432D+00
      0.9286662960D+01  0.4679413484D+00
      0.3163926960D+01  0.3623119853D+00
 Atom C12      Shell    36 SP   3    bf  102 -   105          1.567162146325          4.028976485365          2.332710101573
      0.7868272350D+01 -0.1193324198D+00  0.6899906659D-01
      0.1881288540D+01 -0.1608541517D+00  0.3164239610D+00
      0.5442492580D+00  0.1143456438D+01  0.7443082909D+00
 Atom C12      Shell    37 SP   1    bf  106 -   109          1.567162146325          4.028976485365          2.332710101573
      0.1687144782D+00  0.1000000000D+01  0.1000000000D+01
 Atom C12      Shell    38 D   1     bf  110 -   115          1.567162146325          4.028976485365          2.332710101573
      0.8000000000D+00  0.1000000000D+01
 Atom H13      Shell    39 S   3     bf  116 -   116         -0.492821848271          3.946222524519          2.071209156797
      0.1873113696D+02  0.3349460434D-01
      0.2825394365D+01  0.2347269535D+00
      0.6401216923D+00  0.8137573261D+00
 Atom H13      Shell    40 S   1     bf  117 -   117         -0.492821848271          3.946222524519          2.071209156797
      0.1612777588D+00  0.1000000000D+01
 Atom H14      Shell    41 S   3     bf  118 -   118          2.051240005011          6.029342398365          2.538914333782
      0.1873113696D+02  0.3349460434D-01
      0.2825394365D+01  0.2347269535D+00
      0.6401216923D+00  0.8137573261D+00
 Atom H14      Shell    42 S   1     bf  119 -   119          2.051240005011          6.029342398365          2.538914333782
      0.1612777588D+00  0.1000000000D+01
 Atom C15      Shell    43 S   6     bf  120 -   120          2.577270067307         -1.609481013495          7.253529342708
      0.3047524880D+04  0.1834737132D-02
      0.4573695180D+03  0.1403732281D-01
      0.1039486850D+03  0.6884262226D-01
      0.2921015530D+02  0.2321844432D+00
      0.9286662960D+01  0.4679413484D+00
      0.3163926960D+01  0.3623119853D+00
 Atom C15      Shell    44 SP   3    bf  121 -   124          2.577270067307         -1.609481013495          7.253529342708
      0.7868272350D+01 -0.1193324198D+00  0.6899906659D-01
      0.1881288540D+01 -0.1608541517D+00  0.3164239610D+00
      0.5442492580D+00  0.1143456438D+01  0.7443082909D+00
 Atom C15      Shell    45 SP   1    bf  125 -   128          2.577270067307         -1.609481013495          7.253529342708
      0.1687144782D+00  0.1000000000D+01  0.1000000000D+01
 Atom C15      Shell    46 D   1     bf  129 -   134          2.577270067307         -1.609481013495          7.253529342708
      0.8000000000D+00  0.1000000000D+01
 Atom C16      Shell    47 S   6     bf  135 -   135          2.901801485539         -0.964973456360         -2.612197100633
      0.3047524880D+04  0.1834737132D-02
      0.4573695180D+03  0.1403732281D-01
      0.1039486850D+03  0.6884262226D-01
      0.2921015530D+02  0.2321844432D+00
      0.9286662960D+01  0.4679413484D+00
      0.3163926960D+01  0.3623119853D+00
 Atom C16      Shell    48 SP   3    bf  136 -   139          2.901801485539         -0.964973456360         -2.612197100633
      0.7868272350D+01 -0.1193324198D+00  0.6899906659D-01
      0.1881288540D+01 -0.1608541517D+00  0.3164239610D+00
      0.5442492580D+00  0.1143456438D+01  0.7443082909D+00
 Atom C16      Shell    49 SP   1    bf  140 -   143          2.901801485539         -0.964973456360         -2.612197100633
      0.1687144782D+00  0.1000000000D+01  0.1000000000D+01
 Atom C16      Shell    50 D   1     bf  144 -   149          2.901801485539         -0.964973456360         -2.612197100633
      0.8000000000D+00  0.1000000000D+01
 Atom H17      Shell    51 S   3     bf  150 -   150          1.840324213121         -2.638583894647         -3.204494359306
      0.1873113696D+02  0.3349460434D-01
      0.2825394365D+01  0.2347269535D+00
      0.6401216923D+00  0.8137573261D+00
 Atom H17      Shell    52 S   1     bf  151 -   151          1.840324213121         -2.638583894647         -3.204494359306
      0.1612777588D+00  0.1000000000D+01
 Atom H18      Shell    53 S   3     bf  152 -   152          4.904377093101         -1.501655375743         -2.602046134354
      0.1873113696D+02  0.3349460434D-01
      0.2825394365D+01  0.2347269535D+00
      0.6401216923D+00  0.8137573261D+00
 Atom H18      Shell    54 S   1     bf  153 -   153          4.904377093101         -1.501655375743         -2.602046134354
      0.1612777588D+00  0.1000000000D+01
 Atom C19      Shell    55 S   6     bf  154 -   154          2.290382673943          2.648565749335          4.796824955412
      0.3047524880D+04  0.1834737132D-02
      0.4573695180D+03  0.1403732281D-01
      0.1039486850D+03  0.6884262226D-01
      0.2921015530D+02  0.2321844432D+00
      0.9286662960D+01  0.4679413484D+00
      0.3163926960D+01  0.3623119853D+00
 Atom C19      Shell    56 SP   3    bf  155 -   158          2.290382673943          2.648565749335          4.796824955412
      0.7868272350D+01 -0.1193324198D+00  0.6899906659D-01
      0.1881288540D+01 -0.1608541517D+00  0.3164239610D+00
      0.5442492580D+00  0.1143456438D+01  0.7443082909D+00
 Atom C19      Shell    57 SP   1    bf  159 -   162          2.290382673943          2.648565749335          4.796824955412
      0.1687144782D+00  0.1000000000D+01  0.1000000000D+01
 Atom C19      Shell    58 D   1     bf  163 -   168          2.290382673943          2.648565749335          4.796824955412
      0.8000000000D+00  0.1000000000D+01
 Atom H20      Shell    59 S   3     bf  169 -   169          4.293968245636          2.996706555495          5.181568736314
      0.1873113696D+02  0.3349460434D-01
      0.2825394365D+01  0.2347269535D+00
      0.6401216923D+00  0.8137573261D+00
 Atom H20      Shell    60 S   1     bf  170 -   170          4.293968245636          2.996706555495          5.181568736314
      0.1612777588D+00  0.1000000000D+01
 Atom H21      Shell    61 S   3     bf  171 -   171          1.252839349916          3.521314239827          6.362329793021
      0.1873113696D+02  0.3349460434D-01
      0.2825394365D+01  0.2347269535D+00
      0.6401216923D+00  0.8137573261D+00
 Atom H21      Shell    62 S   1     bf  172 -   172          1.252839349916          3.521314239827          6.362329793021
      0.1612777588D+00  0.1000000000D+01
 Atom C22      Shell    63 S   6     bf  173 -   173          2.430453691358          1.331488787806         -4.378441687188
      0.3047524880D+04  0.1834737132D-02
      0.4573695180D+03  0.1403732281D-01
      0.1039486850D+03  0.6884262226D-01
      0.2921015530D+02  0.2321844432D+00
      0.9286662960D+01  0.4679413484D+00
      0.3163926960D+01  0.3623119853D+00
 Atom C22      Shell    64 SP   3    bf  174 -   177          2.430453691358          1.331488787806         -4.378441687188
      0.7868272350D+01 -0.1193324198D+00  0.6899906659D-01
      0.1881288540D+01 -0.1608541517D+00  0.3164239610D+00
      0.5442492580D+00  0.1143456438D+01  0.7443082909D+00
 Atom C22      Shell    65 SP   1    bf  178 -   181          2.430453691358          1.331488787806         -4.378441687188
      0.1687144782D+00  0.1000000000D+01  0.1000000000D+01
 Atom C22      Shell    66 D   1     bf  182 -   187          2.430453691358          1.331488787806         -4.378441687188
      0.8000000000D+00  0.1000000000D+01
 Atom H23      Shell    67 S   3     bf  188 -   188          4.103681195542          1.728160425572         -5.534695887232
      0.1873113696D+02  0.3349460434D-01
      0.2825394365D+01  0.2347269535D+00
      0.6401216923D+00  0.8137573261D+00
 Atom H23      Shell    68 S   1     bf  189 -   189          4.103681195542          1.728160425572         -5.534695887232
      0.1612777588D+00  0.1000000000D+01
 Atom H24      Shell    69 S   3     bf  190 -   190          0.886737301575          0.953217394498         -5.700701354917
      0.1873113696D+02  0.3349460434D-01
      0.2825394365D+01  0.2347269535D+00
      0.6401216923D+00  0.8137573261D+00
 Atom H24      Shell    70 S   1     bf  191 -   191          0.886737301575          0.953217394498         -5.700701354917
      0.1612777588D+00  0.1000000000D+01
 Atom C25      Shell    71 S   6     bf  192 -   192          1.943175392493         -4.250066373782          2.187878410495
      0.3047524880D+04  0.1834737132D-02
      0.4573695180D+03  0.1403732281D-01
      0.1039486850D+03  0.6884262226D-01
      0.2921015530D+02  0.2321844432D+00
      0.9286662960D+01  0.4679413484D+00
      0.3163926960D+01  0.3623119853D+00
 Atom C25      Shell    72 SP   3    bf  193 -   196          1.943175392493         -4.250066373782          2.187878410495
      0.7868272350D+01 -0.1193324198D+00  0.6899906659D-01
      0.1881288540D+01 -0.1608541517D+00  0.3164239610D+00
      0.5442492580D+00  0.1143456438D+01  0.7443082909D+00
 Atom C25      Shell    73 SP   1    bf  197 -   200          1.943175392493         -4.250066373782          2.187878410495
      0.1687144782D+00  0.1000000000D+01  0.1000000000D+01
 Atom C25      Shell    74 D   1     bf  201 -   206          1.943175392493         -4.250066373782          2.187878410495
      0.8000000000D+00  0.1000000000D+01
 Atom H26      Shell    75 S   3     bf  207 -   207          3.085921489988         -5.304408342678          0.813494785890
      0.1873113696D+02  0.3349460434D-01
      0.2825394365D+01  0.2347269535D+00
      0.6401216923D+00  0.8137573261D+00
 Atom H26      Shell    76 S   1     bf  208 -   208          3.085921489988         -5.304408342678          0.813494785890
      0.1612777588D+00  0.1000000000D+01
 Atom H27      Shell    77 S   3     bf  209 -   209          0.001997364933         -4.284992896882          1.430389438005
      0.1873113696D+02  0.3349460434D-01
      0.2825394365D+01  0.2347269535D+00
      0.6401216923D+00  0.8137573261D+00
 Atom H27      Shell    78 S   1     bf  210 -   210          0.001997364933         -4.284992896882          1.430389438005
      0.1612777588D+00  0.1000000000D+01
 Atom C28      Shell    79 S   6     bf  211 -   211          2.651107601059          6.196739857216         -3.834546210723
      0.3047524880D+04  0.1834737132D-02
      0.4573695180D+03  0.1403732281D-01
      0.1039486850D+03  0.6884262226D-01
      0.2921015530D+02  0.2321844432D+00
      0.9286662960D+01  0.4679413484D+00
      0.3163926960D+01  0.3623119853D+00
 Atom C28      Shell    80 SP   3    bf  212 -   215          2.651107601059          6.196739857216         -3.834546210723
      0.7868272350D+01 -0.1193324198D+00  0.6899906659D-01
      0.1881288540D+01 -0.1608541517D+00  0.3164239610D+00
      0.5442492580D+00  0.1143456438D+01  0.7443082909D+00
 Atom C28      Shell    81 SP   1    bf  216 -   219          2.651107601059          6.196739857216         -3.834546210723
      0.1687144782D+00  0.1000000000D+01  0.1000000000D+01
 Atom C28      Shell    82 D   1     bf  220 -   225          2.651107601059          6.196739857216         -3.834546210723
      0.8000000000D+00  0.1000000000D+01
 Atom H29      Shell    83 S   3     bf  226 -   226          4.698427312516          6.075585697590         -4.162820987453
      0.1873113696D+02  0.3349460434D-01
      0.2825394365D+01  0.2347269535D+00
      0.6401216923D+00  0.8137573261D+00
 Atom H29      Shell    84 S   1     bf  227 -   227          4.698427312516          6.075585697590         -4.162820987453
      0.1612777588D+00  0.1000000000D+01
 Atom C30      Shell    85 S   6     bf  228 -   228          5.744097139216          3.216465320824          0.103048844725
      0.3047524880D+04  0.1834737132D-02
      0.4573695180D+03  0.1403732281D-01
      0.1039486850D+03  0.6884262226D-01
      0.2921015530D+02  0.2321844432D+00
      0.9286662960D+01  0.4679413484D+00
      0.3163926960D+01  0.3623119853D+00
 Atom C30      Shell    86 SP   3    bf  229 -   232          5.744097139216          3.216465320824          0.103048844725
      0.7868272350D+01 -0.1193324198D+00  0.6899906659D-01
      0.1881288540D+01 -0.1608541517D+00  0.3164239610D+00
      0.5442492580D+00  0.1143456438D+01  0.7443082909D+00
 Atom C30      Shell    87 SP   1    bf  233 -   236          5.744097139216          3.216465320824          0.103048844725
      0.1687144782D+00  0.1000000000D+01  0.1000000000D+01
 Atom C30      Shell    88 D   1     bf  237 -   242          5.744097139216          3.216465320824          0.103048844725
      0.8000000000D+00  0.1000000000D+01
 Atom H31      Shell    89 S   3     bf  243 -   243          6.214229102501          5.229074164726          0.205533171562
      0.1873113696D+02  0.3349460434D-01
      0.2825394365D+01  0.2347269535D+00
      0.6401216923D+00  0.8137573261D+00
 Atom H31      Shell    90 S   1     bf  244 -   244          6.214229102501          5.229074164726          0.205533171562
      0.1612777588D+00  0.1000000000D+01
 Atom H32      Shell    91 S   3     bf  245 -   245          6.596815931097          2.307429156394          1.749497039880
      0.1873113696D+02  0.3349460434D-01
      0.2825394365D+01  0.2347269535D+00
      0.6401216923D+00  0.8137573261D+00
 Atom H32      Shell    92 S   1     bf  246 -   246          6.596815931097          2.307429156394          1.749497039880
      0.1612777588D+00  0.1000000000D+01
 Atom H33      Shell    93 S   3     bf  247 -   247          6.685408692159          2.451159666260         -1.571582348030
      0.1873113696D+02  0.3349460434D-01
      0.2825394365D+01  0.2347269535D+00
      0.6401216923D+00  0.8137573261D+00
 Atom H33      Shell    94 S   1     bf  248 -   248          6.685408692159          2.451159666260         -1.571582348030
      0.1612777588D+00  0.1000000000D+01
 Atom C34      Shell    95 S   6     bf  249 -   249          2.302253706743         -4.480575224163          6.940453123040
      0.3047524880D+04  0.1834737132D-02
      0.4573695180D+03  0.1403732281D-01
      0.1039486850D+03  0.6884262226D-01
      0.2921015530D+02  0.2321844432D+00
      0.9286662960D+01  0.4679413484D+00
      0.3163926960D+01  0.3623119853D+00
 Atom C34      Shell    96 SP   3    bf  250 -   253          2.302253706743         -4.480575224163          6.940453123040
      0.7868272350D+01 -0.1193324198D+00  0.6899906659D-01
      0.1881288540D+01 -0.1608541517D+00  0.3164239610D+00
      0.5442492580D+00  0.1143456438D+01  0.7443082909D+00
 Atom C34      Shell    97 SP   1    bf  254 -   257          2.302253706743         -4.480575224163          6.940453123040
      0.1687144782D+00  0.1000000000D+01  0.1000000000D+01
 Atom C34      Shell    98 D   1     bf  258 -   263          2.302253706743         -4.480575224163          6.940453123040
      0.8000000000D+00  0.1000000000D+01
 Atom C35      Shell    99 S   6     bf  264 -   264          0.779136012109         -0.747553567271          9.426327285128
      0.3047524880D+04  0.1834737132D-02
      0.4573695180D+03  0.1403732281D-01
      0.1039486850D+03  0.6884262226D-01
      0.2921015530D+02  0.2321844432D+00
      0.9286662960D+01  0.4679413484D+00
      0.3163926960D+01  0.3623119853D+00
 Atom C35      Shell   100 SP   3    bf  265 -   268          0.779136012109         -0.747553567271          9.426327285128
      0.7868272350D+01 -0.1193324198D+00  0.6899906659D-01
      0.1881288540D+01 -0.1608541517D+00  0.3164239610D+00
      0.5442492580D+00  0.1143456438D+01  0.7443082909D+00
 Atom C35      Shell   101 SP   1    bf  269 -   272          0.779136012109         -0.747553567271          9.426327285128
      0.1687144782D+00  0.1000000000D+01  0.1000000000D+01
 Atom C35      Shell   102 D   1     bf  273 -   278          0.779136012109         -0.747553567271          9.426327285128
      0.8000000000D+00  0.1000000000D+01
 Atom H36      Shell   103 S   3     bf  279 -   279         -1.174926980806         -0.860653033817          8.732320317257
      0.1873113696D+02  0.3349460434D-01
      0.2825394365D+01  0.2347269535D+00
      0.6401216923D+00  0.8137573261D+00
 Atom H36      Shell   104 S   1     bf  280 -   280         -1.174926980806         -0.860653033817          8.732320317257
      0.1612777588D+00  0.1000000000D+01
 Atom H37      Shell   105 S   3     bf  281 -   281          1.132232851820          1.244828517379          9.863366250991
      0.1873113696D+02  0.3349460434D-01
      0.2825394365D+01  0.2347269535D+00
      0.6401216923D+00  0.8137573261D+00
 Atom H37      Shell   106 S   1     bf  282 -   282          1.132232851820          1.244828517379          9.863366250991
      0.1612777588D+00  0.1000000000D+01
 Atom C38      Shell   107 S   6     bf  283 -   283          1.992116578129         -5.597283030938          4.686460829649
      0.3047524880D+04  0.1834737132D-02
      0.4573695180D+03  0.1403732281D-01
      0.1039486850D+03  0.6884262226D-01
      0.2921015530D+02  0.2321844432D+00
      0.9286662960D+01  0.4679413484D+00
      0.3163926960D+01  0.3623119853D+00
 Atom C38      Shell   108 SP   3    bf  284 -   287          1.992116578129         -5.597283030938          4.686460829649
      0.7868272350D+01 -0.1193324198D+00  0.6899906659D-01
      0.1881288540D+01 -0.1608541517D+00  0.3164239610D+00
      0.5442492580D+00  0.1143456438D+01  0.7443082909D+00
 Atom C38      Shell   109 SP   1    bf  288 -   291          1.992116578129         -5.597283030938          4.686460829649
      0.1687144782D+00  0.1000000000D+01  0.1000000000D+01
 Atom C38      Shell   110 D   1     bf  292 -   297          1.992116578129         -5.597283030938          4.686460829649
      0.8000000000D+00  0.1000000000D+01
 Atom H39      Shell   111 S   3     bf  298 -   298          1.760730422390         -7.644360857450          4.626018014878
      0.1873113696D+02  0.3349460434D-01
      0.2825394365D+01  0.2347269535D+00
      0.6401216923D+00  0.8137573261D+00
 Atom H39      Shell   112 S   1     bf  299 -   299          1.760730422390         -7.644360857450          4.626018014878
      0.1612777588D+00  0.1000000000D+01
 Atom C40      Shell   113 S   6     bf  300 -   300          5.353275885687         -1.001547329319          7.980994327502
      0.3047524880D+04  0.1834737132D-02
      0.4573695180D+03  0.1403732281D-01
      0.1039486850D+03  0.6884262226D-01
      0.2921015530D+02  0.2321844432D+00
      0.9286662960D+01  0.4679413484D+00
      0.3163926960D+01  0.3623119853D+00
 Atom C40      Shell   114 SP   3    bf  301 -   304          5.353275885687         -1.001547329319          7.980994327502
      0.7868272350D+01 -0.1193324198D+00  0.6899906659D-01
      0.1881288540D+01 -0.1608541517D+00  0.3164239610D+00
      0.5442492580D+00  0.1143456438D+01  0.7443082909D+00
[...]
 1527 Fit      -0.000875
 1528 Fit      -0.001876
 1529 Fit       0.001103
 1530 Fit      -0.001732
 1531 Fit      -0.001687
 1532 Fit      -0.000176
 1533 Fit       0.000495
 1534 Fit       0.000802
 1535 Fit       0.000239
 1536 Fit      -0.001170
 1537 Fit       0.001669
 1538 Fit       0.002296
 1539 Fit       0.002247
 1540 Fit       0.001116
 1541 Fit      -0.000854
 1542 Fit       0.003101
 1543 Fit       0.002844
 1544 Fit       0.001217
 1545 Fit      -0.000130
 1546 Fit      -0.001581
 1547 Fit       0.000841
 1548 Fit       0.002425
 1549 Fit      -0.000805
 1550 Fit       0.001263
 1551 Fit       0.002293
 1552 Fit      -0.000219
 1553 Fit       0.001422
 1554 Fit      -0.002629
 1555 Fit      -0.000404
 1556 Fit      -0.000661
 1557 Fit      -0.002290
 1558 Fit      -0.002259
 1559 Fit      -0.002784
 1560 Fit      -0.002293
 1561 Fit       0.000449
 1562 Fit       0.002315
 1563 Fit       0.003325
 1564 Fit       0.002816
 1565 Fit       0.001205
 1566 Fit      -0.001460
 1567 Fit       0.000868
 1568 Fit       0.002427
 1569 Fit       0.002494
 1570 Fit       0.001054
 1571 Fit      -0.001351
 1572 Fit       0.000356
 1573 Fit       0.000767
 1574 Fit      -0.001612
 1575 Fit       0.000831
 1576 Fit       0.002294
 1577 Fit      -0.000785
 1578 Fit       0.000821
 1579 Fit       0.002392
 1580 Fit       0.002631
 1581 Fit       0.001250
 1582 Fit      -0.000950
 1583 Fit       0.000602
 1584 Fit       0.001698
 1585 Fit       0.000247
 1586 Fit      -0.002045
 1587 Fit      -0.001716
 1588 Fit      -0.000370
 1589 Fit      -0.000566
 1590 Fit       0.001573
 1591 Fit       0.002609
 1592 Fit       0.002989
 1593 Fit      -0.000204
 1594 Fit       0.001068
 1595 Fit       0.000885
 1596 Fit      -0.000699
 1597 Fit      -0.001402
 1598 Fit      -0.023881
 1599 Fit      -0.024324
 1600 Fit      -0.026662
 1601 Fit      -0.025859
 1602 Fit      -0.022161
 1603 Fit      -0.016384
 1604 Fit      -0.017981
 1605 Fit      -0.023196
 1606 Fit      -0.024849
 1607 Fit      -0.024523
 1608 Fit      -0.022221
 1609 Fit      -0.018859
 1610 Fit      -0.011876
 1611 Fit      -0.004678
 1612 Fit      -0.009337
 1613 Fit      -0.017628
 1614 Fit      -0.019569
 1615 Fit      -0.015620
 1616 Fit      -0.010222
 1617 Fit      -0.005393
 1618 Fit      -0.014920
 1619 Fit      -0.003298
 1620 Fit      -0.001858
 1621 Fit      -0.003782
 1622 Fit       0.005553
 1623 Fit       0.007931
 1624 Fit       0.004581
 1625 Fit       0.007186
 1626 Fit       0.012736
 1627 Fit       0.014617
 1628 Fit       0.012936
 1629 Fit       0.007436
 1630 Fit       0.012205
 1631 Fit       0.016648
 1632 Fit       0.018174
 1633 Fit       0.016540
 1634 Fit       0.011380
 1635 Fit       0.018030
 1636 Fit       0.003564
 1637 Fit       0.003619
 1638 Fit       0.003409
 1639 Fit       0.003489
 1640 Fit       0.002924
 1641 Fit      -0.003203
 1642 Fit       0.002880
 1643 Fit       0.000256
 1644 Fit       0.001984
 1645 Fit       0.002514
 1646 Fit       0.002880
 1647 Fit       0.001502
 1648 Fit       0.003048
 1649 Fit       0.002888
 1650 Fit       0.001836
 1651 Fit       0.002813
 1652 Fit       0.003147
 1653 Fit       0.003438
 1654 Fit       0.002826
 1655 Fit       0.002643
 1656 Fit       0.002639
 1657 Fit       0.001731
 1658 Fit      -0.000136
 1659 Fit       0.000011
 1660 Fit      -0.001005
 1661 Fit       0.000140
 1662 Fit       0.001335
 1663 Fit       0.002124
 1664 Fit       0.000041
 1665 Fit       0.001499
 1666 Fit       0.002480
 1667 Fit       0.003083
 1668 Fit       0.002131
 1669 Fit       0.003025
 1670 Fit       0.003611
 1671 Fit       0.002223
 1672 Fit       0.002251
 1673 Fit       0.001359
 1674 Fit       0.000297
 1675 Fit       0.000529
 1676 Fit      -0.000515
 1677 Fit       0.001116
 1678 Fit       0.000223
 1679 Fit      -0.000473
 1680 Fit      -0.000114
 1681 Fit       0.002822
 1682 Fit       0.003239
 1683 Fit       0.003281
 1684 Fit       0.002925
 1685 Fit       0.002212
 1686 Fit       0.002716
 1687 Fit       0.002775
 1688 Fit       0.002217
 1689 Fit       0.000899
 1690 Fit       0.001471
 1691 Fit       0.000127
 1692 Fit       0.002820
 1693 Fit       0.002231
 1694 Fit       0.002648
 1695 Fit       0.003351
 1696 Fit       0.001156
 1697 Fit       0.001824
 1698 Fit       0.002601
 1699 Fit       0.002767
 1700 Fit       0.000449
 1701 Fit       0.001672
 1702 Fit       0.001085
 1703 Fit       0.001971
 1704 Fit       0.002493
 1705 Fit       0.002117
 1706 Fit       0.001612
 1707 Fit       0.002050
 1708 Fit       0.002453
 1709 Fit       0.002627
 1710 Fit       0.002063
 1711 Fit       0.001292
 1712 Fit       0.001473
 1713 Fit       0.001596
 1714 Fit       0.001672
 1715 Fit       0.001449
 1716 Fit      -0.000020
 1717 Fit      -0.000569
 1718 Fit       0.000053
 1719 Fit       0.003562
 1720 Fit       0.002923
 1721 Fit       0.002923
 1722 Fit       0.002897
 1723 Fit       0.000273
 1724 Fit       0.001999
 1725 Fit       0.002493
 1726 Fit       0.001020
 1727 Fit       0.001880
 1728 Fit       0.002337
 1729 Fit       0.002594
 1730 Fit       0.002293
 1731 Fit       0.002708
 1732 Fit       0.002587
 1733 Fit       0.001490
 1734 Fit       0.002515
 1735 Fit       0.002328
 1736 Fit       0.001227
 1737 Fit       0.001987
 1738 Fit       0.001719
 1739 Fit       0.000467
 1740 Fit       0.001617
 1741 Fit       0.002886
 1742 Fit       0.002516
 1743 Fit      -0.000615
 1744 Fit       0.000291
 1745 Fit      -0.001035
 1746 Fit       0.001752
 1747 Fit       0.003737
 1748 Fit       0.003334
 1749 Fit       0.002462
 1750 Fit       0.001790
 1751 Fit       0.002497
 1752 Fit       0.003126
 1753 Fit       0.003147
 1754 Fit       0.002669
 1755 Fit       0.002393
 1756 Fit       0.002690
 1757 Fit       0.001686
 1758 Fit       0.001087
 1759 Fit       0.001152
 1760 Fit       0.003709
 1761 Fit       0.003163
 1762 Fit       0.002749
 1763 Fit       0.002500
 1764 Fit       0.003644
 1765 Fit       0.003353
 1766 Fit       0.002807
 1767 Fit       0.002533
 1768 Fit       0.001986
 1769 Fit       0.002090
 1770 Fit       0.001736
 1771 Fit      -0.000071
 1772 Fit      -0.000503
 1773 Fit      -0.000542
 1774 Fit       0.000404
 1775 Fit      -0.000318
 1776 Fit      -0.000400
 1777 Fit       0.000436
 1778 Fit       0.001895
 1779 Fit       0.001203
 1780 Fit       0.002784
 1781 Fit       0.000900
 1782 Fit       0.002408
 1783 Fit       0.000958
 1784 Fit       0.002306
 1785 Fit       0.001606
 1786 Fit       0.002051
 1787 Fit       0.001404
 1788 Fit       0.000869
 1789 Fit       0.002211
 1790 Fit       0.002167
 1791 Fit       0.001250
 1792 Fit       0.000442
 1793 Fit       0.003334
 1794 Fit       0.002179
 1795 Fit       0.002739
 1796 Fit       0.002015
 1797 Fit       0.003612
 1798 Fit       0.003972
 1799 Fit      -0.008057
 1800 Fit      -0.000210
 1801 Fit       0.000370
 1802 Fit       0.000479
 1803 Fit       0.001178
 1804 Fit       0.001767
 1805 Fit       0.002409
 1806 Fit       0.001380
 1807 Fit       0.002098
 1808 Fit       0.002522
 1809 Fit       0.002377
 1810 Fit       0.002274
 1811 Fit      -0.001762
 1812 Fit      -0.000810
 1813 Fit      -0.000673
 1814 Fit       0.000994
 1815 Fit       0.001728
 1816 Fit       0.001609
 1817 Fit       0.000665
 1818 Fit       0.003337
 1819 Fit       0.003278
 1820 Fit       0.003016
 1821 Fit       0.001750
 1822 Fit      -0.003720
 1823 Fit      -0.002603
 1824 Fit       0.000841
 1825 Fit      -0.003386
 1826 Fit      -0.007194
 1827 Fit      -0.004918
 1828 Fit      -0.001159
 1829 Fit       0.001009
 1830 Fit      -0.001967
 1831 Fit      -0.004811
 1832 Fit       0.002367
 1833 Fit       0.001139
 1834 Fit       0.003611
 1835 Fit       0.007085
 1836 Fit       0.008166
 1837 Fit       0.006800
 1838 Fit       0.003145
 1839 Fit       0.003000
 1840 Fit       0.005554
 1841 Fit       0.006461
 1842 Fit       0.005566
 1843 Fit       0.002948
 1844 Fit       0.004601
 1845 Fit       0.005293
 1846 Fit       0.004294
 1847 Fit      -0.001629
 1848 Fit      -0.001768
 1849 Fit      -0.001612
 1850 Fit      -0.001712
 1851 Fit      -0.001300
 1852 Fit      -0.001748
 1853 Fit      -0.000193
 1854 Fit       0.000866
 1855 Fit      -0.005908
 1856 Fit      -0.000106
 1857 Fit       0.000606
 1858 Fit      -0.000022
 1859 Fit       0.001481
 1860 Fit       0.002433
 1861 Fit       0.000088
 1862 Fit       0.001744
 1863 Fit       0.002666
 1864 Fit       0.002878
 1865 Fit       0.000657
 1866 Fit       0.002409
 1867 Fit      -0.001745
 1868 Fit      -0.003638
 1869 Fit      -0.001130
 1870 Fit      -0.001683
 1871 Fit      -0.000725
 1872 Fit      -0.001468
 1873 Fit      -0.000790
 1874 Fit      -0.002016
 1875 Fit      -0.000866
 1876 Fit      -0.001390
 1877 Fit       0.001126
 1878 Fit       0.001480
 1879 Fit       0.002267
 1880 Fit      -0.001889
 1881 Fit       0.000275
 1882 Fit       0.003022
 1883 Fit       0.001730
 1884 Fit      -0.000919
 1885 Fit      -0.001841
 1886 Fit      -0.006364
 1887 Fit       0.010646
 1888 Fit       0.016491
 1889 Fit       0.013858
 1890 Fit       0.009495
 1891 Fit       0.004537
 1892 Fit       0.008549
 1893 Fit       0.010551
 1894 Fit       0.010070
 1895 Fit       0.007594
 1896 Fit       0.003781
 1897 Fit      -0.013168
 1898 Fit      -0.003312
 1899 Fit      -0.004419
 1900 Fit      -0.004503
 1901 Fit      -0.000243
 1902 Fit      -0.000987
 1903 Fit      -0.001127
 1904 Fit      -0.001083
 1905 Fit      -0.000981
 1906 Fit      -0.001369
 1907 Fit      -0.020470
 1908 Fit      -0.011737
 1909 Fit      -0.006333
 1910 Fit      -0.002548
 1911 Fit      -0.017453
 1912 Fit      -0.011730
 1913 Fit      -0.008645
 1914 Fit      -0.006364
 1915 Fit      -0.004223
 1916 Fit      -0.004100
 1917 Fit      -0.013820
 1918 Fit      -0.001653
 1919 Fit      -0.001424
 1920 Fit      -0.001158
 1921 Fit      -0.004559
 1922 Fit      -0.014029
 1923 Fit      -0.008769
 1924 Fit      -0.006601
 1925 Fit      -0.010043
 1926 Fit      -0.004917
 1927 Fit      -0.003129
 1928 Fit      -0.002799
 1929 Fit      -0.004324
 1930 Fit      -0.009300
 1931 Fit      -0.000871
 1932 Fit      -0.000800
 1933 Fit      -0.001303
 1934 Fit      -0.003026
 1935 Fit      -0.007313
 1936 Fit      -0.000010
 1937 Fit      -0.000388
 1938 Fit      -0.000288
 1939 Fit      -0.000017
 1940 Fit      -0.000004
 1941 Fit       0.001390
 1942 Fit       0.001721
 1943 Fit       0.001750
 1944 Fit       0.000641
 1945 Fit       0.001501
 1946 Fit       0.002238
 1947 Fit       0.001314
 1948 Fit       0.002512
 1949 Fit       0.000549
 1950 Fit       0.001647
 1951 Fit       0.002137
 1952 Fit       0.002091
 1953 Fit       0.000027
 1954 Fit       0.001081
 1955 Fit       0.001432
 1956 Fit       0.001173
 1957 Fit       0.000694
 1958 Fit       0.000575
 1959 Fit       0.000358
 1960 Fit      -0.008763
 1961 Fit      -0.005295
 1962 Fit      -0.004472
 1963 Fit       0.000007
 1964 Fit       0.000406
 1965 Fit       0.002278
 1966 Fit       0.007424
 1967 Fit       0.002321
 1968 Fit       0.002492
 1969 Fit       0.003855
 1970 Fit       0.007003
 1971 Fit       0.013100
 1972 Fit       0.001959
 1973 Fit       0.002384
 1974 Fit       0.003920
 1975 Fit      -0.003243
 1976 Fit      -0.000900
 1977 Fit      -0.001172
 1978 Fit      -0.000766
 1979 Fit      -0.001421
 1980 Fit      -0.001548
 1981 Fit       0.001369
 1982 Fit       0.000512
 1983 Fit      -0.001073
 1984 Fit      -0.001198
 1985 Fit      -0.000603
 1986 Fit      -0.000912
 1987 Fit      -0.001026
 1988 Fit      -0.000194
 1989 Fit       0.000788
 1990 Fit       0.000899
 1991 Fit      -0.000052
 1992 Fit       0.001212
 1993 Fit       0.002013
 1994 Fit       0.002431
 1995 Fit      -0.000138
 1996 Fit       0.001112
 1997 Fit       0.002147
 1998 Fit       0.002905
 1999 Fit      -0.000423
 2000 Fit       0.001238
 2001 Fit       0.001222
 2002 Fit       0.000821
 2003 Fit       0.000237
 2004 Fit      -0.000784
 2005 Fit       0.001371
 2006 Fit       0.001633
 2007 Fit       0.001067
 2008 Fit       0.003098
 2009 Fit       0.002951
 2010 Fit       0.001384
 2011 Fit      -0.000020
 2012 Fit       0.002331
 2013 Fit       0.000719
 2014 Fit      -0.000177
 2015 Fit       0.001084
 2016 Fit       0.001208
 2017 Fit       0.001001
 2018 Fit       0.001005
 2019 Fit       0.000624
 2020 Fit       0.002078
 2021 Fit       0.001575
 2022 Fit       0.001044
 2023 Fit       0.000865
 2024 Fit       0.000545
 2025 Fit       0.000695
 2026 Fit       0.001425
 2027 Fit       0.000337
 2028 Fit       0.001575
 2029 Fit       0.000000
 2030 Fit       0.000537
 2031 Fit       0.000336
 2032 Fit       0.000481
 2033 Fit       0.001991
 2034 Fit       0.000590
 2035 Fit       0.002733
 2036 Fit       0.002715
 2037 Fit       0.002159
 2038 Fit       0.001224
 2039 Fit       0.002155
 2040 Fit       0.002754
 2041 Fit       0.002666
 2042 Fit       0.001958
 2043 Fit       0.002712
 2044 Fit       0.002520
 2045 Fit       0.002873
 2046 Fit       0.001724
 2047 Fit       0.002114
 2048 Fit       0.001466
 2049 Fit       0.001339
 2050 Fit       0.001239
 2051 Fit       0.001011
 2052 Fit       0.001435
 2053 Fit       0.000854
 2054 Fit       0.000794
 2055 Fit       0.001398
 2056 Fit       0.001536
 2057 Fit       0.001178
 2058 Fit       0.001187
 2059 Fit       0.001501
 2060 Fit       0.001173
 2061 Fit       0.001140
 2062 Fit       0.000826
 2063 Fit       0.001006
 2064 Fit      -0.000540
 2065 Fit      -0.001542
 2066 Fit      -0.001846
 2067 Fit      -0.001283
 2068 Fit      -0.000013
 2069 Fit      -0.000784
 2070 Fit      -0.001111
 2071 Fit      -0.001733
 2072 Fit      -0.001875
 2073 Fit      -0.001524
 2074 Fit      -0.001368
 2075 Fit      -0.001533
 2076 Fit       0.002213
 2077 Fit       0.002506
 2078 Fit       0.001668
 2079 Fit       0.001057
 2080 Fit       0.002860
 2081 Fit       0.002064
 2082 Fit       0.001325
 2083 Fit       0.000452
 2084 Fit      -0.000374
 2085 Fit       0.002796
 2086 Fit       0.000931
 2087 Fit       0.000197
 2088 Fit      -0.000587
 2089 Fit       0.001620
 2090 Fit      -0.000370
 2091 Fit      -0.000188
 2092 Fit      -0.000495
 2093 Fit      -0.001314
 2094 Fit       0.000681
 2095 Fit       0.001043
 2096 Fit       0.001218
 2097 Fit       0.000866
 2098 Fit      -0.000049
 2099 Fit      -0.001241
 2100 Fit       0.001764
 2101 Fit       0.002064
 2102 Fit       0.001913
 2103 Fit       0.001047
 2104 Fit      -0.000381
 2105 Fit       0.002400
 2106 Fit       0.001221
 2107 Fit       0.000109
 2108 Fit       0.000549
 2109 Fit       0.001905
 2110 Fit      -0.001120
 2111 Fit       0.000501
 2112 Fit       0.001619
 2113 Fit       0.001718
 2114 Fit      -0.001346
 2115 Fit       0.000156
 2116 Fit       0.001301
 2117 Fit       0.001678
 2118 Fit      -0.000566
 2119 Fit       0.000802
 2120 Fit      -0.001471
 2121 Fit      -0.000187
 2122 Fit      -0.001378
 2123 Fit      -0.000875
 2124 Fit      -0.000459
 2125 Fit      -0.001555
 2126 Fit      -0.001722
 2127 Fit      -0.001695
 2128 Fit      -0.001968
 2129 Fit      -0.001572
 2130 Fit      -0.001296
 2131 Fit      -0.001580
 2132 Fit       0.001082
 2133 Fit       0.001042
 2134 Fit       0.002200
 2135 Fit       0.002600
 2136 Fit       0.002054
 2137 Fit       0.000868
 2138 Fit       0.000563
 2139 Fit       0.001658
 2140 Fit       0.001701
 2141 Fit       0.000689
 2142 Fit      -0.001003
 2143 Fit       0.000041
 2144 Fit       0.000339
 2145 Fit      -0.001275
 2146 Fit       0.000762
 2147 Fit       0.001848
 2148 Fit       0.002492
 2149 Fit       0.001997
 2150 Fit       0.000386
 2151 Fit      -0.001192
 2152 Fit       0.000667
 2153 Fit       0.001755
 2154 Fit       0.001902
 2155 Fit       0.000950
 2156 Fit      -0.000571
 2157 Fit       0.000363
 2158 Fit       0.001071
 2159 Fit       0.000075
 2160 Fit      -0.001476
 2161 Fit      -0.001151
 2162 Fit      -0.000369
 2163 Fit       0.001198
 2164 Fit       0.001914
 2165 Fit       0.000303
 2166 Fit       0.001370
 2167 Fit       0.001773
 2168 Fit       0.001539
 2169 Fit       0.000514
 2170 Fit      -0.000586
 2171 Fit       0.000268
 2172 Fit       0.000147
 -----------------------------------------------------------------
 Leave Link  602 at Tue Mar 21 13:04:18 2017, MaxMem=    33554432 cpu:         3.2
 (Enter /home/michal/g09/l9999.exe)

 Test job not archived.
 1\1\GINC-LINUX\SP\RHF\6-31G(d)\C27H46O1\MICHAL\21-Mar-2017\0\\#P HF/6-
 31G* SCF(Conver=6) NoSymm Test Pop=mk IOp(6/33=2) GFInput GFPrint\\MEP
  - Input generated by R.E.D.-III.x MOLECULE\\0,1\O,0,0.43896408,-3.395
 03799,7.25056828\H,0,0.27666522,-4.33624535,7.10315414\C,0,1.50756034,
 1.501579,0.\C,0,1.10387008,0.,0.\H,0,0.,0.,0.\C,0,1.51742949,-0.794325
 52,1.24599457\H,0,2.61435216,-0.81250156,1.31563679\C,0,0.93842142,-0.
 12005884,2.51697333\H,0,-0.15468298,-0.24591081,2.44484443\C,0,0.95229
 239,1.93328093,-1.40252876\H,0,-0.14273367,1.98639659,-1.29248984\C,0,
 0.82930649,2.13204253,1.23441702\H,0,-0.26079009,2.08825102,1.09603668
 \H,0,1.08546946,3.19059058,1.3435356\C,0,1.36383258,-0.85170067,3.8384
 0241\C,0,1.53556721,-0.51064196,-1.38231517\H,0,0.97385763,-1.39627846
 ,-1.69574538\H,0,2.59528458,-0.7946418,-1.37694351\C,0,1.21201831,1.40
 156063,2.53837044\H,0,2.27227013,1.58578881,2.74196808\H,0,0.66297403,
 1.86339924,3.36679992\C,0,1.2861407,0.70459352,-2.31697155\H,0,2.17157
 456,0.91450311,-2.92883492\H,0,0.46924117,0.50442092,-3.01668123\C,0,1
 .02828413,-2.24903826,1.15777539\H,0,1.63299932,-2.806972,0.4304829\H,
 0,0.00105696,-2.26752058,0.75692949\C,0,1.40290572,3.2791735,-2.029154
 46\H,0,2.48630065,3.21506148,-2.20286999\C,0,3.03964529,1.70208014,0.0
 545311\H,0,3.28842841,2.76710687,0.10876347\H,0,3.49088464,1.22103892,
 0.92579396\H,0,3.53776591,1.29709783,-0.83164556\C,0,1.21830019,-2.371
 01829,3.67272961\C,0,0.41230102,-0.39558831,4.98819756\H,0,-0.62174458
 ,-0.45543797,4.62094489\H,0,0.59915182,0.65873488,5.21946862\C,0,1.054
 18269,-2.96195461,2.47996826\H,0,0.93173841,-4.04522154,2.4479833\C,0,
 2.83283159,-0.52999602,4.2233603\H,0,2.94683548,0.5149297,4.52864871\H
 ,0,3.17328429,-1.1470234,5.05858675\H,0,3.51119422,-0.71883159,3.38554
 704\C,0,1.26648688,-3.20070998,4.94236406\H,0,1.05970151,-4.25131256,4
 .70078925\H,0,2.26987132,-3.17104044,5.3902439\C,0,0.51917601,-1.21709
 359,6.28121384\H,0,1.50754846,-1.10252042,6.7435456\H,0,-0.21316439,-0
 .85931644,7.01384218\C,0,0.71169396,3.47304216,-3.40350804\H,0,0.87551
 896,2.57984955,-4.01762399\H,0,-0.37397574,3.52946178,-3.23323681\C,0,
 0.28328086,-2.6969297,6.00884519\H,0,-0.74641383,-2.83249614,5.6385530
 5\C,0,1.13845733,4.49250072,-1.1215433\H,0,0.07610249,4.56016915,-0.85
 472015\H,0,1.41354155,5.42746533,-1.61901049\H,0,1.71271542,4.44603461
 ,-0.19385451\C,0,1.1392436,4.69672936,-4.23860795\H,0,0.51230767,4.710
 029,-5.13913772\H,0,0.90549869,5.62276475,-3.70050722\C,0,2.62082086,4
 .68779059,-4.65006601\H,0,2.84933592,3.71787153,-5.11617494\H,0,3.2484
 7061,4.74609562,-3.75076201\C,0,3.07078763,5.80829062,-5.61779622\H,0,
 4.14721087,5.65031083,-5.78106054\C,0,2.90761218,7.21294099,-5.0134847
 4\H,0,3.3997698,7.28695078,-4.03651885\H,0,3.34988675,7.97272869,-5.66
 794967\H,0,1.85182164,7.47396865,-4.87717551\C,0,2.38994671,5.71657556
 ,-6.99362412\H,0,2.5106248,4.71921279,-7.43271208\H,0,2.82321678,6.442
 74341,-7.69091839\H,0,1.31608455,5.92675559,-6.93052547\\Version=EM64L
 -G09RevD.01\HF=-1124.0772959\RMSD=4.555e-07\Dipole=-0.0958946,-0.16789
 52,-0.6629813\Quadrupole=3.8751571,8.4985268,-12.3736839,1.6134177,-2.
 4415692,1.1704872\PG=C01 [X(C27H46O1)]\\@


 WE HAVE LEFT UNDONE THOSE THINGS WHICH WE OUGHT TO HAVE DONE,
 AND WE HAVE DONE THOSE THINGS WHICH WE OUGHT NOT TO HAVE DONE.
                   BOOK OF COMMON PRAYER                      
 Job cpu time:       0 days  0 hours 10 minutes 16.1 seconds.
 File lengths (MBytes):  RWF=    142 Int=      0 D2E=      0 Chk=     10 Scr=      1
 Normal termination of Gaussian 09 at Tue Mar 21 13:04:19 2017.
