 Entering Gaussian System, Link 0=/home/michal/g09/g09
 Input=JOB2-gau_m1-20-1.com
 Output=JOB2-gau_m1-20-1.log
 Initial command:
 /home/michal/g09/l1.exe "/home/michal/gauss_scratch/Gau-21598.inp" -scrdir="/home/michal/gauss_scratch/"
 Entering Link 1 = /home/michal/g09/l1.exe PID=     21599.
  
 Copyright (c) 1988,1990,1992,1993,1995,1998,2003,2009,2013,
            Gaussian, Inc.  All Rights Reserved.
  
 This is part of the Gaussian(R) 09 program.  It is based on
 the Gaussian(R) 03 system (copyright 2003, Gaussian, Inc.),
 the Gaussian(R) 98 system (copyright 1998, Gaussian, Inc.),
 the Gaussian(R) 94 system (copyright 1995, Gaussian, Inc.),
 the Gaussian 92(TM) system (copyright 1992, Gaussian, Inc.),
 the Gaussian 90(TM) system (copyright 1990, Gaussian, Inc.),
 the Gaussian 88(TM) system (copyright 1988, Gaussian, Inc.),
 the Gaussian 86(TM) system (copyright 1986, Carnegie Mellon
 University), and the Gaussian 82(TM) system (copyright 1983,
 Carnegie Mellon University). Gaussian is a federally registered
 trademark of Gaussian, Inc.
  
 This software contains proprietary and confidential information,
 including trade secrets, belonging to Gaussian, Inc.
  
 This software is provided under written license and may be
 used, copied, transmitted, or stored only in accord with that
 written license.
  
 The following legend is applicable only to US Government
 contracts under FAR:
  
                    RESTRICTED RIGHTS LEGEND
  
 Use, reproduction and disclosure by the US Government is
 subject to restrictions as set forth in subparagraphs (a)
 and (c) of the Commercial Computer Software - Restricted
 Rights clause in FAR 52.227-19.
  
 Gaussian, Inc.
 340 Quinnipiac St., Bldg. 40, Wallingford CT 06492
  
  
 ---------------------------------------------------------------
 Warning -- This program may not be used in any manner that
 competes with the business of Gaussian, Inc. or will provide
 assistance to any competitor of Gaussian, Inc.  The licensee
 of this program is prohibited from giving any competitor of
 Gaussian, Inc. access to this program.  By using this program,
 the user acknowledges that Gaussian, Inc. is engaged in the
 business of creating and licensing software in the field of
 computational chemistry and represents and warrants to the
 licensee that it is not a competitor of Gaussian, Inc. and that
 it will not use this program in any manner prohibited above.
 ---------------------------------------------------------------
  

 Cite this work as:
 Gaussian 09, Revision D.01,
 M. J. Frisch, G. W. Trucks, H. B. Schlegel, G. E. Scuseria, 
 M. A. Robb, J. R. Cheeseman, G. Scalmani, V. Barone, B. Mennucci, 
 G. A. Petersson, H. Nakatsuji, M. Caricato, X. Li, H. P. Hratchian, 
 A. F. Izmaylov, J. Bloino, G. Zheng, J. L. Sonnenberg, M. Hada, 
 M. Ehara, K. Toyota, R. Fukuda, J. Hasegawa, M. Ishida, T. Nakajima, 
 Y. Honda, O. Kitao, H. Nakai, T. Vreven, J. A. Montgomery, Jr., 
 J. E. Peralta, F. Ogliaro, M. Bearpark, J. J. Heyd, E. Brothers, 
 K. N. Kudin, V. N. Staroverov, T. Keith, R. Kobayashi, J. Normand, 
 K. Raghavachari, A. Rendell, J. C. Burant, S. S. Iyengar, J. Tomasi, 
 M. Cossi, N. Rega, J. M. Millam, M. Klene, J. E. Knox, J. B. Cross, 
 V. Bakken, C. Adamo, J. Jaramillo, R. Gomperts, R. E. Stratmann, 
 O. Yazyev, A. J. Austin, R. Cammi, C. Pomelli, J. W. Ochterski, 
 R. L. Martin, K. Morokuma, V. G. Zakrzewski, G. A. Voth, 
 P. Salvador, J. J. Dannenberg, S. Dapprich, A. D. Daniels, 
 O. Farkas, J. B. Foresman, J. V. Ortiz, J. Cioslowski, 
 and D. J. Fox, Gaussian, Inc., Wallingford CT, 2013.
 
 ******************************************
 Gaussian 09:  EM64L-G09RevD.01 24-Apr-2013
                21-Mar-2017 
 ******************************************
 %Mem=256MB
 %NProc=12
 Will use up to   12 processors via shared memory.
 ----------------------------------------------------------------------
 #P HF/6-31G* SCF(Conver=6) NoSymm Test Pop=mk IOp(6/33=2) GFInput GFPr
 int
 ----------------------------------------------------------------------
 1/38=1/1;
 2/12=2,15=1,17=6,18=5,40=1/2;
 3/5=1,6=6,7=1,11=9,16=1,24=110,25=1,30=1/1,2,3;
 4//1;
 5/5=2,6=6,38=5/2;
 6/7=2,8=2,9=2,10=2,15=8,20=1,28=1,33=2/1,2;
 99/5=1,9=1/99;
 Leave Link    1 at Tue Mar 21 12:55:26 2017, MaxMem=    33554432 cpu:         1.3
 (Enter /home/michal/g09/l101.exe)
 ----------------------------------------------
 MEP - Input generated by R.E.D.-III.x MOLECULE
 ----------------------------------------------
 Symbolic Z-matrix:
 Charge =  0 Multiplicity = 1
 O                     4.99592  -0.22215  -7.2552 
 H                     5.94728  -0.30942  -7.10941 
 C                     0.        0.        0. 
 C                     1.55453   0.        0. 
 H                     1.84032   1.06615   0. 
 C                     2.213    -0.60347  -1.24746 
 H                     1.94635  -1.66758  -1.31832 
 C                     1.70951   0.1332   -2.51644 
 H                     2.11469   1.15608  -2.44252 
 C                    -0.26826   0.64651   1.40331 
 H                    -0.01588   1.71155   1.29275 
 C                    -0.43587   0.82113  -1.2308 
 H                    -0.11097   1.86249  -1.09157 
 H                    -1.52532   0.84671  -1.33591 
 C                     2.3045   -0.46412  -3.83997 
 C                     1.93764  -0.54971   1.38293 
 H                     2.93303  -0.22359   1.70066 
 H                     1.95323  -1.6467    1.37378 
 C                     0.16866   0.26443  -2.53658 
 H                    -0.28485  -0.71105  -2.74201 
 H                    -0.13481   0.91636  -3.36354 
 C                     0.81629  -0.01513   2.31699 
 H                     0.37564  -0.83237   2.90014 
 H                     1.20784   0.70334   3.04392 
 C                     3.74482  -0.50749  -1.16142 
 H                     4.12834  -1.23717  -0.43587 
 H                     4.02898   0.47931  -0.75932 
 C                    -1.68704   0.57092   2.02017 
 H                    -1.93239  -0.49393   2.14519 
 C                    -0.59392  -1.42596  -0.05798 
 H                    -1.68724  -1.38663  -0.1095 
 H                    -0.25056  -1.98387  -0.93254 
 H                    -0.33095  -2.0166    0.82489 
 C                     3.80997  -0.71748  -3.67682 
 C                     2.10912   0.57593  -4.987 
 H                     2.43546   1.55825  -4.61786 
 H                     1.04208   0.66927  -5.21659 
 C                     4.42497  -0.71453  -2.48497 
 H                     5.50299  -0.87702  -2.45478 
 C                     1.61314  -1.7987   -4.22773 
 H                     0.57431  -1.6374   -4.53239 
 H                     2.1208   -2.28533  -5.06423 
 H                     1.62008  -2.50481  -3.39163 
 C                     4.59681  -0.97633  -4.94823 
 H                     5.66546  -1.04969  -4.70847 
 H                     4.30716  -1.93664  -5.39787 
 C                     2.873     0.26299  -6.28185 
 H                     2.50546  -0.66066  -6.7461 
 H                     2.71639   1.06496  -7.01219 
 C                    -1.73931   1.17689   3.44954 
 H                    -2.75094   1.00285   3.84449 
 H                    -1.06454   0.61151   4.10213 
 C                     4.36379   0.10637  -6.01186 
 H                     4.76231   1.06478  -5.63986 
 C                    -2.78411   1.18884   1.13281 
 H                    -2.52967   2.20497   0.81178 
 H                    -3.73359   1.2411    1.67876 
 H                    -2.96108   0.59644   0.23169 
 C                    -1.42619   2.67841   3.5672 
 H                    -0.38566   2.87071   3.27753 
 H                    -2.04312   3.23651   2.85188 
 C                    -1.69264   3.26566   4.96655 
 H                    -2.75275   3.10735   5.21235 
 H                    -1.55204   4.356     4.92283 
 C                    -0.83692   2.7191    6.12928 
 H                    -0.97291   1.6292    6.17636 
 C                    -1.32512   3.30129   7.4656 
 H                    -2.38315   3.07291   7.6382 
 H                    -0.75288   2.89784   8.30884 
 H                    -1.21361   4.39321   7.48049 
 C                     0.66176   3.00019   5.93636 
 H                     1.05601   2.53471   5.0273 
 H                     1.24433   2.61637   6.78162 
 H                     0.84913   4.07971   5.86661 
 
 NAtoms=     74 NQM=       74 NQMF=       0 NMMI=      0 NMMIF=      0
                NMic=       0 NMicF=      0.
                    Isotopes and Nuclear Properties:
 (Nuclear quadrupole moments (NQMom) in fm**2, nuclear magnetic moments (NMagM)
  in nuclear magnetons)

  Atom         1           2           3           4           5           6           7           8           9          10
 IAtWgt=          16           1          12          12           1          12           1          12           1          12
 AtmWgt=  15.9949146   1.0078250  12.0000000  12.0000000   1.0078250  12.0000000   1.0078250  12.0000000   1.0078250  12.0000000
 NucSpn=           0           1           0           0           1           0           1           0           1           0
 AtZEff=   0.0000000   0.0000000   0.0000000   0.0000000   0.0000000   0.0000000   0.0000000   0.0000000   0.0000000   0.0000000
 NQMom=    0.0000000   0.0000000   0.0000000   0.0000000   0.0000000   0.0000000   0.0000000   0.0000000   0.0000000   0.0000000
 NMagM=    0.0000000   2.7928460   0.0000000   0.0000000   2.7928460   0.0000000   2.7928460   0.0000000   2.7928460   0.0000000
 AtZNuc=   8.0000000   1.0000000   6.0000000   6.0000000   1.0000000   6.0000000   1.0000000   6.0000000   1.0000000   6.0000000

  Atom        11          12          13          14          15          16          17          18          19          20
 IAtWgt=           1          12           1           1          12          12           1           1          12           1
 AtmWgt=   1.0078250  12.0000000   1.0078250   1.0078250  12.0000000  12.0000000   1.0078250   1.0078250  12.0000000   1.0078250
 NucSpn=           1           0           1           1           0           0           1           1           0           1
 AtZEff=   0.0000000   0.0000000   0.0000000   0.0000000   0.0000000   0.0000000   0.0000000   0.0000000   0.0000000   0.0000000
 NQMom=    0.0000000   0.0000000   0.0000000   0.0000000   0.0000000   0.0000000   0.0000000   0.0000000   0.0000000   0.0000000
 NMagM=    2.7928460   0.0000000   2.7928460   2.7928460   0.0000000   0.0000000   2.7928460   2.7928460   0.0000000   2.7928460
 AtZNuc=   1.0000000   6.0000000   1.0000000   1.0000000   6.0000000   6.0000000   1.0000000   1.0000000   6.0000000   1.0000000

  Atom        21          22          23          24          25          26          27          28          29          30
 IAtWgt=           1          12           1           1          12           1           1          12           1          12
 AtmWgt=   1.0078250  12.0000000   1.0078250   1.0078250  12.0000000   1.0078250   1.0078250  12.0000000   1.0078250  12.0000000
 NucSpn=           1           0           1           1           0           1           1           0           1           0
 AtZEff=   0.0000000   0.0000000   0.0000000   0.0000000   0.0000000   0.0000000   0.0000000   0.0000000   0.0000000   0.0000000
 NQMom=    0.0000000   0.0000000   0.0000000   0.0000000   0.0000000   0.0000000   0.0000000   0.0000000   0.0000000   0.0000000
 NMagM=    2.7928460   0.0000000   2.7928460   2.7928460   0.0000000   2.7928460   2.7928460   0.0000000   2.7928460   0.0000000
 AtZNuc=   1.0000000   6.0000000   1.0000000   1.0000000   6.0000000   1.0000000   1.0000000   6.0000000   1.0000000   6.0000000

  Atom        31          32          33          34          35          36          37          38          39          40
 IAtWgt=           1           1           1          12          12           1           1          12           1          12
 AtmWgt=   1.0078250   1.0078250   1.0078250  12.0000000  12.0000000   1.0078250   1.0078250  12.0000000   1.0078250  12.0000000
 NucSpn=           1           1           1           0           0           1           1           0           1           0
 AtZEff=   0.0000000   0.0000000   0.0000000   0.0000000   0.0000000   0.0000000   0.0000000   0.0000000   0.0000000   0.0000000
 NQMom=    0.0000000   0.0000000   0.0000000   0.0000000   0.0000000   0.0000000   0.0000000   0.0000000   0.0000000   0.0000000
 NMagM=    2.7928460   2.7928460   2.7928460   0.0000000   0.0000000   2.7928460   2.7928460   0.0000000   2.7928460   0.0000000
 AtZNuc=   1.0000000   1.0000000   1.0000000   6.0000000   6.0000000   1.0000000   1.0000000   6.0000000   1.0000000   6.0000000

  Atom        41          42          43          44          45          46          47          48          49          50
 IAtWgt=           1           1           1          12           1           1          12           1           1          12
 AtmWgt=   1.0078250   1.0078250   1.0078250  12.0000000   1.0078250   1.0078250  12.0000000   1.0078250   1.0078250  12.0000000
 NucSpn=           1           1           1           0           1           1           0           1           1           0
 AtZEff=   0.0000000   0.0000000   0.0000000   0.0000000   0.0000000   0.0000000   0.0000000   0.0000000   0.0000000   0.0000000
 NQMom=    0.0000000   0.0000000   0.0000000   0.0000000   0.0000000   0.0000000   0.0000000   0.0000000   0.0000000   0.0000000
 NMagM=    2.7928460   2.7928460   2.7928460   0.0000000   2.7928460   2.7928460   0.0000000   2.7928460   2.7928460   0.0000000
 AtZNuc=   1.0000000   1.0000000   1.0000000   6.0000000   1.0000000   1.0000000   6.0000000   1.0000000   1.0000000   6.0000000

  Atom        51          52          53          54          55          56          57          58          59          60
 IAtWgt=           1           1          12           1          12           1           1           1          12           1
 AtmWgt=   1.0078250   1.0078250  12.0000000   1.0078250  12.0000000   1.0078250   1.0078250   1.0078250  12.0000000   1.0078250
 NucSpn=           1           1           0           1           0           1           1           1           0           1
 AtZEff=   0.0000000   0.0000000   0.0000000   0.0000000   0.0000000   0.0000000   0.0000000   0.0000000   0.0000000   0.0000000
 NQMom=    0.0000000   0.0000000   0.0000000   0.0000000   0.0000000   0.0000000   0.0000000   0.0000000   0.0000000   0.0000000
 NMagM=    2.7928460   2.7928460   0.0000000   2.7928460   0.0000000   2.7928460   2.7928460   2.7928460   0.0000000   2.7928460
 AtZNuc=   1.0000000   1.0000000   6.0000000   1.0000000   6.0000000   1.0000000   1.0000000   1.0000000   6.0000000   1.0000000

  Atom        61          62          63          64          65          66          67          68          69          70
 IAtWgt=           1          12           1           1          12           1          12           1           1           1
 AtmWgt=   1.0078250  12.0000000   1.0078250   1.0078250  12.0000000   1.0078250  12.0000000   1.0078250   1.0078250   1.0078250
 NucSpn=           1           0           1           1           0           1           0           1           1           1
 AtZEff=   0.0000000   0.0000000   0.0000000   0.0000000   0.0000000   0.0000000   0.0000000   0.0000000   0.0000000   0.0000000
 NQMom=    0.0000000   0.0000000   0.0000000   0.0000000   0.0000000   0.0000000   0.0000000   0.0000000   0.0000000   0.0000000
 NMagM=    2.7928460   0.0000000   2.7928460   2.7928460   0.0000000   2.7928460   0.0000000   2.7928460   2.7928460   2.7928460
 AtZNuc=   1.0000000   6.0000000   1.0000000   1.0000000   6.0000000   1.0000000   6.0000000   1.0000000   1.0000000   1.0000000

  Atom        71          72          73          74
 IAtWgt=          12           1           1           1
 AtmWgt=  12.0000000   1.0078250   1.0078250   1.0078250
 NucSpn=           0           1           1           1
 AtZEff=   0.0000000   0.0000000   0.0000000   0.0000000
 NQMom=    0.0000000   0.0000000   0.0000000   0.0000000
 NMagM=    0.0000000   2.7928460   2.7928460   2.7928460
 AtZNuc=   6.0000000   1.0000000   1.0000000   1.0000000
 Leave Link  101 at Tue Mar 21 12:55:27 2017, MaxMem=    33554432 cpu:         1.0
 (Enter /home/michal/g09/l202.exe)
 Symmetry turned off by external request.
 Stoichiometry    C27H46O
 Framework group  C1[X(C27H46O)]
 Deg. of freedom   216
 Full point group                 C1      NOp   1
                          Input orientation:                          
 ---------------------------------------------------------------------
 Center     Atomic      Atomic             Coordinates (Angstroms)
 Number     Number       Type             X           Y           Z
 ---------------------------------------------------------------------
      1          8           0        4.995920   -0.222151   -7.255199
      2          1           0        5.947279   -0.309424   -7.109413
      3          6           0        0.000000    0.000000    0.000000
      4          6           0        1.554526    0.000000    0.000000
      5          1           0        1.840319    1.066155    0.000000
      6          6           0        2.213002   -0.603475   -1.247458
      7          1           0        1.946347   -1.667582   -1.318315
      8          6           0        1.709507    0.133204   -2.516441
      9          1           0        2.114690    1.156085   -2.442517
     10          6           0       -0.268255    0.646509    1.403313
     11          1           0       -0.015881    1.711547    1.292750
     12          6           0       -0.435871    0.821128   -1.230803
     13          1           0       -0.110972    1.862493   -1.091573
     14          1           0       -1.525320    0.846714   -1.335912
     15          6           0        2.304497   -0.464118   -3.839968
     16          6           0        1.937641   -0.549714    1.382930
     17          1           0        2.933030   -0.223585    1.700660
     18          1           0        1.953232   -1.646698    1.373784
     19          6           0        0.168660    0.264425   -2.536581
     20          1           0       -0.284845   -0.711052   -2.742012
     21          1           0       -0.134813    0.916356   -3.363540
     22          6           0        0.816287   -0.015131    2.316995
     23          1           0        0.375642   -0.832367    2.900144
     24          1           0        1.207839    0.703341    3.043921
     25          6           0        3.744820   -0.507486   -1.161415
     26          1           0        4.128341   -1.237165   -0.435865
     27          1           0        4.028983    0.479314   -0.759320
     28          6           0       -1.687043    0.570915    2.020166
     29          1           0       -1.932394   -0.493935    2.145186
     30          6           0       -0.593924   -1.425964   -0.057978
     31          1           0       -1.687243   -1.386626   -0.109501
     32          1           0       -0.250565   -1.983871   -0.932540
     33          1           0       -0.330954   -2.016599    0.824886
     34          6           0        3.809966   -0.717483   -3.676821
     35          6           0        2.109118    0.575928   -4.986999
     36          1           0        2.435461    1.558252   -4.617861
     37          1           0        1.042082    0.669275   -5.216591
     38          6           0        4.424966   -0.714532   -2.484966
     39          1           0        5.502995   -0.877020   -2.454783
     40          6           0        1.613144   -1.798703   -4.227733
     41          1           0        0.574307   -1.637403   -4.532385
     42          1           0        2.120797   -2.285326   -5.064226
     43          1           0        1.620083   -2.504810   -3.391634
     44          6           0        4.596813   -0.976333   -4.948228
     45          1           0        5.665464   -1.049690   -4.708472
     46          1           0        4.307160   -1.936644   -5.397867
     47          6           0        2.872997    0.262994   -6.281849
     48          1           0        2.505465   -0.660655   -6.746102
     49          1           0        2.716391    1.064960   -7.012185
     50          6           0       -1.739305    1.176886    3.449538
     51          1           0       -2.750941    1.002847    3.844494
     52          1           0       -1.064537    0.611515    4.102127
     53          6           0        4.363789    0.106370   -6.011860
     54          1           0        4.762312    1.064784   -5.639857
     55          6           0       -2.784108    1.188838    1.132811
     56          1           0       -2.529670    2.204973    0.811780
     57          1           0       -3.733592    1.241099    1.678761
     58          1           0       -2.961081    0.596435    0.231688
     59          6           0       -1.426190    2.678408    3.567198
     60          1           0       -0.385660    2.870706    3.277532
     61          1           0       -2.043116    3.236506    2.851884
     62          6           0       -1.692643    3.265662    4.966554
     63          1           0       -2.752755    3.107353    5.212350
     64          1           0       -1.552039    4.355997    4.922829
     65          6           0       -0.836924    2.719095    6.129285
     66          1           0       -0.972914    1.629198    6.176364
     67          6           0       -1.325120    3.301289    7.465603
     68          1           0       -2.383152    3.072910    7.638196
     69          1           0       -0.752879    2.897840    8.308836
     70          1           0       -1.213615    4.393212    7.480490
     71          6           0        0.661765    3.000188    5.936363
     72          1           0        1.056013    2.534711    5.027300
     73          1           0        1.244333    2.616367    6.781618
     74          1           0        0.849126    4.079713    5.866612
 ---------------------------------------------------------------------
 Rotational constants (GHZ):      0.4590464      0.0609665      0.0583381
 Leave Link  202 at Tue Mar 21 12:55:27 2017, MaxMem=    33554432 cpu:         0.0
 (Enter /home/michal/g09/l301.exe)
 Standard basis: 6-31G(d) (6D, 7F)
 Ernie: Thresh=  0.10000D-02 Tol=  0.10000D-05 Strict=F.
 AO basis set in the form of general basis input (Overlap normalization):
      1 0
 S   6 1.00       0.000000000000
      0.5484671660D+04  0.1831074430D-02
      0.8252349460D+03  0.1395017220D-01
      0.1880469580D+03  0.6844507810D-01
      0.5296450000D+02  0.2327143360D+00
      0.1689757040D+02  0.4701928980D+00
      0.5799635340D+01  0.3585208530D+00
 SP   3 1.00       0.000000000000
      0.1553961625D+02 -0.1107775495D+00  0.7087426823D-01
      0.3599933586D+01 -0.1480262627D+00  0.3397528391D+00
      0.1013761750D+01  0.1130767015D+01  0.7271585773D+00
 SP   1 1.00       0.000000000000
      0.2700058226D+00  0.1000000000D+01  0.1000000000D+01
 D   1 1.00       0.000000000000
      0.8000000000D+00  0.1000000000D+01
 ****
      2 0
 S   3 1.00       0.000000000000
      0.1873113696D+02  0.3349460434D-01
      0.2825394365D+01  0.2347269535D+00
      0.6401216923D+00  0.8137573261D+00
 S   1 1.00       0.000000000000
      0.1612777588D+00  0.1000000000D+01
 ****
      3 0
 S   6 1.00       0.000000000000
      0.3047524880D+04  0.1834737132D-02
      0.4573695180D+03  0.1403732281D-01
      0.1039486850D+03  0.6884262226D-01
      0.2921015530D+02  0.2321844432D+00
      0.9286662960D+01  0.4679413484D+00
      0.3163926960D+01  0.3623119853D+00
 SP   3 1.00       0.000000000000
      0.7868272350D+01 -0.1193324198D+00  0.6899906659D-01
      0.1881288540D+01 -0.1608541517D+00  0.3164239610D+00
      0.5442492580D+00  0.1143456438D+01  0.7443082909D+00
 SP   1 1.00       0.000000000000
      0.1687144782D+00  0.1000000000D+01  0.1000000000D+01
 D   1 1.00       0.000000000000
      0.8000000000D+00  0.1000000000D+01
 ****
      4 0
 S   6 1.00       0.000000000000
      0.3047524880D+04  0.1834737132D-02
      0.4573695180D+03  0.1403732281D-01
      0.1039486850D+03  0.6884262226D-01
      0.2921015530D+02  0.2321844432D+00
      0.9286662960D+01  0.4679413484D+00
      0.3163926960D+01  0.3623119853D+00
 SP   3 1.00       0.000000000000
      0.7868272350D+01 -0.1193324198D+00  0.6899906659D-01
      0.1881288540D+01 -0.1608541517D+00  0.3164239610D+00
      0.5442492580D+00  0.1143456438D+01  0.7443082909D+00
 SP   1 1.00       0.000000000000
      0.1687144782D+00  0.1000000000D+01  0.1000000000D+01
 D   1 1.00       0.000000000000
      0.8000000000D+00  0.1000000000D+01
 ****
      5 0
 S   3 1.00       0.000000000000
      0.1873113696D+02  0.3349460434D-01
      0.2825394365D+01  0.2347269535D+00
      0.6401216923D+00  0.8137573261D+00
 S   1 1.00       0.000000000000
      0.1612777588D+00  0.1000000000D+01
 ****
      6 0
 S   6 1.00       0.000000000000
      0.3047524880D+04  0.1834737132D-02
      0.4573695180D+03  0.1403732281D-01
      0.1039486850D+03  0.6884262226D-01
      0.2921015530D+02  0.2321844432D+00
      0.9286662960D+01  0.4679413484D+00
      0.3163926960D+01  0.3623119853D+00
 SP   3 1.00       0.000000000000
      0.7868272350D+01 -0.1193324198D+00  0.6899906659D-01
      0.1881288540D+01 -0.1608541517D+00  0.3164239610D+00
      0.5442492580D+00  0.1143456438D+01  0.7443082909D+00
 SP   1 1.00       0.000000000000
      0.1687144782D+00  0.1000000000D+01  0.1000000000D+01
 D   1 1.00       0.000000000000
      0.8000000000D+00  0.1000000000D+01
 ****
      7 0
 S   3 1.00       0.000000000000
      0.1873113696D+02  0.3349460434D-01
      0.2825394365D+01  0.2347269535D+00
      0.6401216923D+00  0.8137573261D+00
 S   1 1.00       0.000000000000
      0.1612777588D+00  0.1000000000D+01
 ****
      8 0
 S   6 1.00       0.000000000000
      0.3047524880D+04  0.1834737132D-02
      0.4573695180D+03  0.1403732281D-01
      0.1039486850D+03  0.6884262226D-01
      0.2921015530D+02  0.2321844432D+00
      0.9286662960D+01  0.4679413484D+00
      0.3163926960D+01  0.3623119853D+00
 SP   3 1.00       0.000000000000
      0.7868272350D+01 -0.1193324198D+00  0.6899906659D-01
      0.1881288540D+01 -0.1608541517D+00  0.3164239610D+00
      0.5442492580D+00  0.1143456438D+01  0.7443082909D+00
 SP   1 1.00       0.000000000000
      0.1687144782D+00  0.1000000000D+01  0.1000000000D+01
 D   1 1.00       0.000000000000
      0.8000000000D+00  0.1000000000D+01
 ****
      9 0
 S   3 1.00       0.000000000000
      0.1873113696D+02  0.3349460434D-01
      0.2825394365D+01  0.2347269535D+00
      0.6401216923D+00  0.8137573261D+00
 S   1 1.00       0.000000000000
      0.1612777588D+00  0.1000000000D+01
 ****
     10 0
 S   6 1.00       0.000000000000
      0.3047524880D+04  0.1834737132D-02
      0.4573695180D+03  0.1403732281D-01
      0.1039486850D+03  0.6884262226D-01
      0.2921015530D+02  0.2321844432D+00
      0.9286662960D+01  0.4679413484D+00
      0.3163926960D+01  0.3623119853D+00
 SP   3 1.00       0.000000000000
      0.7868272350D+01 -0.1193324198D+00  0.6899906659D-01
      0.1881288540D+01 -0.1608541517D+00  0.3164239610D+00
      0.5442492580D+00  0.1143456438D+01  0.7443082909D+00
 SP   1 1.00       0.000000000000
      0.1687144782D+00  0.1000000000D+01  0.1000000000D+01
 D   1 1.00       0.000000000000
      0.8000000000D+00  0.1000000000D+01
 ****
     11 0
 S   3 1.00       0.000000000000
      0.1873113696D+02  0.3349460434D-01
      0.2825394365D+01  0.2347269535D+00
      0.6401216923D+00  0.8137573261D+00
 S   1 1.00       0.000000000000
      0.1612777588D+00  0.1000000000D+01
 ****
     12 0
 S   6 1.00       0.000000000000
      0.3047524880D+04  0.1834737132D-02
      0.4573695180D+03  0.1403732281D-01
      0.1039486850D+03  0.6884262226D-01
      0.2921015530D+02  0.2321844432D+00
      0.9286662960D+01  0.4679413484D+00
      0.3163926960D+01  0.3623119853D+00
 SP   3 1.00       0.000000000000
      0.7868272350D+01 -0.1193324198D+00  0.6899906659D-01
      0.1881288540D+01 -0.1608541517D+00  0.3164239610D+00
      0.5442492580D+00  0.1143456438D+01  0.7443082909D+00
 SP   1 1.00       0.000000000000
      0.1687144782D+00  0.1000000000D+01  0.1000000000D+01
 D   1 1.00       0.000000000000
      0.8000000000D+00  0.1000000000D+01
 ****
     13 0
 S   3 1.00       0.000000000000
      0.1873113696D+02  0.3349460434D-01
      0.2825394365D+01  0.2347269535D+00
      0.6401216923D+00  0.8137573261D+00
 S   1 1.00       0.000000000000
      0.1612777588D+00  0.1000000000D+01
 ****
     14 0
 S   3 1.00       0.000000000000
      0.1873113696D+02  0.3349460434D-01
      0.2825394365D+01  0.2347269535D+00
      0.6401216923D+00  0.8137573261D+00
 S   1 1.00       0.000000000000
      0.1612777588D+00  0.1000000000D+01
 ****
     15 0
 S   6 1.00       0.000000000000
      0.3047524880D+04  0.1834737132D-02
      0.4573695180D+03  0.1403732281D-01
      0.1039486850D+03  0.6884262226D-01
      0.2921015530D+02  0.2321844432D+00
      0.9286662960D+01  0.4679413484D+00
      0.3163926960D+01  0.3623119853D+00
 SP   3 1.00       0.000000000000
      0.7868272350D+01 -0.1193324198D+00  0.6899906659D-01
      0.1881288540D+01 -0.1608541517D+00  0.3164239610D+00
      0.5442492580D+00  0.1143456438D+01  0.7443082909D+00
 SP   1 1.00       0.000000000000
      0.1687144782D+00  0.1000000000D+01  0.1000000000D+01
 D   1 1.00       0.000000000000
      0.8000000000D+00  0.1000000000D+01
 ****
     16 0
 S   6 1.00       0.000000000000
      0.3047524880D+04  0.1834737132D-02
      0.4573695180D+03  0.1403732281D-01
      0.1039486850D+03  0.6884262226D-01
      0.2921015530D+02  0.2321844432D+00
      0.9286662960D+01  0.4679413484D+00
      0.3163926960D+01  0.3623119853D+00
 SP   3 1.00       0.000000000000
      0.7868272350D+01 -0.1193324198D+00  0.6899906659D-01
      0.1881288540D+01 -0.1608541517D+00  0.3164239610D+00
      0.5442492580D+00  0.1143456438D+01  0.7443082909D+00
 SP   1 1.00       0.000000000000
      0.1687144782D+00  0.1000000000D+01  0.1000000000D+01
 D   1 1.00       0.000000000000
      0.8000000000D+00  0.1000000000D+01
 ****
     17 0
 S   3 1.00       0.000000000000
      0.1873113696D+02  0.3349460434D-01
      0.2825394365D+01  0.2347269535D+00
      0.6401216923D+00  0.8137573261D+00
 S   1 1.00       0.000000000000
      0.1612777588D+00  0.1000000000D+01
 ****
     18 0
 S   3 1.00       0.000000000000
      0.1873113696D+02  0.3349460434D-01
      0.2825394365D+01  0.2347269535D+00
      0.6401216923D+00  0.8137573261D+00
 S   1 1.00       0.000000000000
      0.1612777588D+00  0.1000000000D+01
 ****
     19 0
 S   6 1.00       0.000000000000
      0.3047524880D+04  0.1834737132D-02
      0.4573695180D+03  0.1403732281D-01
      0.1039486850D+03  0.6884262226D-01
      0.2921015530D+02  0.2321844432D+00
      0.9286662960D+01  0.4679413484D+00
      0.3163926960D+01  0.3623119853D+00
 SP   3 1.00       0.000000000000
      0.7868272350D+01 -0.1193324198D+00  0.6899906659D-01
      0.1881288540D+01 -0.1608541517D+00  0.3164239610D+00
      0.5442492580D+00  0.1143456438D+01  0.7443082909D+00
 SP   1 1.00       0.000000000000
      0.1687144782D+00  0.1000000000D+01  0.1000000000D+01
 D   1 1.00       0.000000000000
      0.8000000000D+00  0.1000000000D+01
 ****
     20 0
 S   3 1.00       0.000000000000
      0.1873113696D+02  0.3349460434D-01
      0.2825394365D+01  0.2347269535D+00
      0.6401216923D+00  0.8137573261D+00
 S   1 1.00       0.000000000000
      0.1612777588D+00  0.1000000000D+01
 ****
     21 0
 S   3 1.00       0.000000000000
      0.1873113696D+02  0.3349460434D-01
      0.2825394365D+01  0.2347269535D+00
      0.6401216923D+00  0.8137573261D+00
 S   1 1.00       0.000000000000
      0.1612777588D+00  0.1000000000D+01
 ****
     22 0
 S   6 1.00       0.000000000000
      0.3047524880D+04  0.1834737132D-02
      0.4573695180D+03  0.1403732281D-01
      0.1039486850D+03  0.6884262226D-01
      0.2921015530D+02  0.2321844432D+00
      0.9286662960D+01  0.4679413484D+00
      0.3163926960D+01  0.3623119853D+00
 SP   3 1.00       0.000000000000
      0.7868272350D+01 -0.1193324198D+00  0.6899906659D-01
      0.1881288540D+01 -0.1608541517D+00  0.3164239610D+00
      0.5442492580D+00  0.1143456438D+01  0.7443082909D+00
 SP   1 1.00       0.000000000000
      0.1687144782D+00  0.1000000000D+01  0.1000000000D+01
 D   1 1.00       0.000000000000
      0.8000000000D+00  0.1000000000D+01
 ****
     23 0
 S   3 1.00       0.000000000000
      0.1873113696D+02  0.3349460434D-01
      0.2825394365D+01  0.2347269535D+00
      0.6401216923D+00  0.8137573261D+00
 S   1 1.00       0.000000000000
      0.1612777588D+00  0.1000000000D+01
 ****
     24 0
 S   3 1.00       0.000000000000
      0.1873113696D+02  0.3349460434D-01
      0.2825394365D+01  0.2347269535D+00
      0.6401216923D+00  0.8137573261D+00
 S   1 1.00       0.000000000000
      0.1612777588D+00  0.1000000000D+01
 ****
     25 0
 S   6 1.00       0.000000000000
      0.3047524880D+04  0.1834737132D-02
      0.4573695180D+03  0.1403732281D-01
      0.1039486850D+03  0.6884262226D-01
      0.2921015530D+02  0.2321844432D+00
      0.9286662960D+01  0.4679413484D+00
      0.3163926960D+01  0.3623119853D+00
 SP   3 1.00       0.000000000000
      0.7868272350D+01 -0.1193324198D+00  0.6899906659D-01
      0.1881288540D+01 -0.1608541517D+00  0.3164239610D+00
      0.5442492580D+00  0.1143456438D+01  0.7443082909D+00
 SP   1 1.00       0.000000000000
      0.1687144782D+00  0.1000000000D+01  0.1000000000D+01
 D   1 1.00       0.000000000000
      0.8000000000D+00  0.1000000000D+01
 ****
     26 0
 S   3 1.00       0.000000000000
      0.1873113696D+02  0.3349460434D-01
      0.2825394365D+01  0.2347269535D+00
      0.6401216923D+00  0.8137573261D+00
 S   1 1.00       0.000000000000
      0.1612777588D+00  0.1000000000D+01
 ****
     27 0
 S   3 1.00       0.000000000000
      0.1873113696D+02  0.3349460434D-01
      0.2825394365D+01  0.2347269535D+00
      0.6401216923D+00  0.8137573261D+00
 S   1 1.00       0.000000000000
      0.1612777588D+00  0.1000000000D+01
 ****
     28 0
 S   6 1.00       0.000000000000
      0.3047524880D+04  0.1834737132D-02
      0.4573695180D+03  0.1403732281D-01
      0.1039486850D+03  0.6884262226D-01
      0.2921015530D+02  0.2321844432D+00
      0.9286662960D+01  0.4679413484D+00
      0.3163926960D+01  0.3623119853D+00
 SP   3 1.00       0.000000000000
      0.7868272350D+01 -0.1193324198D+00  0.6899906659D-01
      0.1881288540D+01 -0.1608541517D+00  0.3164239610D+00
      0.5442492580D+00  0.1143456438D+01  0.7443082909D+00
 SP   1 1.00       0.000000000000
      0.1687144782D+00  0.1000000000D+01  0.1000000000D+01
 D   1 1.00       0.000000000000
      0.8000000000D+00  0.1000000000D+01
 ****
     29 0
 S   3 1.00       0.000000000000
      0.1873113696D+02  0.3349460434D-01
      0.2825394365D+01  0.2347269535D+00
      0.6401216923D+00  0.8137573261D+00
 S   1 1.00       0.000000000000
      0.1612777588D+00  0.1000000000D+01
 ****
     30 0
 S   6 1.00       0.000000000000
      0.3047524880D+04  0.1834737132D-02
      0.4573695180D+03  0.1403732281D-01
      0.1039486850D+03  0.6884262226D-01
      0.2921015530D+02  0.2321844432D+00
      0.9286662960D+01  0.4679413484D+00
      0.3163926960D+01  0.3623119853D+00
 SP   3 1.00       0.000000000000
      0.7868272350D+01 -0.1193324198D+00  0.6899906659D-01
      0.1881288540D+01 -0.1608541517D+00  0.3164239610D+00
      0.5442492580D+00  0.1143456438D+01  0.7443082909D+00
 SP   1 1.00       0.000000000000
      0.1687144782D+00  0.1000000000D+01  0.1000000000D+01
 D   1 1.00       0.000000000000
      0.8000000000D+00  0.1000000000D+01
 ****
     31 0
 S   3 1.00       0.000000000000
      0.1873113696D+02  0.3349460434D-01
      0.2825394365D+01  0.2347269535D+00
      0.6401216923D+00  0.8137573261D+00
 S   1 1.00       0.000000000000
      0.1612777588D+00  0.1000000000D+01
 ****
     32 0
 S   3 1.00       0.000000000000
      0.1873113696D+02  0.3349460434D-01
      0.2825394365D+01  0.2347269535D+00
      0.6401216923D+00  0.8137573261D+00
 S   1 1.00       0.000000000000
      0.1612777588D+00  0.1000000000D+01
 ****
     33 0
 S   3 1.00       0.000000000000
      0.1873113696D+02  0.3349460434D-01
      0.2825394365D+01  0.2347269535D+00
      0.6401216923D+00  0.8137573261D+00
 S   1 1.00       0.000000000000
      0.1612777588D+00  0.1000000000D+01
 ****
     34 0
 S   6 1.00       0.000000000000
      0.3047524880D+04  0.1834737132D-02
      0.4573695180D+03  0.1403732281D-01
      0.1039486850D+03  0.6884262226D-01
      0.2921015530D+02  0.2321844432D+00
      0.9286662960D+01  0.4679413484D+00
      0.3163926960D+01  0.3623119853D+00
 SP   3 1.00       0.000000000000
      0.7868272350D+01 -0.1193324198D+00  0.6899906659D-01
      0.1881288540D+01 -0.1608541517D+00  0.3164239610D+00
      0.5442492580D+00  0.1143456438D+01  0.7443082909D+00
 SP   1 1.00       0.000000000000
      0.1687144782D+00  0.1000000000D+01  0.1000000000D+01
 D   1 1.00       0.000000000000
      0.8000000000D+00  0.1000000000D+01
 ****
     35 0
 S   6 1.00       0.000000000000
      0.3047524880D+04  0.1834737132D-02
      0.4573695180D+03  0.1403732281D-01
      0.1039486850D+03  0.6884262226D-01
      0.2921015530D+02  0.2321844432D+00
      0.9286662960D+01  0.4679413484D+00
      0.3163926960D+01  0.3623119853D+00
 SP   3 1.00       0.000000000000
      0.7868272350D+01 -0.1193324198D+00  0.6899906659D-01
      0.1881288540D+01 -0.1608541517D+00  0.3164239610D+00
      0.5442492580D+00  0.1143456438D+01  0.7443082909D+00
 SP   1 1.00       0.000000000000
      0.1687144782D+00  0.1000000000D+01  0.1000000000D+01
 D   1 1.00       0.000000000000
      0.8000000000D+00  0.1000000000D+01
 ****
     36 0
 S   3 1.00       0.000000000000
      0.1873113696D+02  0.3349460434D-01
      0.2825394365D+01  0.2347269535D+00
      0.6401216923D+00  0.8137573261D+00
 S   1 1.00       0.000000000000
      0.1612777588D+00  0.1000000000D+01
 ****
     37 0
 S   3 1.00       0.000000000000
      0.1873113696D+02  0.3349460434D-01
      0.2825394365D+01  0.2347269535D+00
      0.6401216923D+00  0.8137573261D+00
 S   1 1.00       0.000000000000
      0.1612777588D+00  0.1000000000D+01
 ****
     38 0
 S   6 1.00       0.000000000000
      0.3047524880D+04  0.1834737132D-02
      0.4573695180D+03  0.1403732281D-01
      0.1039486850D+03  0.6884262226D-01
      0.2921015530D+02  0.2321844432D+00
      0.9286662960D+01  0.4679413484D+00
      0.3163926960D+01  0.3623119853D+00
 SP   3 1.00       0.000000000000
      0.7868272350D+01 -0.1193324198D+00  0.6899906659D-01
      0.1881288540D+01 -0.1608541517D+00  0.3164239610D+00
      0.5442492580D+00  0.1143456438D+01  0.7443082909D+00
 SP   1 1.00       0.000000000000
      0.1687144782D+00  0.1000000000D+01  0.1000000000D+01
 D   1 1.00       0.000000000000
      0.8000000000D+00  0.1000000000D+01
 ****
     39 0
 S   3 1.00       0.000000000000
      0.1873113696D+02  0.3349460434D-01
      0.2825394365D+01  0.2347269535D+00
      0.6401216923D+00  0.8137573261D+00
 S   1 1.00       0.000000000000
      0.1612777588D+00  0.1000000000D+01
 ****
     40 0
 S   6 1.00       0.000000000000
      0.3047524880D+04  0.1834737132D-02
      0.4573695180D+03  0.1403732281D-01
      0.1039486850D+03  0.6884262226D-01
      0.2921015530D+02  0.2321844432D+00
      0.9286662960D+01  0.4679413484D+00
      0.3163926960D+01  0.3623119853D+00
 SP   3 1.00       0.000000000000
      0.7868272350D+01 -0.1193324198D+00  0.6899906659D-01
      0.1881288540D+01 -0.1608541517D+00  0.3164239610D+00
      0.5442492580D+00  0.1143456438D+01  0.7443082909D+00
 SP   1 1.00       0.000000000000
      0.1687144782D+00  0.1000000000D+01  0.1000000000D+01
 D   1 1.00       0.000000000000
      0.8000000000D+00  0.1000000000D+01
 ****
     41 0
 S   3 1.00       0.000000000000
      0.1873113696D+02  0.3349460434D-01
      0.2825394365D+01  0.2347269535D+00
      0.6401216923D+00  0.8137573261D+00
 S   1 1.00       0.000000000000
      0.1612777588D+00  0.1000000000D+01
 ****
     42 0
 S   3 1.00       0.000000000000
      0.1873113696D+02  0.3349460434D-01
      0.2825394365D+01  0.2347269535D+00
      0.6401216923D+00  0.8137573261D+00
 S   1 1.00       0.000000000000
      0.1612777588D+00  0.1000000000D+01
 ****
     43 0
 S   3 1.00       0.000000000000
      0.1873113696D+02  0.3349460434D-01
      0.2825394365D+01  0.2347269535D+00
      0.6401216923D+00  0.8137573261D+00
 S   1 1.00       0.000000000000
      0.1612777588D+00  0.1000000000D+01
 ****
     44 0
 S   6 1.00       0.000000000000
      0.3047524880D+04  0.1834737132D-02
      0.4573695180D+03  0.1403732281D-01
      0.1039486850D+03  0.6884262226D-01
      0.2921015530D+02  0.2321844432D+00
      0.9286662960D+01  0.4679413484D+00
      0.3163926960D+01  0.3623119853D+00
 SP   3 1.00       0.000000000000
      0.7868272350D+01 -0.1193324198D+00  0.6899906659D-01
      0.1881288540D+01 -0.1608541517D+00  0.3164239610D+00
      0.5442492580D+00  0.1143456438D+01  0.7443082909D+00
 SP   1 1.00       0.000000000000
      0.1687144782D+00  0.1000000000D+01  0.1000000000D+01
 D   1 1.00       0.000000000000
      0.8000000000D+00  0.1000000000D+01
 ****
     45 0
 S   3 1.00       0.000000000000
      0.1873113696D+02  0.3349460434D-01
      0.2825394365D+01  0.2347269535D+00
      0.6401216923D+00  0.8137573261D+00
 S   1 1.00       0.000000000000
      0.1612777588D+00  0.1000000000D+01
 ****
     46 0
 S   3 1.00       0.000000000000
      0.1873113696D+02  0.3349460434D-01
      0.2825394365D+01  0.2347269535D+00
      0.6401216923D+00  0.8137573261D+00
 S   1 1.00       0.000000000000
      0.1612777588D+00  0.1000000000D+01
 ****
     47 0
 S   6 1.00       0.000000000000
      0.3047524880D+04  0.1834737132D-02
      0.4573695180D+03  0.1403732281D-01
      0.1039486850D+03  0.6884262226D-01
      0.2921015530D+02  0.2321844432D+00
      0.9286662960D+01  0.4679413484D+00
      0.3163926960D+01  0.3623119853D+00
 SP   3 1.00       0.000000000000
      0.7868272350D+01 -0.1193324198D+00  0.6899906659D-01
      0.1881288540D+01 -0.1608541517D+00  0.3164239610D+00
      0.5442492580D+00  0.1143456438D+01  0.7443082909D+00
 SP   1 1.00       0.000000000000
      0.1687144782D+00  0.1000000000D+01  0.1000000000D+01
 D   1 1.00       0.000000000000
      0.8000000000D+00  0.1000000000D+01
 ****
     48 0
 S   3 1.00       0.000000000000
      0.1873113696D+02  0.3349460434D-01
      0.2825394365D+01  0.2347269535D+00
      0.6401216923D+00  0.8137573261D+00
 S   1 1.00       0.000000000000
      0.1612777588D+00  0.1000000000D+01
 ****
     49 0
 S   3 1.00       0.000000000000
      0.1873113696D+02  0.3349460434D-01
      0.2825394365D+01  0.2347269535D+00
      0.6401216923D+00  0.8137573261D+00
 S   1 1.00       0.000000000000
      0.1612777588D+00  0.1000000000D+01
 ****
     50 0
 S   6 1.00       0.000000000000
      0.3047524880D+04  0.1834737132D-02
      0.4573695180D+03  0.1403732281D-01
      0.1039486850D+03  0.6884262226D-01
      0.2921015530D+02  0.2321844432D+00
      0.9286662960D+01  0.4679413484D+00
      0.3163926960D+01  0.3623119853D+00
 SP   3 1.00       0.000000000000
      0.7868272350D+01 -0.1193324198D+00  0.6899906659D-01
      0.1881288540D+01 -0.1608541517D+00  0.3164239610D+00
      0.5442492580D+00  0.1143456438D+01  0.7443082909D+00
 SP   1 1.00       0.000000000000
      0.1687144782D+00  0.1000000000D+01  0.1000000000D+01
 D   1 1.00       0.000000000000
      0.8000000000D+00  0.1000000000D+01
 ****
     51 0
 S   3 1.00       0.000000000000
      0.1873113696D+02  0.3349460434D-01
      0.2825394365D+01  0.2347269535D+00
      0.6401216923D+00  0.8137573261D+00
 S   1 1.00       0.000000000000
      0.1612777588D+00  0.1000000000D+01
 ****
     52 0
 S   3 1.00       0.000000000000
      0.1873113696D+02  0.3349460434D-01
      0.2825394365D+01  0.2347269535D+00
      0.6401216923D+00  0.8137573261D+00
 S   1 1.00       0.000000000000
      0.1612777588D+00  0.1000000000D+01
 ****
     53 0
 S   6 1.00       0.000000000000
      0.3047524880D+04  0.1834737132D-02
      0.4573695180D+03  0.1403732281D-01
      0.1039486850D+03  0.6884262226D-01
      0.2921015530D+02  0.2321844432D+00
      0.9286662960D+01  0.4679413484D+00
      0.3163926960D+01  0.3623119853D+00
 SP   3 1.00       0.000000000000
      0.7868272350D+01 -0.1193324198D+00  0.6899906659D-01
      0.1881288540D+01 -0.1608541517D+00  0.3164239610D+00
      0.5442492580D+00  0.1143456438D+01  0.7443082909D+00
 SP   1 1.00       0.000000000000
      0.1687144782D+00  0.1000000000D+01  0.1000000000D+01
 D   1 1.00       0.000000000000
      0.8000000000D+00  0.1000000000D+01
 ****
     54 0
 S   3 1.00       0.000000000000
      0.1873113696D+02  0.3349460434D-01
      0.2825394365D+01  0.2347269535D+00
      0.6401216923D+00  0.8137573261D+00
 S   1 1.00       0.000000000000
      0.1612777588D+00  0.1000000000D+01
 ****
     55 0
 S   6 1.00       0.000000000000
      0.3047524880D+04  0.1834737132D-02
      0.4573695180D+03  0.1403732281D-01
      0.1039486850D+03  0.6884262226D-01
      0.2921015530D+02  0.2321844432D+00
      0.9286662960D+01  0.4679413484D+00
      0.3163926960D+01  0.3623119853D+00
 SP   3 1.00       0.000000000000
      0.7868272350D+01 -0.1193324198D+00  0.6899906659D-01
      0.1881288540D+01 -0.1608541517D+00  0.3164239610D+00
      0.5442492580D+00  0.1143456438D+01  0.7443082909D+00
 SP   1 1.00       0.000000000000
      0.1687144782D+00  0.1000000000D+01  0.1000000000D+01
 D   1 1.00       0.000000000000
      0.8000000000D+00  0.1000000000D+01
 ****
     56 0
 S   3 1.00       0.000000000000
      0.1873113696D+02  0.3349460434D-01
      0.2825394365D+01  0.2347269535D+00
      0.6401216923D+00  0.8137573261D+00
 S   1 1.00       0.000000000000
      0.1612777588D+00  0.1000000000D+01
 ****
     57 0
 S   3 1.00       0.000000000000
      0.1873113696D+02  0.3349460434D-01
      0.2825394365D+01  0.2347269535D+00
      0.6401216923D+00  0.8137573261D+00
 S   1 1.00       0.000000000000
      0.1612777588D+00  0.1000000000D+01
 ****
     58 0
 S   3 1.00       0.000000000000
      0.1873113696D+02  0.3349460434D-01
      0.2825394365D+01  0.2347269535D+00
      0.6401216923D+00  0.8137573261D+00
 S   1 1.00       0.000000000000
      0.1612777588D+00  0.1000000000D+01
 ****
     59 0
 S   6 1.00       0.000000000000
      0.3047524880D+04  0.1834737132D-02
      0.4573695180D+03  0.1403732281D-01
      0.1039486850D+03  0.6884262226D-01
      0.2921015530D+02  0.2321844432D+00
      0.9286662960D+01  0.4679413484D+00
      0.3163926960D+01  0.3623119853D+00
 SP   3 1.00       0.000000000000
      0.7868272350D+01 -0.1193324198D+00  0.6899906659D-01
      0.1881288540D+01 -0.1608541517D+00  0.3164239610D+00
      0.5442492580D+00  0.1143456438D+01  0.7443082909D+00
 SP   1 1.00       0.000000000000
      0.1687144782D+00  0.1000000000D+01  0.1000000000D+01
 D   1 1.00       0.000000000000
      0.8000000000D+00  0.1000000000D+01
 ****
     60 0
 S   3 1.00       0.000000000000
      0.1873113696D+02  0.3349460434D-01
      0.2825394365D+01  0.2347269535D+00
      0.6401216923D+00  0.8137573261D+00
 S   1 1.00       0.000000000000
      0.1612777588D+00  0.1000000000D+01
 ****
     61 0
 S   3 1.00       0.000000000000
      0.1873113696D+02  0.3349460434D-01
      0.2825394365D+01  0.2347269535D+00
      0.6401216923D+00  0.8137573261D+00
 S   1 1.00       0.000000000000
      0.1612777588D+00  0.1000000000D+01
 ****
     62 0
 S   6 1.00       0.000000000000
      0.3047524880D+04  0.1834737132D-02
      0.4573695180D+03  0.1403732281D-01
      0.1039486850D+03  0.6884262226D-01
      0.2921015530D+02  0.2321844432D+00
      0.9286662960D+01  0.4679413484D+00
      0.3163926960D+01  0.3623119853D+00
 SP   3 1.00       0.000000000000
      0.7868272350D+01 -0.1193324198D+00  0.6899906659D-01
      0.1881288540D+01 -0.1608541517D+00  0.3164239610D+00
      0.5442492580D+00  0.1143456438D+01  0.7443082909D+00
 SP   1 1.00       0.000000000000
      0.1687144782D+00  0.1000000000D+01  0.1000000000D+01
 D   1 1.00       0.000000000000
      0.8000000000D+00  0.1000000000D+01
 ****
     63 0
 S   3 1.00       0.000000000000
      0.1873113696D+02  0.3349460434D-01
      0.2825394365D+01  0.2347269535D+00
      0.6401216923D+00  0.8137573261D+00
 S   1 1.00       0.000000000000
      0.1612777588D+00  0.1000000000D+01
 ****
     64 0
 S   3 1.00       0.000000000000
      0.1873113696D+02  0.3349460434D-01
      0.2825394365D+01  0.2347269535D+00
      0.6401216923D+00  0.8137573261D+00
 S   1 1.00       0.000000000000
      0.1612777588D+00  0.1000000000D+01
 ****
     65 0
 S   6 1.00       0.000000000000
      0.3047524880D+04  0.1834737132D-02
      0.4573695180D+03  0.1403732281D-01
      0.1039486850D+03  0.6884262226D-01
      0.2921015530D+02  0.2321844432D+00
      0.9286662960D+01  0.4679413484D+00
      0.3163926960D+01  0.3623119853D+00
 SP   3 1.00       0.000000000000
      0.7868272350D+01 -0.1193324198D+00  0.6899906659D-01
      0.1881288540D+01 -0.1608541517D+00  0.3164239610D+00
      0.5442492580D+00  0.1143456438D+01  0.7443082909D+00
 SP   1 1.00       0.000000000000
      0.1687144782D+00  0.1000000000D+01  0.1000000000D+01
 D   1 1.00       0.000000000000
      0.8000000000D+00  0.1000000000D+01
 ****
     66 0
 S   3 1.00       0.000000000000
      0.1873113696D+02  0.3349460434D-01
      0.2825394365D+01  0.2347269535D+00
      0.6401216923D+00  0.8137573261D+00
 S   1 1.00       0.000000000000
      0.1612777588D+00  0.1000000000D+01
 ****
     67 0
 S   6 1.00       0.000000000000
      0.3047524880D+04  0.1834737132D-02
      0.4573695180D+03  0.1403732281D-01
      0.1039486850D+03  0.6884262226D-01
      0.2921015530D+02  0.2321844432D+00
      0.9286662960D+01  0.4679413484D+00
      0.3163926960D+01  0.3623119853D+00
 SP   3 1.00       0.000000000000
      0.7868272350D+01 -0.1193324198D+00  0.6899906659D-01
      0.1881288540D+01 -0.1608541517D+00  0.3164239610D+00
      0.5442492580D+00  0.1143456438D+01  0.7443082909D+00
 SP   1 1.00       0.000000000000
      0.1687144782D+00  0.1000000000D+01  0.1000000000D+01
 D   1 1.00       0.000000000000
      0.8000000000D+00  0.1000000000D+01
 ****
     68 0
 S   3 1.00       0.000000000000
      0.1873113696D+02  0.3349460434D-01
      0.2825394365D+01  0.2347269535D+00
      0.6401216923D+00  0.8137573261D+00
 S   1 1.00       0.000000000000
      0.1612777588D+00  0.1000000000D+01
 ****
     69 0
 S   3 1.00       0.000000000000
      0.1873113696D+02  0.3349460434D-01
      0.2825394365D+01  0.2347269535D+00
      0.6401216923D+00  0.8137573261D+00
 S   1 1.00       0.000000000000
      0.1612777588D+00  0.1000000000D+01
 ****
     70 0
 S   3 1.00       0.000000000000
      0.1873113696D+02  0.3349460434D-01
      0.2825394365D+01  0.2347269535D+00
      0.6401216923D+00  0.8137573261D+00
 S   1 1.00       0.000000000000
      0.1612777588D+00  0.1000000000D+01
 ****
     71 0
 S   6 1.00       0.000000000000
      0.3047524880D+04  0.1834737132D-02
      0.4573695180D+03  0.1403732281D-01
      0.1039486850D+03  0.6884262226D-01
      0.2921015530D+02  0.2321844432D+00
      0.9286662960D+01  0.4679413484D+00
      0.3163926960D+01  0.3623119853D+00
 SP   3 1.00       0.000000000000
      0.7868272350D+01 -0.1193324198D+00  0.6899906659D-01
      0.1881288540D+01 -0.1608541517D+00  0.3164239610D+00
      0.5442492580D+00  0.1143456438D+01  0.7443082909D+00
 SP   1 1.00       0.000000000000
      0.1687144782D+00  0.1000000000D+01  0.1000000000D+01
 D   1 1.00       0.000000000000
      0.8000000000D+00  0.1000000000D+01
 ****
     72 0
 S   3 1.00       0.000000000000
      0.1873113696D+02  0.3349460434D-01
      0.2825394365D+01  0.2347269535D+00
      0.6401216923D+00  0.8137573261D+00
 S   1 1.00       0.000000000000
      0.1612777588D+00  0.1000000000D+01
 ****
     73 0
 S   3 1.00       0.000000000000
      0.1873113696D+02  0.3349460434D-01
      0.2825394365D+01  0.2347269535D+00
      0.6401216923D+00  0.8137573261D+00
 S   1 1.00       0.000000000000
      0.1612777588D+00  0.1000000000D+01
 ****
     74 0
 S   3 1.00       0.000000000000
      0.1873113696D+02  0.3349460434D-01
      0.2825394365D+01  0.2347269535D+00
      0.6401216923D+00  0.8137573261D+00
 S   1 1.00       0.000000000000
      0.1612777588D+00  0.1000000000D+01
 ****

 AO basis set (Overlap normalization):
 Atom O1       Shell     1 S   6     bf    1 -     1          9.440921224313         -0.419804795811        -13.710338393695
      0.5484671660D+04  0.1831074430D-02
      0.8252349460D+03  0.1395017220D-01
      0.1880469580D+03  0.6844507810D-01
      0.5296450000D+02  0.2327143360D+00
      0.1689757040D+02  0.4701928980D+00
      0.5799635340D+01  0.3585208530D+00
 Atom O1       Shell     2 SP   3    bf    2 -     5          9.440921224313         -0.419804795811        -13.710338393695
      0.1553961625D+02 -0.1107775495D+00  0.7087426823D-01
      0.3599933586D+01 -0.1480262627D+00  0.3397528391D+00
      0.1013761750D+01  0.1130767015D+01  0.7271585773D+00
 Atom O1       Shell     3 SP   1    bf    6 -     9          9.440921224313         -0.419804795811        -13.710338393695
      0.2700058226D+00  0.1000000000D+01  0.1000000000D+01
 Atom O1       Shell     4 D   1     bf   10 -    15          9.440921224313         -0.419804795811        -13.710338393695
      0.8000000000D+00  0.1000000000D+01
 Atom H2       Shell     5 S   3     bf   16 -    16         11.238728715937         -0.584726713428        -13.434843063145
      0.1873113696D+02  0.3349460434D-01
      0.2825394365D+01  0.2347269535D+00
      0.6401216923D+00  0.8137573261D+00
 Atom H2       Shell     6 S   1     bf   17 -    17         11.238728715937         -0.584726713428        -13.434843063145
      0.1612777588D+00  0.1000000000D+01
 Atom C3       Shell     7 S   6     bf   18 -    18          0.000000000000          0.000000000000          0.000000000000
      0.3047524880D+04  0.1834737132D-02
      0.4573695180D+03  0.1403732281D-01
      0.1039486850D+03  0.6884262226D-01
      0.2921015530D+02  0.2321844432D+00
      0.9286662960D+01  0.4679413484D+00
      0.3163926960D+01  0.3623119853D+00
 Atom C3       Shell     8 SP   3    bf   19 -    22          0.000000000000          0.000000000000          0.000000000000
      0.7868272350D+01 -0.1193324198D+00  0.6899906659D-01
      0.1881288540D+01 -0.1608541517D+00  0.3164239610D+00
      0.5442492580D+00  0.1143456438D+01  0.7443082909D+00
 Atom C3       Shell     9 SP   1    bf   23 -    26          0.000000000000          0.000000000000          0.000000000000
      0.1687144782D+00  0.1000000000D+01  0.1000000000D+01
 Atom C3       Shell    10 D   1     bf   27 -    32          0.000000000000          0.000000000000          0.000000000000
      0.8000000000D+00  0.1000000000D+01
 Atom C4       Shell    11 S   6     bf   33 -    33          2.937627934019          0.000000000000          0.000000000000
      0.3047524880D+04  0.1834737132D-02
      0.4573695180D+03  0.1403732281D-01
      0.1039486850D+03  0.6884262226D-01
      0.2921015530D+02  0.2321844432D+00
      0.9286662960D+01  0.4679413484D+00
      0.3163926960D+01  0.3623119853D+00
 Atom C4       Shell    12 SP   3    bf   34 -    37          2.937627934019          0.000000000000          0.000000000000
      0.7868272350D+01 -0.1193324198D+00  0.6899906659D-01
      0.1881288540D+01 -0.1608541517D+00  0.3164239610D+00
      0.5442492580D+00  0.1143456438D+01  0.7443082909D+00
 Atom C4       Shell    13 SP   1    bf   38 -    41          2.937627934019          0.000000000000          0.000000000000
      0.1687144782D+00  0.1000000000D+01  0.1000000000D+01
 Atom C4       Shell    14 D   1     bf   42 -    47          2.937627934019          0.000000000000          0.000000000000
      0.8000000000D+00  0.1000000000D+01
 Atom H5       Shell    15 S   3     bf   48 -    48          3.477698907146          2.014740058138          0.000000000000
      0.1873113696D+02  0.3349460434D-01
      0.2825394365D+01  0.2347269535D+00
      0.6401216923D+00  0.8137573261D+00
 Atom H5       Shell    16 S   1     bf   49 -    49          3.477698907146          2.014740058138          0.000000000000
      0.1612777588D+00  0.1000000000D+01
 Atom C6       Shell    17 S   6     bf   50 -    50          4.181967976090         -1.140402062303         -2.357354001175
      0.3047524880D+04  0.1834737132D-02
      0.4573695180D+03  0.1403732281D-01
      0.1039486850D+03  0.6884262226D-01
      0.2921015530D+02  0.2321844432D+00
      0.9286662960D+01  0.4679413484D+00
      0.3163926960D+01  0.3623119853D+00
 Atom C6       Shell    18 SP   3    bf   51 -    54          4.181967976090         -1.140402062303         -2.357354001175
      0.7868272350D+01 -0.1193324198D+00  0.6899906659D-01
      0.1881288540D+01 -0.1608541517D+00  0.3164239610D+00
      0.5442492580D+00  0.1143456438D+01  0.7443082909D+00
 Atom C6       Shell    19 SP   1    bf   55 -    58          4.181967976090         -1.140402062303         -2.357354001175
      0.1687144782D+00  0.1000000000D+01  0.1000000000D+01
 Atom C6       Shell    20 D   1     bf   59 -    64          4.181967976090         -1.140402062303         -2.357354001175
      0.8000000000D+00  0.1000000000D+01
 Atom H7       Shell    21 S   3     bf   65 -    65          3.678062543899         -3.151272849493         -2.491255195046
      0.1873113696D+02  0.3349460434D-01
      0.2825394365D+01  0.2347269535D+00
      0.6401216923D+00  0.8137573261D+00
 Atom H7       Shell    22 S   1     bf   66 -    66          3.678062543899         -3.151272849493         -2.491255195046
      0.1612777588D+00  0.1000000000D+01
 Atom C8       Shell    23 S   6     bf   67 -    67          3.230500675861          0.251718966421         -4.755383639263
      0.3047524880D+04  0.1834737132D-02
      0.4573695180D+03  0.1403732281D-01
      0.1039486850D+03  0.6884262226D-01
      0.2921015530D+02  0.2321844432D+00
      0.9286662960D+01  0.4679413484D+00
      0.3163926960D+01  0.3623119853D+00
 Atom C8       Shell    24 SP   3    bf   68 -    71          3.230500675861          0.251718966421         -4.755383639263
      0.7868272350D+01 -0.1193324198D+00  0.6899906659D-01
      0.1881288540D+01 -0.1608541517D+00  0.3164239610D+00
      0.5442492580D+00  0.1143456438D+01  0.7443082909D+00
 Atom C8       Shell    25 SP   1    bf   72 -    75          3.230500675861          0.251718966421         -4.755383639263
      0.1687144782D+00  0.1000000000D+01  0.1000000000D+01
 Atom C8       Shell    26 D   1     bf   76 -    81          3.230500675861          0.251718966421         -4.755383639263
      0.8000000000D+00  0.1000000000D+01
 Atom H9       Shell    27 S   3     bf   82 -    82          3.996185466178          2.184683185960         -4.615688223815
      0.1873113696D+02  0.3349460434D-01
      0.2825394365D+01  0.2347269535D+00
      0.6401216923D+00  0.8137573261D+00
 Atom H9       Shell    28 S   1     bf   83 -    83          3.996185466178          2.184683185960         -4.615688223815
      0.1612777588D+00  0.1000000000D+01
 Atom C10      Shell    29 S   6     bf   84 -    84         -0.506929220770          1.221724139864          2.651878061300
      0.3047524880D+04  0.1834737132D-02
      0.4573695180D+03  0.1403732281D-01
      0.1039486850D+03  0.6884262226D-01
      0.2921015530D+02  0.2321844432D+00
      0.9286662960D+01  0.4679413484D+00
      0.3163926960D+01  0.3623119853D+00
 Atom C10      Shell    30 SP   3    bf   85 -    88         -0.506929220770          1.221724139864          2.651878061300
      0.7868272350D+01 -0.1193324198D+00  0.6899906659D-01
      0.1881288540D+01 -0.1608541517D+00  0.3164239610D+00
      0.5442492580D+00  0.1143456438D+01  0.7443082909D+00
 Atom C10      Shell    31 SP   1    bf   89 -    92         -0.506929220770          1.221724139864          2.651878061300
      0.1687144782D+00  0.1000000000D+01  0.1000000000D+01
 Atom C10      Shell    32 D   1     bf   93 -    98         -0.506929220770          1.221724139864          2.651878061300
      0.8000000000D+00  0.1000000000D+01
 Atom H11      Shell    33 S   3     bf   99 -    99         -0.030011118662          3.234356000631          2.442944081898
      0.1873113696D+02  0.3349460434D-01
      0.2825394365D+01  0.2347269535D+00
      0.6401216923D+00  0.8137573261D+00
 Atom H11      Shell    34 S   1     bf  100 -   100         -0.030011118662          3.234356000631          2.442944081898
      0.1612777588D+00  0.1000000000D+01
 Atom C12      Shell    35 S   6     bf  101 -   101         -0.823676138966          1.551706416434         -2.325880744712
      0.3047524880D+04  0.1834737132D-02
      0.4573695180D+03  0.1403732281D-01
      0.1039486850D+03  0.6884262226D-01
      0.2921015530D+02  0.2321844432D+00
      0.9286662960D+01  0.4679413484D+00
      0.3163926960D+01  0.3623119853D+00
 Atom C12      Shell    36 SP   3    bf  102 -   105         -0.823676138966          1.551706416434         -2.325880744712
      0.7868272350D+01 -0.1193324198D+00  0.6899906659D-01
      0.1881288540D+01 -0.1608541517D+00  0.3164239610D+00
      0.5442492580D+00  0.1143456438D+01  0.7443082909D+00
 Atom C12      Shell    37 SP   1    bf  106 -   109         -0.823676138966          1.551706416434         -2.325880744712
      0.1687144782D+00  0.1000000000D+01  0.1000000000D+01
 Atom C12      Shell    38 D   1     bf  110 -   115         -0.823676138966          1.551706416434         -2.325880744712
      0.8000000000D+00  0.1000000000D+01
 Atom H13      Shell    39 S   3     bf  116 -   116         -0.209707312028          3.519601429855         -2.062774666559
      0.1873113696D+02  0.3349460434D-01
      0.2825394365D+01  0.2347269535D+00
      0.6401216923D+00  0.8137573261D+00
 Atom H13      Shell    40 S   1     bf  117 -   117         -0.209707312028          3.519601429855         -2.062774666559
      0.1612777588D+00  0.1000000000D+01
 Atom H14      Shell    41 S   3     bf  118 -   118         -2.882436630376          1.600057894134         -2.524507836533
      0.1873113696D+02  0.3349460434D-01
      0.2825394365D+01  0.2347269535D+00
      0.6401216923D+00  0.8137573261D+00
 Atom H14      Shell    42 S   1     bf  119 -   119         -2.882436630376          1.600057894134         -2.524507836533
      0.1612777588D+00  0.1000000000D+01
 Atom C15      Shell    43 S   6     bf  120 -   120          4.354867882803         -0.877056007829         -7.256487104257
      0.3047524880D+04  0.1834737132D-02
      0.4573695180D+03  0.1403732281D-01
      0.1039486850D+03  0.6884262226D-01
      0.2921015530D+02  0.2321844432D+00
      0.9286662960D+01  0.4679413484D+00
      0.3163926960D+01  0.3623119853D+00
 Atom C15      Shell    44 SP   3    bf  121 -   124          4.354867882803         -0.877056007829         -7.256487104257
      0.7868272350D+01 -0.1193324198D+00  0.6899906659D-01
      0.1881288540D+01 -0.1608541517D+00  0.3164239610D+00
      0.5442492580D+00  0.1143456438D+01  0.7443082909D+00
 Atom C15      Shell    45 SP   1    bf  125 -   128          4.354867882803         -0.877056007829         -7.256487104257
      0.1687144782D+00  0.1000000000D+01  0.1000000000D+01
 Atom C15      Shell    46 D   1     bf  129 -   134          4.354867882803         -0.877056007829         -7.256487104257
      0.8000000000D+00  0.1000000000D+01
 Atom C16      Shell    47 S   6     bf  135 -   135          3.661610663775         -1.038808325598          2.613358394034
      0.3047524880D+04  0.1834737132D-02
      0.4573695180D+03  0.1403732281D-01
      0.1039486850D+03  0.6884262226D-01
      0.2921015530D+02  0.2321844432D+00
      0.9286662960D+01  0.4679413484D+00
      0.3163926960D+01  0.3623119853D+00
 Atom C16      Shell    48 SP   3    bf  136 -   139          3.661610663775         -1.038808325598          2.613358394034
      0.7868272350D+01 -0.1193324198D+00  0.6899906659D-01
      0.1881288540D+01 -0.1608541517D+00  0.3164239610D+00
      0.5442492580D+00  0.1143456438D+01  0.7443082909D+00
 Atom C16      Shell    49 SP   1    bf  140 -   143          3.661610663775         -1.038808325598          2.613358394034
      0.1687144782D+00  0.1000000000D+01  0.1000000000D+01
 Atom C16      Shell    50 D   1     bf  144 -   149          3.661610663775         -1.038808325598          2.613358394034
      0.8000000000D+00  0.1000000000D+01
 Atom H17      Shell    51 S   3     bf  150 -   150          5.542623874175         -0.422514455216          3.213781059338
      0.1873113696D+02  0.3349460434D-01
      0.2825394365D+01  0.2347269535D+00
      0.6401216923D+00  0.8137573261D+00
 Atom H17      Shell    52 S   1     bf  151 -   151          5.542623874175         -0.422514455216          3.213781059338
      0.1612777588D+00  0.1000000000D+01
 Atom H18      Shell    53 S   3     bf  152 -   152          3.691073648475         -3.111807676653          2.596075884788
      0.1873113696D+02  0.3349460434D-01
      0.2825394365D+01  0.2347269535D+00
      0.6401216923D+00  0.8137573261D+00
 Atom H18      Shell    54 S   1     bf  153 -   153          3.691073648475         -3.111807676653          2.596075884788
      0.1612777588D+00  0.1000000000D+01
 Atom C19      Shell    55 S   6     bf  154 -   154          0.318721568620          0.499691512990         -4.793442893655
      0.3047524880D+04  0.1834737132D-02
      0.4573695180D+03  0.1403732281D-01
      0.1039486850D+03  0.6884262226D-01
      0.2921015530D+02  0.2321844432D+00
      0.9286662960D+01  0.4679413484D+00
      0.3163926960D+01  0.3623119853D+00
 Atom C19      Shell    56 SP   3    bf  155 -   158          0.318721568620          0.499691512990         -4.793442893655
      0.7868272350D+01 -0.1193324198D+00  0.6899906659D-01
      0.1881288540D+01 -0.1608541517D+00  0.3164239610D+00
      0.5442492580D+00  0.1143456438D+01  0.7443082909D+00
 Atom C19      Shell    57 SP   1    bf  159 -   162          0.318721568620          0.499691512990         -4.793442893655
      0.1687144782D+00  0.1000000000D+01  0.1000000000D+01
 Atom C19      Shell    58 D   1     bf  163 -   168          0.318721568620          0.499691512990         -4.793442893655
      0.8000000000D+00  0.1000000000D+01
 Atom H20      Shell    59 S   3     bf  169 -   169         -0.538279966288         -1.343694358823         -5.181651222860
      0.1873113696D+02  0.3349460434D-01
      0.2825394365D+01  0.2347269535D+00
      0.6401216923D+00  0.8137573261D+00
 Atom H20      Shell    60 S   1     bf  170 -   170         -0.538279966288         -1.343694358823         -5.181651222860
      0.1612777588D+00  0.1000000000D+01
 Atom H21      Shell    61 S   3     bf  171 -   171         -0.254760442838          1.731662673912         -6.356168851191
      0.1873113696D+02  0.3349460434D-01
      0.2825394365D+01  0.2347269535D+00
      0.6401216923D+00  0.8137573261D+00
 Atom H21      Shell    62 S   1     bf  172 -   172         -0.254760442838          1.731662673912         -6.356168851191
      0.1612777588D+00  0.1000000000D+01
 Atom C22      Shell    63 S   6     bf  173 -   173          1.542558271122         -0.028593238247          4.378485566628
      0.3047524880D+04  0.1834737132D-02
      0.4573695180D+03  0.1403732281D-01
      0.1039486850D+03  0.6884262226D-01
      0.2921015530D+02  0.2321844432D+00
      0.9286662960D+01  0.4679413484D+00
      0.3163926960D+01  0.3623119853D+00
 Atom C22      Shell    64 SP   3    bf  174 -   177          1.542558271122         -0.028593238247          4.378485566628
      0.7868272350D+01 -0.1193324198D+00  0.6899906659D-01
      0.1881288540D+01 -0.1608541517D+00  0.3164239610D+00
      0.5442492580D+00  0.1143456438D+01  0.7443082909D+00
 Atom C22      Shell    65 SP   1    bf  178 -   181          1.542558271122         -0.028593238247          4.378485566628
      0.1687144782D+00  0.1000000000D+01  0.1000000000D+01
 Atom C22      Shell    66 D   1     bf  182 -   187          1.542558271122         -0.028593238247          4.378485566628
      0.8000000000D+00  0.1000000000D+01
 Atom H23      Shell    67 S   3     bf  188 -   188          0.709860069372         -1.572945124031          5.480477811445
      0.1873113696D+02  0.3349460434D-01
      0.2825394365D+01  0.2347269535D+00
      0.6401216923D+00  0.8137573261D+00
 Atom H23      Shell    68 S   1     bf  189 -   189          0.709860069372         -1.572945124031          5.480477811445
      0.1612777588D+00  0.1000000000D+01
 Atom H24      Shell    69 S   3     bf  190 -   190          2.282485754098          1.329122264872          5.752177230215
      0.1873113696D+02  0.3349460434D-01
      0.2825394365D+01  0.2347269535D+00
      0.6401216923D+00  0.8137573261D+00
 Atom H24      Shell    70 S   1     bf  191 -   191          2.282485754098          1.329122264872          5.752177230215
      0.1612777588D+00  0.1000000000D+01
 Atom C25      Shell    71 S   6     bf  192 -   192          7.076683498857         -0.959010387753         -2.194756654571
      0.3047524880D+04  0.1834737132D-02
      0.4573695180D+03  0.1403732281D-01
      0.1039486850D+03  0.6884262226D-01
      0.2921015530D+02  0.2321844432D+00
      0.9286662960D+01  0.4679413484D+00
      0.3163926960D+01  0.3623119853D+00
 Atom C25      Shell    72 SP   3    bf  193 -   196          7.076683498857         -0.959010387753         -2.194756654571
      0.7868272350D+01 -0.1193324198D+00  0.6899906659D-01
      0.1881288540D+01 -0.1608541517D+00  0.3164239610D+00
      0.5442492580D+00  0.1143456438D+01  0.7443082909D+00
 Atom C25      Shell    73 SP   1    bf  197 -   200          7.076683498857         -0.959010387753         -2.194756654571
      0.1687144782D+00  0.1000000000D+01  0.1000000000D+01
 Atom C25      Shell    74 D   1     bf  201 -   206          7.076683498857         -0.959010387753         -2.194756654571
      0.8000000000D+00  0.1000000000D+01
 Atom H26      Shell    75 S   3     bf  207 -   207          7.801433060581         -2.337903106781         -0.823666217903
      0.1873113696D+02  0.3349460434D-01
      0.2825394365D+01  0.2347269535D+00
      0.6401216923D+00  0.8137573261D+00
 Atom H26      Shell    76 S   1     bf  208 -   208          7.801433060581         -2.337903106781         -0.823666217903
      0.1612777588D+00  0.1000000000D+01
 Atom H27      Shell    77 S   3     bf  209 -   209          7.613674955381          0.905772418425         -1.434906941709
      0.1873113696D+02  0.3349460434D-01
      0.2825394365D+01  0.2347269535D+00
      0.6401216923D+00  0.8137573261D+00
 Atom H27      Shell    78 S   1     bf  210 -   210          7.613674955381          0.905772418425         -1.434906941709
      0.1612777588D+00  0.1000000000D+01
 Atom C28      Shell    79 S   6     bf  211 -   211         -3.188049490066          1.078873127437          3.817560426275
      0.3047524880D+04  0.1834737132D-02
      0.4573695180D+03  0.1403732281D-01
      0.1039486850D+03  0.6884262226D-01
      0.2921015530D+02  0.2321844432D+00
      0.9286662960D+01  0.4679413484D+00
      0.3163926960D+01  0.3623119853D+00
 Atom C28      Shell    80 SP   3    bf  212 -   215         -3.188049490066          1.078873127437          3.817560426275
      0.7868272350D+01 -0.1193324198D+00  0.6899906659D-01
      0.1881288540D+01 -0.1608541517D+00  0.3164239610D+00
      0.5442492580D+00  0.1143456438D+01  0.7443082909D+00
 Atom C28      Shell    81 SP   1    bf  216 -   219         -3.188049490066          1.078873127437          3.817560426275
      0.1687144782D+00  0.1000000000D+01  0.1000000000D+01
 Atom C28      Shell    82 D   1     bf  220 -   225         -3.188049490066          1.078873127437          3.817560426275
      0.8000000000D+00  0.1000000000D+01
 Atom H29      Shell    83 S   3     bf  226 -   226         -3.651696310105         -0.933401650680          4.053814195279
      0.1873113696D+02  0.3349460434D-01
      0.2825394365D+01  0.2347269535D+00
      0.6401216923D+00  0.8137573261D+00
 Atom H29      Shell    84 S   1     bf  227 -   227         -3.651696310105         -0.933401650680          4.053814195279
      0.1612777588D+00  0.1000000000D+01
 Atom C30      Shell    85 S   6     bf  228 -   228         -1.122353609262         -2.694682172347         -0.109563108650
      0.3047524880D+04  0.1834737132D-02
      0.4573695180D+03  0.1403732281D-01
      0.1039486850D+03  0.6884262226D-01
      0.2921015530D+02  0.2321844432D+00
      0.9286662960D+01  0.4679413484D+00
      0.3163926960D+01  0.3623119853D+00
 Atom C30      Shell    86 SP   3    bf  229 -   232         -1.122353609262         -2.694682172347         -0.109563108650
      0.7868272350D+01 -0.1193324198D+00  0.6899906659D-01
      0.1881288540D+01 -0.1608541517D+00  0.3164239610D+00
      0.5442492580D+00  0.1143456438D+01  0.7443082909D+00
 Atom C30      Shell    87 SP   1    bf  233 -   236         -1.122353609262         -2.694682172347         -0.109563108650
      0.1687144782D+00  0.1000000000D+01  0.1000000000D+01
 Atom C30      Shell    88 D   1     bf  237 -   242         -1.122353609262         -2.694682172347         -0.109563108650
      0.8000000000D+00  0.1000000000D+01
 Atom H31      Shell    89 S   3     bf  243 -   243         -3.188427832135         -2.620343634403         -0.206927751654
      0.1873113696D+02  0.3349460434D-01
      0.2825394365D+01  0.2347269535D+00
      0.6401216923D+00  0.8137573261D+00
 Atom H31      Shell    90 S   1     bf  244 -   244         -3.188427832135         -2.620343634403         -0.206927751654
      0.1612777588D+00  0.1000000000D+01
 Atom H32      Shell    91 S   3     bf  245 -   245         -0.473498982822         -3.748972268262         -1.762245944954
      0.1873113696D+02  0.3349460434D-01
      0.2825394365D+01  0.2347269535D+00
      0.6401216923D+00  0.8137573261D+00
 Atom H32      Shell    92 S   1     bf  246 -   246         -0.473498982822         -3.748972268262         -1.762245944954
      0.1612777588D+00  0.1000000000D+01
 Atom H33      Shell    93 S   3     bf  247 -   247         -0.625412025741         -3.810819829851          1.558809103283
      0.1873113696D+02  0.3349460434D-01
      0.2825394365D+01  0.2347269535D+00
      0.6401216923D+00  0.8137573261D+00
 Atom H33      Shell    94 S   1     bf  248 -   248         -0.625412025741         -3.810819829851          1.558809103283
      0.1612777588D+00  0.1000000000D+01
 Atom C34      Shell    95 S   6     bf  249 -   249          7.199791786482         -1.355846790741         -6.948184502876
      0.3047524880D+04  0.1834737132D-02
      0.4573695180D+03  0.1403732281D-01
      0.1039486850D+03  0.6884262226D-01
      0.2921015530D+02  0.2321844432D+00
      0.9286662960D+01  0.4679413484D+00
      0.3163926960D+01  0.3623119853D+00
 Atom C34      Shell    96 SP   3    bf  250 -   253          7.199791786482         -1.355846790741         -6.948184502876
      0.7868272350D+01 -0.1193324198D+00  0.6899906659D-01
      0.1881288540D+01 -0.1608541517D+00  0.3164239610D+00
      0.5442492580D+00  0.1143456438D+01  0.7443082909D+00
 Atom C34      Shell    97 SP   1    bf  254 -   257          7.199791786482         -1.355846790741         -6.948184502876
      0.1687144782D+00  0.1000000000D+01  0.1000000000D+01
 Atom C34      Shell    98 D   1     bf  258 -   263          7.199791786482         -1.355846790741         -6.948184502876
      0.8000000000D+00  0.1000000000D+01
 Atom C35      Shell    99 S   6     bf  264 -   264          3.985655439734          1.088346475719         -9.424063166454
      0.3047524880D+04  0.1834737132D-02
      0.4573695180D+03  0.1403732281D-01
      0.1039486850D+03  0.6884262226D-01
      0.2921015530D+02  0.2321844432D+00
      0.9286662960D+01  0.4679413484D+00
      0.3163926960D+01  0.3623119853D+00
 Atom C35      Shell   100 SP   3    bf  265 -   268          3.985655439734          1.088346475719         -9.424063166454
      0.7868272350D+01 -0.1193324198D+00  0.6899906659D-01
      0.1881288540D+01 -0.1608541517D+00  0.3164239610D+00
      0.5442492580D+00  0.1143456438D+01  0.7443082909D+00
 Atom C35      Shell   101 SP   1    bf  269 -   272          3.985655439734          1.088346475719         -9.424063166454
      0.1687144782D+00  0.1000000000D+01  0.1000000000D+01
 Atom C35      Shell   102 D   1     bf  273 -   278          3.985655439734          1.088346475719         -9.424063166454
      0.8000000000D+00  0.1000000000D+01
 Atom H36      Shell   103 S   3     bf  279 -   279          4.602355166598          2.944670225220         -8.726491816048
      0.1873113696D+02  0.3349460434D-01
      0.2825394365D+01  0.2347269535D+00
      0.6401216923D+00  0.8137573261D+00
 Atom H36      Shell   104 S   1     bf  280 -   280          4.602355166598          2.944670225220         -8.726491816048
      0.1612777588D+00  0.1000000000D+01
 Atom H37      Shell   105 S   3     bf  281 -   281          1.969249304551          1.264746004053         -9.857929149858
      0.1873113696D+02  0.3349460434D-01
      0.2825394365D+01  0.2347269535D+00
      0.6401216923D+00  0.8137573261D+00
 Atom H37      Shell   106 S   1     bf  282 -   282          1.969249304551          1.264746004053         -9.857929149858
      0.1612777588D+00  0.1000000000D+01
 Atom C38      Shell   107 S   6     bf  283 -   283          8.361973055851         -1.350270397895         -4.695905095046
      0.3047524880D+04  0.1834737132D-02
      0.4573695180D+03  0.1403732281D-01
      0.1039486850D+03  0.6884262226D-01
      0.2921015530D+02  0.2321844432D+00
      0.9286662960D+01  0.4679413484D+00
      0.3163926960D+01  0.3623119853D+00
 Atom C38      Shell   108 SP   3    bf  284 -   287          8.361973055851         -1.350270397895         -4.695905095046
      0.7868272350D+01 -0.1193324198D+00  0.6899906659D-01
      0.1881288540D+01 -0.1608541517D+00  0.3164239610D+00
      0.5442492580D+00  0.1143456438D+01  0.7443082909D+00
 Atom C38      Shell   109 SP   1    bf  288 -   291          8.361973055851         -1.350270397895         -4.695905095046
      0.1687144782D+00  0.1000000000D+01  0.1000000000D+01
 Atom C38      Shell   110 D   1     bf  292 -   297          8.361973055851         -1.350270397895         -4.695905095046
      0.8000000000D+00  0.1000000000D+01
 Atom H39      Shell   111 S   3     bf  298 -   298         10.399153422845         -1.657328161084         -4.638868133684
      0.1873113696D+02  0.3349460434D-01
      0.2825394365D+01  0.2347269535D+00
      0.6401216923D+00  0.8137573261D+00
 Atom H39      Shell   112 S   1     bf  299 -   299         10.399153422845         -1.657328161084         -4.638868133684
      0.1612777588D+00  0.1000000000D+01
 Atom C40      Shell   113 S   6     bf  300 -   300          3.048400902031         -3.399056385653         -7.989257287299
      0.3047524880D+04  0.1834737132D-02
      0.4573695180D+03  0.1403732281D-01
      0.1039486850D+03  0.6884262226D-01
      0.2921015530D+02  0.2321844432D+00
      0.9286662960D+01  0.4679413484D+00
      0.3163926960D+01  0.3623119853D+00
 Atom C40      Shell   114 SP   3    bf  301 -   304          3.048400902031         -3.399056385653         -7.989257287299
      0.7868272350D+01 -0.1193324198D+00  0.6899906659D-01
      0.1881288540D+01 -0.1608541517D+00  0.3164239610D+00
      0.5442492580D+00  0.1143456438D+01  0.7443082909D+00
[...]
 1485 Fit       0.000380
 1486 Fit       0.001630
 1487 Fit       0.002829
 1488 Fit       0.002035
 1489 Fit      -0.003073
 1490 Fit      -0.002743
 1491 Fit      -0.003100
 1492 Fit      -0.002498
 1493 Fit      -0.001184
 1494 Fit      -0.002641
 1495 Fit      -0.000629
 1496 Fit      -0.001266
 1497 Fit      -0.001545
 1498 Fit       0.000711
 1499 Fit       0.001615
 1500 Fit       0.000843
 1501 Fit      -0.001073
 1502 Fit      -0.000792
 1503 Fit       0.001551
 1504 Fit       0.002639
 1505 Fit       0.002193
 1506 Fit       0.000684
 1507 Fit       0.000382
 1508 Fit       0.001700
 1509 Fit      -0.000496
 1510 Fit      -0.002124
 1511 Fit      -0.001822
 1512 Fit       0.000117
 1513 Fit       0.002007
 1514 Fit       0.002046
 1515 Fit      -0.000388
 1516 Fit      -0.001634
 1517 Fit       0.000503
 1518 Fit       0.002286
 1519 Fit       0.003078
 1520 Fit       0.000852
 1521 Fit       0.002451
 1522 Fit      -0.001782
 1523 Fit      -0.002177
 1524 Fit      -0.001012
 1525 Fit       0.000543
 1526 Fit       0.000465
 1527 Fit      -0.001136
 1528 Fit       0.001895
 1529 Fit       0.002156
 1530 Fit       0.001080
 1531 Fit      -0.001088
 1532 Fit       0.003204
 1533 Fit       0.002212
 1534 Fit      -0.000420
 1535 Fit      -0.002203
 1536 Fit      -0.002095
 1537 Fit      -0.001788
 1538 Fit      -0.002083
 1539 Fit      -0.000621
 1540 Fit      -0.000873
 1541 Fit      -0.001157
 1542 Fit      -0.001414
 1543 Fit      -0.000090
 1544 Fit      -0.000364
 1545 Fit       0.001014
 1546 Fit       0.000754
 1547 Fit       0.002878
 1548 Fit       0.001017
 1549 Fit       0.002290
 1550 Fit       0.000323
 1551 Fit       0.003175
 1552 Fit       0.001393
 1553 Fit      -0.000252
 1554 Fit      -0.002045
 1555 Fit       0.001973
 1556 Fit       0.002307
 1557 Fit       0.002259
 1558 Fit      -0.000369
 1559 Fit      -0.001814
 1560 Fit       0.000319
 1561 Fit       0.000502
 1562 Fit       0.000431
 1563 Fit      -0.001513
 1564 Fit      -0.000747
 1565 Fit       0.001010
 1566 Fit       0.002086
 1567 Fit      -0.000202
 1568 Fit       0.001659
 1569 Fit       0.002747
 1570 Fit       0.003284
 1571 Fit       0.000332
 1572 Fit       0.001893
 1573 Fit       0.002521
 1574 Fit       0.000607
 1575 Fit       0.000495
 1576 Fit      -0.002948
 1577 Fit      -0.002205
 1578 Fit      -0.004455
 1579 Fit      -0.012776
 1580 Fit      -0.016294
 1581 Fit      -0.019887
 1582 Fit      -0.018328
 1583 Fit      -0.011741
 1584 Fit      -0.007832
 1585 Fit      -0.015630
 1586 Fit      -0.020987
 1587 Fit      -0.022573
 1588 Fit      -0.024690
 1589 Fit      -0.024358
 1590 Fit      -0.020820
 1591 Fit      -0.013482
 1592 Fit      -0.005496
 1593 Fit      -0.015709
 1594 Fit      -0.020533
 1595 Fit      -0.025245
 1596 Fit      -0.026592
 1597 Fit      -0.025282
 1598 Fit      -0.019510
 1599 Fit      -0.023796
 1600 Fit       0.019621
 1601 Fit       0.017368
 1602 Fit       0.018233
 1603 Fit       0.016446
 1604 Fit       0.011764
 1605 Fit       0.012044
 1606 Fit       0.016885
 1607 Fit       0.014669
 1608 Fit       0.012486
 1609 Fit       0.006604
 1610 Fit      -0.001364
 1611 Fit       0.008145
 1612 Fit       0.013298
 1613 Fit       0.007994
 1614 Fit       0.004398
 1615 Fit      -0.002379
 1616 Fit       0.005861
 1617 Fit      -0.002913
 1618 Fit       0.003763
 1619 Fit       0.003854
 1620 Fit       0.003941
 1621 Fit       0.003866
 1622 Fit       0.003910
 1623 Fit       0.003006
 1624 Fit       0.002017
 1625 Fit      -0.003577
 1626 Fit       0.002170
 1627 Fit       0.003129
 1628 Fit       0.003293
 1629 Fit       0.001886
 1630 Fit       0.003062
 1631 Fit       0.002637
 1632 Fit       0.004070
 1633 Fit       0.004047
 1634 Fit       0.004075
 1635 Fit       0.003258
 1636 Fit       0.002310
 1637 Fit      -0.000599
 1638 Fit       0.000038
 1639 Fit       0.003895
 1640 Fit       0.003196
 1641 Fit       0.002305
 1642 Fit       0.003284
 1643 Fit       0.002643
 1644 Fit       0.001657
 1645 Fit       0.000273
 1646 Fit       0.002199
 1647 Fit       0.001345
 1648 Fit      -0.000147
 1649 Fit       0.000877
 1650 Fit       0.000684
 1651 Fit       0.001716
 1652 Fit       0.002418
 1653 Fit       0.002158
 1654 Fit      -0.000134
 1655 Fit      -0.000227
 1656 Fit       0.000186
 1657 Fit       0.001281
 1658 Fit       0.001361
 1659 Fit       0.002490
 1660 Fit       0.002935
 1661 Fit       0.003054
 1662 Fit       0.001320
 1663 Fit       0.003072
 1664 Fit       0.003449
 1665 Fit       0.003476
 1666 Fit       0.003362
 1667 Fit       0.001090
 1668 Fit       0.002381
 1669 Fit       0.002729
 1670 Fit       0.001618
 1671 Fit       0.000376
 1672 Fit       0.003479
 1673 Fit       0.002735
 1674 Fit       0.001966
 1675 Fit       0.001327
 1676 Fit       0.003040
 1677 Fit       0.002815
 1678 Fit       0.002449
 1679 Fit       0.001261
 1680 Fit       0.002291
 1681 Fit       0.001731
 1682 Fit       0.002233
 1683 Fit       0.002614
 1684 Fit       0.002334
 1685 Fit       0.001650
 1686 Fit       0.001850
 1687 Fit       0.001754
 1688 Fit       0.001608
 1689 Fit       0.001374
 1690 Fit       0.002430
 1691 Fit       0.002771
 1692 Fit       0.002496
 1693 Fit       0.002116
 1694 Fit       0.000198
 1695 Fit      -0.000538
 1696 Fit       0.002608
 1697 Fit       0.001436
 1698 Fit       0.003097
 1699 Fit       0.003011
 1700 Fit       0.001839
 1701 Fit       0.003751
 1702 Fit       0.003928
 1703 Fit       0.003124
 1704 Fit      -0.000010
 1705 Fit       0.001465
 1706 Fit       0.003109
 1707 Fit       0.003773
 1708 Fit       0.003054
 1709 Fit       0.003056
 1710 Fit       0.002861
 1711 Fit       0.002240
 1712 Fit       0.003124
 1713 Fit       0.002510
 1714 Fit       0.002928
 1715 Fit       0.003301
 1716 Fit       0.003815
 1717 Fit       0.001918
 1718 Fit       0.001978
 1719 Fit       0.002655
 1720 Fit       0.003501
 1721 Fit      -0.000567
 1722 Fit      -0.000831
 1723 Fit       0.000607
 1724 Fit       0.002470
 1725 Fit       0.003068
 1726 Fit       0.003639
 1727 Fit       0.004037
 1728 Fit       0.002617
 1729 Fit       0.002915
 1730 Fit       0.003389
 1731 Fit       0.001212
 1732 Fit       0.001247
 1733 Fit       0.001910
 1734 Fit       0.003019
 1735 Fit       0.001310
 1736 Fit       0.002165
 1737 Fit       0.001073
 1738 Fit       0.001616
 1739 Fit       0.002119
 1740 Fit       0.000837
 1741 Fit       0.001508
 1742 Fit       0.000690
 1743 Fit      -0.000400
 1744 Fit      -0.000260
 1745 Fit      -0.000509
 1746 Fit      -0.000454
 1747 Fit       0.000466
 1748 Fit       0.000027
 1749 Fit       0.001596
 1750 Fit       0.000930
 1751 Fit       0.001907
 1752 Fit       0.000657
 1753 Fit       0.003491
 1754 Fit       0.002204
 1755 Fit       0.000699
 1756 Fit       0.004283
 1757 Fit       0.002455
 1758 Fit       0.000871
 1759 Fit       0.002217
 1760 Fit       0.002459
 1761 Fit       0.001064
 1762 Fit       0.002461
 1763 Fit       0.001592
 1764 Fit       0.002383
 1765 Fit       0.004262
 1766 Fit       0.002337
 1767 Fit       0.003165
 1768 Fit       0.004037
 1769 Fit       0.000562
 1770 Fit       0.001468
 1771 Fit       0.002436
 1772 Fit      -0.007909
 1773 Fit      -0.000004
 1774 Fit      -0.000220
 1775 Fit       0.002742
 1776 Fit       0.002531
 1777 Fit       0.002631
 1778 Fit       0.002176
 1779 Fit       0.001488
 1780 Fit       0.002424
 1781 Fit       0.001831
 1782 Fit       0.001229
 1783 Fit       0.000564
 1784 Fit       0.000651
 1785 Fit       0.000378
 1786 Fit       0.002002
 1787 Fit       0.003191
 1788 Fit       0.003377
 1789 Fit       0.003498
 1790 Fit       0.001003
 1791 Fit       0.001806
 1792 Fit       0.001743
 1793 Fit       0.000815
 1794 Fit      -0.000516
 1795 Fit       0.001234
 1796 Fit      -0.000996
 1797 Fit      -0.004683
 1798 Fit      -0.004744
 1799 Fit      -0.002006
 1800 Fit       0.001128
 1801 Fit      -0.002385
 1802 Fit      -0.003601
 1803 Fit      -0.007178
 1804 Fit      -0.003484
 1805 Fit       0.005367
 1806 Fit       0.004352
 1807 Fit       0.002695
 1808 Fit       0.004722
 1809 Fit       0.006527
 1810 Fit       0.005478
 1811 Fit       0.002812
 1812 Fit       0.003318
 1813 Fit       0.005787
 1814 Fit       0.008241
 1815 Fit       0.006968
 1816 Fit       0.003313
 1817 Fit       0.003614
 1818 Fit       0.007076
 1819 Fit       0.001046
 1820 Fit      -0.000071
 1821 Fit      -0.005616
 1822 Fit      -0.001179
 1823 Fit      -0.001615
 1824 Fit      -0.001662
 1825 Fit      -0.001738
 1826 Fit      -0.001657
 1827 Fit       0.002379
 1828 Fit       0.000598
 1829 Fit       0.002965
 1830 Fit       0.002717
 1831 Fit       0.001711
 1832 Fit       0.000014
 1833 Fit       0.002333
 1834 Fit       0.001303
 1835 Fit      -0.000319
 1836 Fit       0.000279
 1837 Fit      -0.001190
 1838 Fit      -0.001949
 1839 Fit      -0.001330
 1840 Fit      -0.000648
 1841 Fit      -0.001507
 1842 Fit      -0.000935
 1843 Fit      -0.000599
 1844 Fit      -0.001597
 1845 Fit      -0.002689
 1846 Fit       0.002962
 1847 Fit       0.001413
 1848 Fit       0.002273
 1849 Fit       0.001560
 1850 Fit       0.001192
 1851 Fit       0.000272
 1852 Fit      -0.002060
 1853 Fit      -0.000788
 1854 Fit      -0.001360
 1855 Fit      -0.004859
 1856 Fit      -0.000958
 1857 Fit       0.001146
 1858 Fit       0.010265
 1859 Fit       0.010559
 1860 Fit       0.008362
 1861 Fit       0.004211
 1862 Fit       0.007932
 1863 Fit       0.014212
 1864 Fit       0.016656
 1865 Fit       0.005015
 1866 Fit       0.009946
 1867 Fit      -0.004999
 1868 Fit      -0.001027
 1869 Fit      -0.001297
 1870 Fit      -0.000810
 1871 Fit      -0.000266
 1872 Fit      -0.001077
 1873 Fit      -0.000817
 1874 Fit      -0.003511
 1875 Fit      -0.004545
 1876 Fit      -0.003836
 1877 Fit      -0.012779
 1878 Fit      -0.002106
 1879 Fit      -0.002661
 1880 Fit      -0.011009
 1881 Fit      -0.020475
 1882 Fit      -0.001077
 1883 Fit      -0.001368
 1884 Fit      -0.001554
 1885 Fit      -0.004916
 1886 Fit      -0.003939
 1887 Fit      -0.004364
 1888 Fit      -0.007210
 1889 Fit      -0.016667
 1890 Fit      -0.008751
 1891 Fit      -0.010170
 1892 Fit      -0.020675
 1893 Fit      -0.017402
 1894 Fit      -0.000239
 1895 Fit       0.000085
 1896 Fit      -0.006705
 1897 Fit      -0.002739
 1898 Fit      -0.001146
 1899 Fit      -0.000707
 1900 Fit      -0.000805
 1901 Fit      -0.007758
 1902 Fit      -0.003742
 1903 Fit      -0.002674
 1904 Fit      -0.003316
 1905 Fit      -0.012158
 1906 Fit      -0.006798
 1907 Fit      -0.007732
 1908 Fit      -0.014012
 1909 Fit       0.001518
 1910 Fit       0.000489
 1911 Fit       0.002001
 1912 Fit       0.001101
 1913 Fit       0.000020
 1914 Fit       0.002560
 1915 Fit       0.002647
 1916 Fit       0.002179
 1917 Fit       0.001308
 1918 Fit       0.000441
 1919 Fit       0.001295
 1920 Fit       0.001684
 1921 Fit       0.002480
 1922 Fit       0.001764
 1923 Fit       0.001659
 1924 Fit      -0.009844
 1925 Fit       0.003588
 1926 Fit       0.002305
 1927 Fit       0.002181
 1928 Fit       0.012512
 1929 Fit       0.006715
 1930 Fit       0.003765
 1931 Fit       0.002519
 1932 Fit       0.002463
 1933 Fit       0.006862
 1934 Fit       0.002111
 1935 Fit       0.000397
 1936 Fit       0.000096
 1937 Fit      -0.004777
 1938 Fit      -0.005184
 1939 Fit      -0.000395
 1940 Fit       0.000328
 1941 Fit      -0.000892
 1942 Fit      -0.001106
 1943 Fit      -0.000282
 1944 Fit       0.000732
 1945 Fit      -0.001452
 1946 Fit      -0.001243
 1947 Fit      -0.000543
 1948 Fit      -0.000923
 1949 Fit      -0.000553
 1950 Fit       0.000499
 1951 Fit       0.002499
 1952 Fit       0.002392
 1953 Fit       0.001738
 1954 Fit       0.000273
 1955 Fit       0.001481
 1956 Fit       0.001157
 1957 Fit      -0.000057
 1958 Fit      -0.000300
 1959 Fit       0.001559
 1960 Fit       0.002425
 1961 Fit       0.002574
 1962 Fit       0.002083
 1963 Fit       0.000544
 1964 Fit       0.001391
 1965 Fit       0.001777
 1966 Fit       0.001562
 1967 Fit       0.000959
 1968 Fit      -0.000657
 1969 Fit       0.000133
 1970 Fit       0.000516
 1971 Fit       0.000344
 1972 Fit       0.000728
 1973 Fit       0.002324
 1974 Fit       0.000354
 1975 Fit       0.001761
 1976 Fit       0.003307
 1977 Fit       0.002769
 1978 Fit       0.000364
 1979 Fit       0.000219
 1980 Fit       0.001122
 1981 Fit       0.003101
 1982 Fit       0.001731
 1983 Fit       0.000531
 1984 Fit       0.003508
 1985 Fit       0.001668
 1986 Fit      -0.000303
 1987 Fit      -0.000002
 1988 Fit       0.000679
 1989 Fit       0.000540
 1990 Fit       0.001012
 1991 Fit       0.001088
 1992 Fit       0.000738
 1993 Fit       0.001170
 1994 Fit       0.001796
 1995 Fit       0.001843
 1996 Fit      -0.000390
 1997 Fit       0.001301
 1998 Fit       0.002552
 1999 Fit      -0.001220
 2000 Fit       0.000518
 2001 Fit       0.001806
 2002 Fit       0.002384
 2003 Fit       0.002191
 2004 Fit      -0.001180
 2005 Fit       0.000351
 2006 Fit       0.001603
 2007 Fit       0.002540
 2008 Fit       0.000503
 2009 Fit       0.002175
 2010 Fit       0.001113
 2011 Fit      -0.000457
 2012 Fit       0.001981
 2013 Fit       0.001810
 2014 Fit       0.001100
 2015 Fit      -0.000125
 2016 Fit       0.000606
 2017 Fit       0.001101
 2018 Fit       0.000886
 2019 Fit       0.000113
 2020 Fit       0.000446
 2021 Fit       0.001140
 2022 Fit       0.001340
 2023 Fit       0.000718
 2024 Fit       0.000915
 2025 Fit       0.001677
 2026 Fit       0.002017
 2027 Fit       0.001381
 2028 Fit      -0.002214
 2029 Fit      -0.001959
 2030 Fit      -0.001871
 2031 Fit      -0.002081
 2032 Fit      -0.002337
 2033 Fit      -0.001312
 2034 Fit      -0.001365
 2035 Fit      -0.001880
 2036 Fit      -0.000812
 2037 Fit      -0.000444
 2038 Fit      -0.000094
 2039 Fit      -0.001661
 2040 Fit      -0.000875
 2041 Fit      -0.001182
 2042 Fit      -0.001432
 2043 Fit       0.000126
 2044 Fit       0.000781
 2045 Fit       0.000286
 2046 Fit      -0.001376
 2047 Fit       0.000342
 2048 Fit       0.001533
 2049 Fit       0.001792
 2050 Fit       0.001137
 2051 Fit      -0.000010
 2052 Fit      -0.001616
 2053 Fit       0.000437
 2054 Fit       0.001976
 2055 Fit       0.002356
 2056 Fit       0.001641
 2057 Fit       0.000189
 2058 Fit       0.001169
 2059 Fit      -0.000349
 2060 Fit      -0.001493
 2061 Fit      -0.001250
 2062 Fit       0.000108
 2063 Fit       0.001396
 2064 Fit       0.001593
 2065 Fit      -0.000055
 2066 Fit      -0.000918
 2067 Fit       0.000571
 2068 Fit       0.001829
 2069 Fit       0.002331
 2070 Fit      -0.000651
 2071 Fit      -0.000044
 2072 Fit       0.001289
 2073 Fit       0.002405
 2074 Fit      -0.001717
 2075 Fit      -0.001129
 2076 Fit      -0.000139
 2077 Fit      -0.000205
 2078 Fit      -0.001289
 2079 Fit      -0.000712
 2080 Fit       0.000806
 2081 Fit       0.001263
 2082 Fit       0.000786
 2083 Fit      -0.000469
 2084 Fit       0.002166
 2085 Fit       0.002105
 2086 Fit       0.001352
 2087 Fit      -0.000211
 2088 Fit      -0.001663
 2089 Fit      -0.000901
 2090 Fit      -0.001368
 2091 Fit       0.000715
 2092 Fit      -0.000798
 2093 Fit      -0.001085
 2094 Fit       0.000793
 2095 Fit      -0.000197
 2096 Fit      -0.000265
 2097 Fit       0.000707
 2098 Fit       0.001054
 2099 Fit       0.001995
 2100 Fit       0.003353
 2101 Fit       0.001948
 2102 Fit       0.001876
 2103 Fit       0.000506
 2104 Fit       0.002644
 2105 Fit       0.001360
 2106 Fit       0.000161
 2107 Fit      -0.001170
 2108 Fit       0.002083
 2109 Fit       0.002194
 2110 Fit       0.002051
 2111 Fit       0.000384
 2112 Fit      -0.000669
 2113 Fit       0.001139
 2114 Fit       0.001115
 2115 Fit       0.001203
 2116 Fit       0.001033
 2117 Fit      -0.000087
 2118 Fit      -0.000196
 2119 Fit      -0.000854
 2120 Fit       0.000327
 2121 Fit      -0.000485
 2122 Fit       0.000872
 2123 Fit       0.001822
 2124 Fit       0.002485
 2125 Fit      -0.000050
 2126 Fit       0.001248
 2127 Fit       0.002111
 2128 Fit       0.002593
 2129 Fit       0.000434
 2130 Fit       0.001407
 2131 Fit       0.001827
 2132 Fit       0.000753
 -----------------------------------------------------------------
 Leave Link  602 at Tue Mar 21 12:56:19 2017, MaxMem=    33554432 cpu:         3.2
 (Enter /home/michal/g09/l9999.exe)

 Test job not archived.
 1\1\GINC-LINUX\SP\RHF\6-31G(d)\C27H46O1\MICHAL\21-Mar-2017\0\\#P HF/6-
 31G* SCF(Conver=6) NoSymm Test Pop=mk IOp(6/33=2) GFInput GFPrint\\MEP
  - Input generated by R.E.D.-III.x MOLECULE\\0,1\O,0,4.99592034,-0.222
 15113,-7.2551986\H,0,5.94727909,-0.30942405,-7.10941275\C,0,0.,0.,0.\C
 ,0,1.55452575,0.,0.\H,0,1.840319,1.06615452,0.\C,0,2.21300214,-0.60347
 478,-1.24745801\H,0,1.94634687,-1.66758177,-1.31831547\C,0,1.70950733,
 0.13320394,-2.51644064\H,0,2.11469027,1.15608455,-2.44251701\C,0,-0.26
 825539,0.64650857,1.40331343\H,0,-0.0158812,1.71154748,1.29275033\C,0,
 -0.43587064,0.82112767,-1.23080308\H,0,-0.11097233,1.86249286,-1.09157
 334\H,0,-1.52531977,0.84671417,-1.33591201\C,0,2.30449683,-0.46411805,
 -3.83996759\C,0,1.93764091,-0.54971369,1.3829297\H,0,2.93303023,-0.223
 58502,1.70065969\H,0,1.95323205,-1.6466977,1.37378419\C,0,0.16866019,0
 .26442536,-2.53658073\H,0,-0.28484549,-0.71105243,-2.74201173\H,0,-0.1
 3481342,0.91635642,-3.36353969\C,0,0.81628668,-0.01513089,2.31699477\H
 ,0,0.37564177,-0.83236671,2.90014395\H,0,1.20783944,0.70334121,3.04392
 109\C,0,3.74481962,-0.50748644,-1.1614152\H,0,4.12834057,-1.23716504,-
 0.43586539\H,0,4.02898326,0.47931412,-0.75932005\C,0,-1.68704313,0.570
 91507,2.02016597\H,0,-1.93239446,-0.49393488,2.14518608\C,0,-0.5939239
 5,-1.42596439,-0.0579783\H,0,-1.68724334,-1.38662613,-0.10950145\H,0,-
 0.25056487,-1.98387068,-0.93254039\H,0,-0.33095379,-2.016599,0.8248862
 5\C,0,3.80996572,-0.71748322,-3.67682088\C,0,2.10911802,0.57592815,-4.
 98699944\H,0,2.43546146,1.55825237,-4.61786058\H,0,1.04208185,0.669274
 76,-5.21659143\C,0,4.42496556,-0.71453232,-2.48496595\H,0,5.50299498,-
 0.87702029,-2.45478329\C,0,1.61314428,-1.79870317,-4.22773287\H,0,0.57
 430658,-1.63740319,-4.53238504\H,0,2.12079671,-2.28532637,-5.06422575\
 H,0,1.62008318,-2.50480976,-3.39163385\C,0,4.59681265,-0.97633275,-4.9
 4822826\H,0,5.66546433,-1.04968974,-4.70847233\H,0,4.30716046,-1.93664
 413,-5.39786746\C,0,2.87299678,0.26299404,-6.28184899\H,0,2.50546469,-
 0.66065501,-6.74610169\H,0,2.71639056,1.06496039,-7.0121852\C,0,-1.739
 30538,1.17688561,3.44953808\H,0,-2.75094115,1.00284705,3.84449363\H,0,
 -1.06453671,0.61151483,4.1021274\C,0,4.36378881,0.10636963,-6.01186032
 \H,0,4.76231242,1.06478386,-5.63985744\C,0,-2.78410773,1.18883802,1.13
 281118\H,0,-2.52967047,2.20497348,0.81177965\H,0,-3.73359214,1.2410988
 4,1.67876108\H,0,-2.96108069,0.59643537,0.23168776\C,0,-1.42619042,2.6
 7840798,3.56719832\H,0,-0.38566044,2.87070556,3.27753241\H,0,-2.043115
 5,3.23650558,2.85188367\C,0,-1.69264333,3.26566223,4.966554\H,0,-2.752
 75467,3.10735251,5.21235013\H,0,-1.55203909,4.35599699,4.92282947\C,0,
 -0.83692391,2.71909544,6.12928463\H,0,-0.97291419,1.62919835,6.1763641
 3\C,0,-1.32511996,3.30128928,7.4656027\H,0,-2.38315154,3.07291015,7.63
 81958\H,0,-0.75287922,2.89783978,8.30883616\H,0,-1.21361493,4.39321183
 ,7.48048963\C,0,0.66176473,3.00018839,5.93636289\H,0,1.0560127,2.53471
 09,5.02730007\H,0,1.24433328,2.61636667,6.78161787\H,0,0.84912632,4.07
 971264,5.86661245\\Version=EM64L-G09RevD.01\HF=-1124.0783056\RMSD=4.55
 9e-07\Dipole=0.1723246,0.0347908,0.6200096\Quadrupole=10.3537051,2.948
 7436,-13.3024487,0.5256461,2.6224566,-1.7618525\PG=C01 [X(C27H46O1)]\\
 @


 A politician is a person who can make waves and then
 make you think he's the only one who can save the ship.
 -- Ivern Ball
 Job cpu time:       0 days  0 hours 10 minutes 27.8 seconds.
 File lengths (MBytes):  RWF=    142 Int=      0 D2E=      0 Chk=     10 Scr=      1
 Normal termination of Gaussian 09 at Tue Mar 21 12:56:19 2017.
