 Entering Gaussian System, Link 0=/home/michal/g09/g09
 Input=JOB2-gau_m1-3-4.com
 Output=JOB2-gau_m1-3-4.log
 Initial command:
 /home/michal/g09/l1.exe "/home/michal/gauss_scratch/Gau-13128.inp" -scrdir="/home/michal/gauss_scratch/"
 Entering Link 1 = /home/michal/g09/l1.exe PID=     13129.
  
 Copyright (c) 1988,1990,1992,1993,1995,1998,2003,2009,2013,
            Gaussian, Inc.  All Rights Reserved.
  
 This is part of the Gaussian(R) 09 program.  It is based on
 the Gaussian(R) 03 system (copyright 2003, Gaussian, Inc.),
 the Gaussian(R) 98 system (copyright 1998, Gaussian, Inc.),
 the Gaussian(R) 94 system (copyright 1995, Gaussian, Inc.),
 the Gaussian 92(TM) system (copyright 1992, Gaussian, Inc.),
 the Gaussian 90(TM) system (copyright 1990, Gaussian, Inc.),
 the Gaussian 88(TM) system (copyright 1988, Gaussian, Inc.),
 the Gaussian 86(TM) system (copyright 1986, Carnegie Mellon
 University), and the Gaussian 82(TM) system (copyright 1983,
 Carnegie Mellon University). Gaussian is a federally registered
 trademark of Gaussian, Inc.
  
 This software contains proprietary and confidential information,
 including trade secrets, belonging to Gaussian, Inc.
  
 This software is provided under written license and may be
 used, copied, transmitted, or stored only in accord with that
 written license.
  
 The following legend is applicable only to US Government
 contracts under FAR:
  
                    RESTRICTED RIGHTS LEGEND
  
 Use, reproduction and disclosure by the US Government is
 subject to restrictions as set forth in subparagraphs (a)
 and (c) of the Commercial Computer Software - Restricted
 Rights clause in FAR 52.227-19.
  
 Gaussian, Inc.
 340 Quinnipiac St., Bldg. 40, Wallingford CT 06492
  
  
 ---------------------------------------------------------------
 Warning -- This program may not be used in any manner that
 competes with the business of Gaussian, Inc. or will provide
 assistance to any competitor of Gaussian, Inc.  The licensee
 of this program is prohibited from giving any competitor of
 Gaussian, Inc. access to this program.  By using this program,
 the user acknowledges that Gaussian, Inc. is engaged in the
 business of creating and licensing software in the field of
 computational chemistry and represents and warrants to the
 licensee that it is not a competitor of Gaussian, Inc. and that
 it will not use this program in any manner prohibited above.
 ---------------------------------------------------------------
  

 Cite this work as:
 Gaussian 09, Revision D.01,
 M. J. Frisch, G. W. Trucks, H. B. Schlegel, G. E. Scuseria, 
 M. A. Robb, J. R. Cheeseman, G. Scalmani, V. Barone, B. Mennucci, 
 G. A. Petersson, H. Nakatsuji, M. Caricato, X. Li, H. P. Hratchian, 
 A. F. Izmaylov, J. Bloino, G. Zheng, J. L. Sonnenberg, M. Hada, 
 M. Ehara, K. Toyota, R. Fukuda, J. Hasegawa, M. Ishida, T. Nakajima, 
 Y. Honda, O. Kitao, H. Nakai, T. Vreven, J. A. Montgomery, Jr., 
 J. E. Peralta, F. Ogliaro, M. Bearpark, J. J. Heyd, E. Brothers, 
 K. N. Kudin, V. N. Staroverov, T. Keith, R. Kobayashi, J. Normand, 
 K. Raghavachari, A. Rendell, J. C. Burant, S. S. Iyengar, J. Tomasi, 
 M. Cossi, N. Rega, J. M. Millam, M. Klene, J. E. Knox, J. B. Cross, 
 V. Bakken, C. Adamo, J. Jaramillo, R. Gomperts, R. E. Stratmann, 
 O. Yazyev, A. J. Austin, R. Cammi, C. Pomelli, J. W. Ochterski, 
 R. L. Martin, K. Morokuma, V. G. Zakrzewski, G. A. Voth, 
 P. Salvador, J. J. Dannenberg, S. Dapprich, A. D. Daniels, 
 O. Farkas, J. B. Foresman, J. V. Ortiz, J. Cioslowski, 
 and D. J. Fox, Gaussian, Inc., Wallingford CT, 2013.
 
 ******************************************
 Gaussian 09:  EM64L-G09RevD.01 24-Apr-2013
                21-Mar-2017 
 ******************************************
 %Mem=256MB
 %NProc=12
 Will use up to   12 processors via shared memory.
 ----------------------------------------------------------------------
 #P HF/6-31G* SCF(Conver=6) NoSymm Test Pop=mk IOp(6/33=2) GFInput GFPr
 int
 ----------------------------------------------------------------------
 1/38=1/1;
 2/12=2,15=1,17=6,18=5,40=1/2;
 3/5=1,6=6,7=1,11=9,16=1,24=110,25=1,30=1/1,2,3;
 4//1;
 5/5=2,6=6,38=5/2;
 6/7=2,8=2,9=2,10=2,15=8,20=1,28=1,33=2/1,2;
 99/5=1,9=1/99;
 Leave Link    1 at Tue Mar 21 11:57:10 2017, MaxMem=    33554432 cpu:         0.6
 (Enter /home/michal/g09/l101.exe)
 ----------------------------------------------
 MEP - Input generated by R.E.D.-III.x MOLECULE
 ----------------------------------------------
 Symbolic Z-matrix:
 Charge =  0 Multiplicity = 1
 O                     4.21124   6.55676   4.11845 
 H                     4.98984   6.9074    3.66592 
 C                     0.        0.        0. 
 C                     1.34564   0.61945  -0.47231 
 H                     2.12779   0.        0. 
 C                     1.61291   2.05459   0. 
 H                     0.84824   2.722    -0.42216 
 C                     1.54728   2.12063   1.54818 
 H                     2.41085   1.53474   1.90444 
 C                     0.08849  -1.40523  -0.69263 
 H                     0.82617  -1.98335  -0.11336 
 C                     0.03578   0.01239   1.54262 
 H                     0.83925  -0.65838   1.88007 
 H                    -0.89263  -0.37414   1.97466 
 C                     1.76203   3.57287   2.10266 
 C                     1.4001    0.31153  -1.9757 
 H                     2.42294   0.30589  -2.36541 
 H                     0.84903   1.06917  -2.54663 
 C                     0.27996   1.42948   2.10201 
 H                    -0.60138   2.04392   1.88941 
 H                     0.34316   1.36343   3.1941 
 C                     0.72021  -1.08024  -2.09008 
 H                    -0.05428  -1.0738   -2.86643 
 H                     1.44158  -1.84942  -2.38166 
 C                     2.98603   2.54649  -0.48562 
 H                     2.95159   2.75892  -1.56247 
 H                     3.72703   1.73761  -0.37234 
 C                    -1.18052  -2.28975  -0.80611 
 H                    -1.90682  -1.75568  -1.43798 
 C                    -1.22693   0.7799   -0.52617 
 H                    -2.15507   0.35048  -0.13483 
 H                    -1.20906   1.83177  -0.23054 
 H                    -1.29218   0.75282  -1.61817 
 C                     2.93682   4.24718   1.38019 
 C                     2.11503   3.47886   3.61995 
 H                     2.88999   2.70963   3.74418 
 H                     1.23885   3.12983   4.17714 
 C                     3.47032   3.76481   0.24817 
 H                     4.32121   4.28736  -0.19046 
 C                     0.49399   4.44926   1.91919 
 H                    -0.32413   4.10888   2.56175 
 H                     0.68794   5.4942    2.17359 
 H                     0.14666   4.42927   0.88154 
 C                     3.48743   5.51185   2.01264 
 H                     4.37472   5.84215   1.45721 
 H                     2.75479   6.32911   1.95282 
 C                     2.61914   4.78557   4.2497 
 H                     1.83771   5.5557    4.24486 
 H                     2.88652   4.61678   5.29902 
 C                    -0.84277  -3.61933  -1.52636 
 H                    -0.2874   -3.40099  -2.44613 
 H                    -0.15795  -4.19551  -0.88724 
 C                     3.82964   5.32291   3.49759 
 H                     4.65565   4.59774   3.58486 
 C                    -1.8496   -2.57124   0.5507 
 H                    -1.14229  -3.03941   1.24706 
 H                    -2.70202  -3.24781   0.43891 
 H                    -2.22646  -1.66086   1.0216 
 C                    -2.05698  -4.48284  -1.90929 
 H                    -2.55692  -4.8649   -1.01194 
 H                    -2.79537  -3.84425  -2.41484 
 C                    -1.72282  -5.65634  -2.84889 
 H                    -1.29416  -5.25003  -3.7765 
 H                    -2.66095  -6.15182  -3.14016 
 C                    -0.76135  -6.73174  -2.29938 
 H                     0.18252  -6.24025  -2.02302 
 C                    -0.43998  -7.76398  -3.39207 
 H                    -0.00828  -7.28586  -4.27894 
 H                     0.27449  -8.514    -3.03392 
 H                    -1.34765  -8.29406  -3.70837 
 C                    -1.31466  -7.4285   -1.04614 
 H                    -1.47794  -6.72731  -0.22132 
 H                    -0.62261  -8.20008  -0.68993 
 H                    -2.2734   -7.91721  -1.26366 
 
 NAtoms=     74 NQM=       74 NQMF=       0 NMMI=      0 NMMIF=      0
                NMic=       0 NMicF=      0.
                    Isotopes and Nuclear Properties:
 (Nuclear quadrupole moments (NQMom) in fm**2, nuclear magnetic moments (NMagM)
  in nuclear magnetons)

  Atom         1           2           3           4           5           6           7           8           9          10
 IAtWgt=          16           1          12          12           1          12           1          12           1          12
 AtmWgt=  15.9949146   1.0078250  12.0000000  12.0000000   1.0078250  12.0000000   1.0078250  12.0000000   1.0078250  12.0000000
 NucSpn=           0           1           0           0           1           0           1           0           1           0
 AtZEff=   0.0000000   0.0000000   0.0000000   0.0000000   0.0000000   0.0000000   0.0000000   0.0000000   0.0000000   0.0000000
 NQMom=    0.0000000   0.0000000   0.0000000   0.0000000   0.0000000   0.0000000   0.0000000   0.0000000   0.0000000   0.0000000
 NMagM=    0.0000000   2.7928460   0.0000000   0.0000000   2.7928460   0.0000000   2.7928460   0.0000000   2.7928460   0.0000000
 AtZNuc=   8.0000000   1.0000000   6.0000000   6.0000000   1.0000000   6.0000000   1.0000000   6.0000000   1.0000000   6.0000000

  Atom        11          12          13          14          15          16          17          18          19          20
 IAtWgt=           1          12           1           1          12          12           1           1          12           1
 AtmWgt=   1.0078250  12.0000000   1.0078250   1.0078250  12.0000000  12.0000000   1.0078250   1.0078250  12.0000000   1.0078250
 NucSpn=           1           0           1           1           0           0           1           1           0           1
 AtZEff=   0.0000000   0.0000000   0.0000000   0.0000000   0.0000000   0.0000000   0.0000000   0.0000000   0.0000000   0.0000000
 NQMom=    0.0000000   0.0000000   0.0000000   0.0000000   0.0000000   0.0000000   0.0000000   0.0000000   0.0000000   0.0000000
 NMagM=    2.7928460   0.0000000   2.7928460   2.7928460   0.0000000   0.0000000   2.7928460   2.7928460   0.0000000   2.7928460
 AtZNuc=   1.0000000   6.0000000   1.0000000   1.0000000   6.0000000   6.0000000   1.0000000   1.0000000   6.0000000   1.0000000

  Atom        21          22          23          24          25          26          27          28          29          30
 IAtWgt=           1          12           1           1          12           1           1          12           1          12
 AtmWgt=   1.0078250  12.0000000   1.0078250   1.0078250  12.0000000   1.0078250   1.0078250  12.0000000   1.0078250  12.0000000
 NucSpn=           1           0           1           1           0           1           1           0           1           0
 AtZEff=   0.0000000   0.0000000   0.0000000   0.0000000   0.0000000   0.0000000   0.0000000   0.0000000   0.0000000   0.0000000
 NQMom=    0.0000000   0.0000000   0.0000000   0.0000000   0.0000000   0.0000000   0.0000000   0.0000000   0.0000000   0.0000000
 NMagM=    2.7928460   0.0000000   2.7928460   2.7928460   0.0000000   2.7928460   2.7928460   0.0000000   2.7928460   0.0000000
 AtZNuc=   1.0000000   6.0000000   1.0000000   1.0000000   6.0000000   1.0000000   1.0000000   6.0000000   1.0000000   6.0000000

  Atom        31          32          33          34          35          36          37          38          39          40
 IAtWgt=           1           1           1          12          12           1           1          12           1          12
 AtmWgt=   1.0078250   1.0078250   1.0078250  12.0000000  12.0000000   1.0078250   1.0078250  12.0000000   1.0078250  12.0000000
 NucSpn=           1           1           1           0           0           1           1           0           1           0
 AtZEff=   0.0000000   0.0000000   0.0000000   0.0000000   0.0000000   0.0000000   0.0000000   0.0000000   0.0000000   0.0000000
 NQMom=    0.0000000   0.0000000   0.0000000   0.0000000   0.0000000   0.0000000   0.0000000   0.0000000   0.0000000   0.0000000
 NMagM=    2.7928460   2.7928460   2.7928460   0.0000000   0.0000000   2.7928460   2.7928460   0.0000000   2.7928460   0.0000000
 AtZNuc=   1.0000000   1.0000000   1.0000000   6.0000000   6.0000000   1.0000000   1.0000000   6.0000000   1.0000000   6.0000000

  Atom        41          42          43          44          45          46          47          48          49          50
 IAtWgt=           1           1           1          12           1           1          12           1           1          12
 AtmWgt=   1.0078250   1.0078250   1.0078250  12.0000000   1.0078250   1.0078250  12.0000000   1.0078250   1.0078250  12.0000000
 NucSpn=           1           1           1           0           1           1           0           1           1           0
 AtZEff=   0.0000000   0.0000000   0.0000000   0.0000000   0.0000000   0.0000000   0.0000000   0.0000000   0.0000000   0.0000000
 NQMom=    0.0000000   0.0000000   0.0000000   0.0000000   0.0000000   0.0000000   0.0000000   0.0000000   0.0000000   0.0000000
 NMagM=    2.7928460   2.7928460   2.7928460   0.0000000   2.7928460   2.7928460   0.0000000   2.7928460   2.7928460   0.0000000
 AtZNuc=   1.0000000   1.0000000   1.0000000   6.0000000   1.0000000   1.0000000   6.0000000   1.0000000   1.0000000   6.0000000

  Atom        51          52          53          54          55          56          57          58          59          60
 IAtWgt=           1           1          12           1          12           1           1           1          12           1
 AtmWgt=   1.0078250   1.0078250  12.0000000   1.0078250  12.0000000   1.0078250   1.0078250   1.0078250  12.0000000   1.0078250
 NucSpn=           1           1           0           1           0           1           1           1           0           1
 AtZEff=   0.0000000   0.0000000   0.0000000   0.0000000   0.0000000   0.0000000   0.0000000   0.0000000   0.0000000   0.0000000
 NQMom=    0.0000000   0.0000000   0.0000000   0.0000000   0.0000000   0.0000000   0.0000000   0.0000000   0.0000000   0.0000000
 NMagM=    2.7928460   2.7928460   0.0000000   2.7928460   0.0000000   2.7928460   2.7928460   2.7928460   0.0000000   2.7928460
 AtZNuc=   1.0000000   1.0000000   6.0000000   1.0000000   6.0000000   1.0000000   1.0000000   1.0000000   6.0000000   1.0000000

  Atom        61          62          63          64          65          66          67          68          69          70
 IAtWgt=           1          12           1           1          12           1          12           1           1           1
 AtmWgt=   1.0078250  12.0000000   1.0078250   1.0078250  12.0000000   1.0078250  12.0000000   1.0078250   1.0078250   1.0078250
 NucSpn=           1           0           1           1           0           1           0           1           1           1
 AtZEff=   0.0000000   0.0000000   0.0000000   0.0000000   0.0000000   0.0000000   0.0000000   0.0000000   0.0000000   0.0000000
 NQMom=    0.0000000   0.0000000   0.0000000   0.0000000   0.0000000   0.0000000   0.0000000   0.0000000   0.0000000   0.0000000
 NMagM=    2.7928460   0.0000000   2.7928460   2.7928460   0.0000000   2.7928460   0.0000000   2.7928460   2.7928460   2.7928460
 AtZNuc=   1.0000000   6.0000000   1.0000000   1.0000000   6.0000000   1.0000000   6.0000000   1.0000000   1.0000000   1.0000000

  Atom        71          72          73          74
 IAtWgt=          12           1           1           1
 AtmWgt=  12.0000000   1.0078250   1.0078250   1.0078250
 NucSpn=           0           1           1           1
 AtZEff=   0.0000000   0.0000000   0.0000000   0.0000000
 NQMom=    0.0000000   0.0000000   0.0000000   0.0000000
 NMagM=    0.0000000   2.7928460   2.7928460   2.7928460
 AtZNuc=   6.0000000   1.0000000   1.0000000   1.0000000
 Leave Link  101 at Tue Mar 21 11:57:10 2017, MaxMem=    33554432 cpu:         1.0
 (Enter /home/michal/g09/l202.exe)
 Symmetry turned off by external request.
 Stoichiometry    C27H46O
 Framework group  C1[X(C27H46O)]
 Deg. of freedom   216
 Full point group                 C1      NOp   1
                          Input orientation:                          
 ---------------------------------------------------------------------
 Center     Atomic      Atomic             Coordinates (Angstroms)
 Number     Number       Type             X           Y           Z
 ---------------------------------------------------------------------
      1          8           0        4.211238    6.556759    4.118450
      2          1           0        4.989837    6.907398    3.665919
      3          6           0        0.000000    0.000000    0.000000
      4          6           0        1.345641    0.619449   -0.472313
      5          1           0        2.127786    0.000000    0.000000
      6          6           0        1.612906    2.054590    0.000000
      7          1           0        0.848240    2.722001   -0.422163
      8          6           0        1.547283    2.120629    1.548183
      9          1           0        2.410850    1.534743    1.904436
     10          6           0        0.088492   -1.405234   -0.692631
     11          1           0        0.826171   -1.983349   -0.113356
     12          6           0        0.035778    0.012388    1.542622
     13          1           0        0.839245   -0.658383    1.880069
     14          1           0       -0.892627   -0.374135    1.974664
     15          6           0        1.762026    3.572868    2.102661
     16          6           0        1.400097    0.311533   -1.975704
     17          1           0        2.422938    0.305894   -2.365408
     18          1           0        0.849033    1.069166   -2.546628
     19          6           0        0.279962    1.429482    2.102010
     20          1           0       -0.601376    2.043923    1.889413
     21          1           0        0.343161    1.363429    3.194095
     22          6           0        0.720214   -1.080245   -2.090080
     23          1           0       -0.054285   -1.073803   -2.866432
     24          1           0        1.441579   -1.849418   -2.381663
     25          6           0        2.986027    2.546492   -0.485623
     26          1           0        2.951585    2.758916   -1.562473
     27          1           0        3.727028    1.737615   -0.372340
     28          6           0       -1.180523   -2.289750   -0.806111
     29          1           0       -1.906825   -1.755684   -1.437982
     30          6           0       -1.226932    0.779900   -0.526174
     31          1           0       -2.155074    0.350485   -0.134830
     32          1           0       -1.209057    1.831770   -0.230538
     33          1           0       -1.292179    0.752815   -1.618167
     34          6           0        2.936818    4.247183    1.380191
     35          6           0        2.115026    3.478860    3.619949
     36          1           0        2.889985    2.709629    3.744179
     37          1           0        1.238847    3.129830    4.177136
     38          6           0        3.470320    3.764813    0.248170
     39          1           0        4.321210    4.287364   -0.190463
     40          6           0        0.493994    4.449260    1.919187
     41          1           0       -0.324129    4.108883    2.561750
     42          1           0        0.687941    5.494202    2.173589
     43          1           0        0.146658    4.429265    0.881544
     44          6           0        3.487433    5.511845    2.012635
     45          1           0        4.374724    5.842146    1.457214
     46          1           0        2.754793    6.329108    1.952821
     47          6           0        2.619136    4.785574    4.249699
     48          1           0        1.837710    5.555697    4.244864
     49          1           0        2.886523    4.616778    5.299025
     50          6           0       -0.842774   -3.619327   -1.526365
     51          1           0       -0.287404   -3.400989   -2.446127
     52          1           0       -0.157955   -4.195505   -0.887245
     53          6           0        3.829645    5.322914    3.497593
     54          1           0        4.655648    4.597742    3.584858
     55          6           0       -1.849602   -2.571240    0.550705
     56          1           0       -1.142295   -3.039413    1.247057
     57          1           0       -2.702015   -3.247806    0.438907
     58          1           0       -2.226459   -1.660864    1.021603
     59          6           0       -2.056983   -4.482840   -1.909291
     60          1           0       -2.556923   -4.864899   -1.011945
     61          1           0       -2.795371   -3.844250   -2.414840
     62          6           0       -1.722823   -5.656338   -2.848885
     63          1           0       -1.294159   -5.250025   -3.776498
     64          1           0       -2.660954   -6.151816   -3.140162
     65          6           0       -0.761348   -6.731742   -2.299376
     66          1           0        0.182516   -6.240246   -2.023025
     67          6           0       -0.439977   -7.763976   -3.392074
     68          1           0       -0.008283   -7.285864   -4.278936
     69          1           0        0.274486   -8.514000   -3.033924
     70          1           0       -1.347651   -8.294062   -3.708367
     71          6           0       -1.314661   -7.428501   -1.046143
     72          1           0       -1.477941   -6.727315   -0.221317
     73          1           0       -0.622611   -8.200076   -0.689926
     74          1           0       -2.273396   -7.917212   -1.263664
 ---------------------------------------------------------------------
 Rotational constants (GHZ):      0.5373432      0.0549481      0.0534128
 Leave Link  202 at Tue Mar 21 11:57:10 2017, MaxMem=    33554432 cpu:         0.0
 (Enter /home/michal/g09/l301.exe)
 Standard basis: 6-31G(d) (6D, 7F)
 Ernie: Thresh=  0.10000D-02 Tol=  0.10000D-05 Strict=F.
 AO basis set in the form of general basis input (Overlap normalization):
      1 0
 S   6 1.00       0.000000000000
      0.5484671660D+04  0.1831074430D-02
      0.8252349460D+03  0.1395017220D-01
      0.1880469580D+03  0.6844507810D-01
      0.5296450000D+02  0.2327143360D+00
      0.1689757040D+02  0.4701928980D+00
      0.5799635340D+01  0.3585208530D+00
 SP   3 1.00       0.000000000000
      0.1553961625D+02 -0.1107775495D+00  0.7087426823D-01
      0.3599933586D+01 -0.1480262627D+00  0.3397528391D+00
      0.1013761750D+01  0.1130767015D+01  0.7271585773D+00
 SP   1 1.00       0.000000000000
      0.2700058226D+00  0.1000000000D+01  0.1000000000D+01
 D   1 1.00       0.000000000000
      0.8000000000D+00  0.1000000000D+01
 ****
      2 0
 S   3 1.00       0.000000000000
      0.1873113696D+02  0.3349460434D-01
      0.2825394365D+01  0.2347269535D+00
      0.6401216923D+00  0.8137573261D+00
 S   1 1.00       0.000000000000
      0.1612777588D+00  0.1000000000D+01
 ****
      3 0
 S   6 1.00       0.000000000000
      0.3047524880D+04  0.1834737132D-02
      0.4573695180D+03  0.1403732281D-01
      0.1039486850D+03  0.6884262226D-01
      0.2921015530D+02  0.2321844432D+00
      0.9286662960D+01  0.4679413484D+00
      0.3163926960D+01  0.3623119853D+00
 SP   3 1.00       0.000000000000
      0.7868272350D+01 -0.1193324198D+00  0.6899906659D-01
      0.1881288540D+01 -0.1608541517D+00  0.3164239610D+00
      0.5442492580D+00  0.1143456438D+01  0.7443082909D+00
 SP   1 1.00       0.000000000000
      0.1687144782D+00  0.1000000000D+01  0.1000000000D+01
 D   1 1.00       0.000000000000
      0.8000000000D+00  0.1000000000D+01
 ****
      4 0
 S   6 1.00       0.000000000000
      0.3047524880D+04  0.1834737132D-02
      0.4573695180D+03  0.1403732281D-01
      0.1039486850D+03  0.6884262226D-01
      0.2921015530D+02  0.2321844432D+00
      0.9286662960D+01  0.4679413484D+00
      0.3163926960D+01  0.3623119853D+00
 SP   3 1.00       0.000000000000
      0.7868272350D+01 -0.1193324198D+00  0.6899906659D-01
      0.1881288540D+01 -0.1608541517D+00  0.3164239610D+00
      0.5442492580D+00  0.1143456438D+01  0.7443082909D+00
 SP   1 1.00       0.000000000000
      0.1687144782D+00  0.1000000000D+01  0.1000000000D+01
 D   1 1.00       0.000000000000
      0.8000000000D+00  0.1000000000D+01
 ****
      5 0
 S   3 1.00       0.000000000000
      0.1873113696D+02  0.3349460434D-01
      0.2825394365D+01  0.2347269535D+00
      0.6401216923D+00  0.8137573261D+00
 S   1 1.00       0.000000000000
      0.1612777588D+00  0.1000000000D+01
 ****
      6 0
 S   6 1.00       0.000000000000
      0.3047524880D+04  0.1834737132D-02
      0.4573695180D+03  0.1403732281D-01
      0.1039486850D+03  0.6884262226D-01
      0.2921015530D+02  0.2321844432D+00
      0.9286662960D+01  0.4679413484D+00
      0.3163926960D+01  0.3623119853D+00
 SP   3 1.00       0.000000000000
      0.7868272350D+01 -0.1193324198D+00  0.6899906659D-01
      0.1881288540D+01 -0.1608541517D+00  0.3164239610D+00
      0.5442492580D+00  0.1143456438D+01  0.7443082909D+00
 SP   1 1.00       0.000000000000
      0.1687144782D+00  0.1000000000D+01  0.1000000000D+01
 D   1 1.00       0.000000000000
      0.8000000000D+00  0.1000000000D+01
 ****
      7 0
 S   3 1.00       0.000000000000
      0.1873113696D+02  0.3349460434D-01
      0.2825394365D+01  0.2347269535D+00
      0.6401216923D+00  0.8137573261D+00
 S   1 1.00       0.000000000000
      0.1612777588D+00  0.1000000000D+01
 ****
      8 0
 S   6 1.00       0.000000000000
      0.3047524880D+04  0.1834737132D-02
      0.4573695180D+03  0.1403732281D-01
      0.1039486850D+03  0.6884262226D-01
      0.2921015530D+02  0.2321844432D+00
      0.9286662960D+01  0.4679413484D+00
      0.3163926960D+01  0.3623119853D+00
 SP   3 1.00       0.000000000000
      0.7868272350D+01 -0.1193324198D+00  0.6899906659D-01
      0.1881288540D+01 -0.1608541517D+00  0.3164239610D+00
      0.5442492580D+00  0.1143456438D+01  0.7443082909D+00
 SP   1 1.00       0.000000000000
      0.1687144782D+00  0.1000000000D+01  0.1000000000D+01
 D   1 1.00       0.000000000000
      0.8000000000D+00  0.1000000000D+01
 ****
      9 0
 S   3 1.00       0.000000000000
      0.1873113696D+02  0.3349460434D-01
      0.2825394365D+01  0.2347269535D+00
      0.6401216923D+00  0.8137573261D+00
 S   1 1.00       0.000000000000
      0.1612777588D+00  0.1000000000D+01
 ****
     10 0
 S   6 1.00       0.000000000000
      0.3047524880D+04  0.1834737132D-02
      0.4573695180D+03  0.1403732281D-01
      0.1039486850D+03  0.6884262226D-01
      0.2921015530D+02  0.2321844432D+00
      0.9286662960D+01  0.4679413484D+00
      0.3163926960D+01  0.3623119853D+00
 SP   3 1.00       0.000000000000
      0.7868272350D+01 -0.1193324198D+00  0.6899906659D-01
      0.1881288540D+01 -0.1608541517D+00  0.3164239610D+00
      0.5442492580D+00  0.1143456438D+01  0.7443082909D+00
 SP   1 1.00       0.000000000000
      0.1687144782D+00  0.1000000000D+01  0.1000000000D+01
 D   1 1.00       0.000000000000
      0.8000000000D+00  0.1000000000D+01
 ****
     11 0
 S   3 1.00       0.000000000000
      0.1873113696D+02  0.3349460434D-01
      0.2825394365D+01  0.2347269535D+00
      0.6401216923D+00  0.8137573261D+00
 S   1 1.00       0.000000000000
      0.1612777588D+00  0.1000000000D+01
 ****
     12 0
 S   6 1.00       0.000000000000
      0.3047524880D+04  0.1834737132D-02
      0.4573695180D+03  0.1403732281D-01
      0.1039486850D+03  0.6884262226D-01
      0.2921015530D+02  0.2321844432D+00
      0.9286662960D+01  0.4679413484D+00
      0.3163926960D+01  0.3623119853D+00
 SP   3 1.00       0.000000000000
      0.7868272350D+01 -0.1193324198D+00  0.6899906659D-01
      0.1881288540D+01 -0.1608541517D+00  0.3164239610D+00
      0.5442492580D+00  0.1143456438D+01  0.7443082909D+00
 SP   1 1.00       0.000000000000
      0.1687144782D+00  0.1000000000D+01  0.1000000000D+01
 D   1 1.00       0.000000000000
      0.8000000000D+00  0.1000000000D+01
 ****
     13 0
 S   3 1.00       0.000000000000
      0.1873113696D+02  0.3349460434D-01
      0.2825394365D+01  0.2347269535D+00
      0.6401216923D+00  0.8137573261D+00
 S   1 1.00       0.000000000000
      0.1612777588D+00  0.1000000000D+01
 ****
     14 0
 S   3 1.00       0.000000000000
      0.1873113696D+02  0.3349460434D-01
      0.2825394365D+01  0.2347269535D+00
      0.6401216923D+00  0.8137573261D+00
 S   1 1.00       0.000000000000
      0.1612777588D+00  0.1000000000D+01
 ****
     15 0
 S   6 1.00       0.000000000000
      0.3047524880D+04  0.1834737132D-02
      0.4573695180D+03  0.1403732281D-01
      0.1039486850D+03  0.6884262226D-01
      0.2921015530D+02  0.2321844432D+00
      0.9286662960D+01  0.4679413484D+00
      0.3163926960D+01  0.3623119853D+00
 SP   3 1.00       0.000000000000
      0.7868272350D+01 -0.1193324198D+00  0.6899906659D-01
      0.1881288540D+01 -0.1608541517D+00  0.3164239610D+00
      0.5442492580D+00  0.1143456438D+01  0.7443082909D+00
 SP   1 1.00       0.000000000000
      0.1687144782D+00  0.1000000000D+01  0.1000000000D+01
 D   1 1.00       0.000000000000
      0.8000000000D+00  0.1000000000D+01
 ****
     16 0
 S   6 1.00       0.000000000000
      0.3047524880D+04  0.1834737132D-02
      0.4573695180D+03  0.1403732281D-01
      0.1039486850D+03  0.6884262226D-01
      0.2921015530D+02  0.2321844432D+00
      0.9286662960D+01  0.4679413484D+00
      0.3163926960D+01  0.3623119853D+00
 SP   3 1.00       0.000000000000
      0.7868272350D+01 -0.1193324198D+00  0.6899906659D-01
      0.1881288540D+01 -0.1608541517D+00  0.3164239610D+00
      0.5442492580D+00  0.1143456438D+01  0.7443082909D+00
 SP   1 1.00       0.000000000000
      0.1687144782D+00  0.1000000000D+01  0.1000000000D+01
 D   1 1.00       0.000000000000
      0.8000000000D+00  0.1000000000D+01
 ****
     17 0
 S   3 1.00       0.000000000000
      0.1873113696D+02  0.3349460434D-01
      0.2825394365D+01  0.2347269535D+00
      0.6401216923D+00  0.8137573261D+00
 S   1 1.00       0.000000000000
      0.1612777588D+00  0.1000000000D+01
 ****
     18 0
 S   3 1.00       0.000000000000
      0.1873113696D+02  0.3349460434D-01
      0.2825394365D+01  0.2347269535D+00
      0.6401216923D+00  0.8137573261D+00
 S   1 1.00       0.000000000000
      0.1612777588D+00  0.1000000000D+01
 ****
     19 0
 S   6 1.00       0.000000000000
      0.3047524880D+04  0.1834737132D-02
      0.4573695180D+03  0.1403732281D-01
      0.1039486850D+03  0.6884262226D-01
      0.2921015530D+02  0.2321844432D+00
      0.9286662960D+01  0.4679413484D+00
      0.3163926960D+01  0.3623119853D+00
 SP   3 1.00       0.000000000000
      0.7868272350D+01 -0.1193324198D+00  0.6899906659D-01
      0.1881288540D+01 -0.1608541517D+00  0.3164239610D+00
      0.5442492580D+00  0.1143456438D+01  0.7443082909D+00
 SP   1 1.00       0.000000000000
      0.1687144782D+00  0.1000000000D+01  0.1000000000D+01
 D   1 1.00       0.000000000000
      0.8000000000D+00  0.1000000000D+01
 ****
     20 0
 S   3 1.00       0.000000000000
      0.1873113696D+02  0.3349460434D-01
      0.2825394365D+01  0.2347269535D+00
      0.6401216923D+00  0.8137573261D+00
 S   1 1.00       0.000000000000
      0.1612777588D+00  0.1000000000D+01
 ****
     21 0
 S   3 1.00       0.000000000000
      0.1873113696D+02  0.3349460434D-01
      0.2825394365D+01  0.2347269535D+00
      0.6401216923D+00  0.8137573261D+00
 S   1 1.00       0.000000000000
      0.1612777588D+00  0.1000000000D+01
 ****
     22 0
 S   6 1.00       0.000000000000
      0.3047524880D+04  0.1834737132D-02
      0.4573695180D+03  0.1403732281D-01
      0.1039486850D+03  0.6884262226D-01
      0.2921015530D+02  0.2321844432D+00
      0.9286662960D+01  0.4679413484D+00
      0.3163926960D+01  0.3623119853D+00
 SP   3 1.00       0.000000000000
      0.7868272350D+01 -0.1193324198D+00  0.6899906659D-01
      0.1881288540D+01 -0.1608541517D+00  0.3164239610D+00
      0.5442492580D+00  0.1143456438D+01  0.7443082909D+00
 SP   1 1.00       0.000000000000
      0.1687144782D+00  0.1000000000D+01  0.1000000000D+01
 D   1 1.00       0.000000000000
      0.8000000000D+00  0.1000000000D+01
 ****
     23 0
 S   3 1.00       0.000000000000
      0.1873113696D+02  0.3349460434D-01
      0.2825394365D+01  0.2347269535D+00
      0.6401216923D+00  0.8137573261D+00
 S   1 1.00       0.000000000000
      0.1612777588D+00  0.1000000000D+01
 ****
     24 0
 S   3 1.00       0.000000000000
      0.1873113696D+02  0.3349460434D-01
      0.2825394365D+01  0.2347269535D+00
      0.6401216923D+00  0.8137573261D+00
 S   1 1.00       0.000000000000
      0.1612777588D+00  0.1000000000D+01
 ****
     25 0
 S   6 1.00       0.000000000000
      0.3047524880D+04  0.1834737132D-02
      0.4573695180D+03  0.1403732281D-01
      0.1039486850D+03  0.6884262226D-01
      0.2921015530D+02  0.2321844432D+00
      0.9286662960D+01  0.4679413484D+00
      0.3163926960D+01  0.3623119853D+00
 SP   3 1.00       0.000000000000
      0.7868272350D+01 -0.1193324198D+00  0.6899906659D-01
      0.1881288540D+01 -0.1608541517D+00  0.3164239610D+00
      0.5442492580D+00  0.1143456438D+01  0.7443082909D+00
 SP   1 1.00       0.000000000000
      0.1687144782D+00  0.1000000000D+01  0.1000000000D+01
 D   1 1.00       0.000000000000
      0.8000000000D+00  0.1000000000D+01
 ****
     26 0
 S   3 1.00       0.000000000000
      0.1873113696D+02  0.3349460434D-01
      0.2825394365D+01  0.2347269535D+00
      0.6401216923D+00  0.8137573261D+00
 S   1 1.00       0.000000000000
      0.1612777588D+00  0.1000000000D+01
 ****
     27 0
 S   3 1.00       0.000000000000
      0.1873113696D+02  0.3349460434D-01
      0.2825394365D+01  0.2347269535D+00
      0.6401216923D+00  0.8137573261D+00
 S   1 1.00       0.000000000000
      0.1612777588D+00  0.1000000000D+01
 ****
     28 0
 S   6 1.00       0.000000000000
      0.3047524880D+04  0.1834737132D-02
      0.4573695180D+03  0.1403732281D-01
      0.1039486850D+03  0.6884262226D-01
      0.2921015530D+02  0.2321844432D+00
      0.9286662960D+01  0.4679413484D+00
      0.3163926960D+01  0.3623119853D+00
 SP   3 1.00       0.000000000000
      0.7868272350D+01 -0.1193324198D+00  0.6899906659D-01
      0.1881288540D+01 -0.1608541517D+00  0.3164239610D+00
      0.5442492580D+00  0.1143456438D+01  0.7443082909D+00
 SP   1 1.00       0.000000000000
      0.1687144782D+00  0.1000000000D+01  0.1000000000D+01
 D   1 1.00       0.000000000000
      0.8000000000D+00  0.1000000000D+01
 ****
     29 0
 S   3 1.00       0.000000000000
      0.1873113696D+02  0.3349460434D-01
      0.2825394365D+01  0.2347269535D+00
      0.6401216923D+00  0.8137573261D+00
 S   1 1.00       0.000000000000
      0.1612777588D+00  0.1000000000D+01
 ****
     30 0
 S   6 1.00       0.000000000000
      0.3047524880D+04  0.1834737132D-02
      0.4573695180D+03  0.1403732281D-01
      0.1039486850D+03  0.6884262226D-01
      0.2921015530D+02  0.2321844432D+00
      0.9286662960D+01  0.4679413484D+00
      0.3163926960D+01  0.3623119853D+00
 SP   3 1.00       0.000000000000
      0.7868272350D+01 -0.1193324198D+00  0.6899906659D-01
      0.1881288540D+01 -0.1608541517D+00  0.3164239610D+00
      0.5442492580D+00  0.1143456438D+01  0.7443082909D+00
 SP   1 1.00       0.000000000000
      0.1687144782D+00  0.1000000000D+01  0.1000000000D+01
 D   1 1.00       0.000000000000
      0.8000000000D+00  0.1000000000D+01
 ****
     31 0
 S   3 1.00       0.000000000000
      0.1873113696D+02  0.3349460434D-01
      0.2825394365D+01  0.2347269535D+00
      0.6401216923D+00  0.8137573261D+00
 S   1 1.00       0.000000000000
      0.1612777588D+00  0.1000000000D+01
 ****
     32 0
 S   3 1.00       0.000000000000
      0.1873113696D+02  0.3349460434D-01
      0.2825394365D+01  0.2347269535D+00
      0.6401216923D+00  0.8137573261D+00
 S   1 1.00       0.000000000000
      0.1612777588D+00  0.1000000000D+01
 ****
     33 0
 S   3 1.00       0.000000000000
      0.1873113696D+02  0.3349460434D-01
      0.2825394365D+01  0.2347269535D+00
      0.6401216923D+00  0.8137573261D+00
 S   1 1.00       0.000000000000
      0.1612777588D+00  0.1000000000D+01
 ****
     34 0
 S   6 1.00       0.000000000000
      0.3047524880D+04  0.1834737132D-02
      0.4573695180D+03  0.1403732281D-01
      0.1039486850D+03  0.6884262226D-01
      0.2921015530D+02  0.2321844432D+00
      0.9286662960D+01  0.4679413484D+00
      0.3163926960D+01  0.3623119853D+00
 SP   3 1.00       0.000000000000
      0.7868272350D+01 -0.1193324198D+00  0.6899906659D-01
      0.1881288540D+01 -0.1608541517D+00  0.3164239610D+00
      0.5442492580D+00  0.1143456438D+01  0.7443082909D+00
 SP   1 1.00       0.000000000000
      0.1687144782D+00  0.1000000000D+01  0.1000000000D+01
 D   1 1.00       0.000000000000
      0.8000000000D+00  0.1000000000D+01
 ****
     35 0
 S   6 1.00       0.000000000000
      0.3047524880D+04  0.1834737132D-02
      0.4573695180D+03  0.1403732281D-01
      0.1039486850D+03  0.6884262226D-01
      0.2921015530D+02  0.2321844432D+00
      0.9286662960D+01  0.4679413484D+00
      0.3163926960D+01  0.3623119853D+00
 SP   3 1.00       0.000000000000
      0.7868272350D+01 -0.1193324198D+00  0.6899906659D-01
      0.1881288540D+01 -0.1608541517D+00  0.3164239610D+00
      0.5442492580D+00  0.1143456438D+01  0.7443082909D+00
 SP   1 1.00       0.000000000000
      0.1687144782D+00  0.1000000000D+01  0.1000000000D+01
 D   1 1.00       0.000000000000
      0.8000000000D+00  0.1000000000D+01
 ****
     36 0
 S   3 1.00       0.000000000000
      0.1873113696D+02  0.3349460434D-01
      0.2825394365D+01  0.2347269535D+00
      0.6401216923D+00  0.8137573261D+00
 S   1 1.00       0.000000000000
      0.1612777588D+00  0.1000000000D+01
 ****
     37 0
 S   3 1.00       0.000000000000
      0.1873113696D+02  0.3349460434D-01
      0.2825394365D+01  0.2347269535D+00
      0.6401216923D+00  0.8137573261D+00
 S   1 1.00       0.000000000000
      0.1612777588D+00  0.1000000000D+01
 ****
     38 0
 S   6 1.00       0.000000000000
      0.3047524880D+04  0.1834737132D-02
      0.4573695180D+03  0.1403732281D-01
      0.1039486850D+03  0.6884262226D-01
      0.2921015530D+02  0.2321844432D+00
      0.9286662960D+01  0.4679413484D+00
      0.3163926960D+01  0.3623119853D+00
 SP   3 1.00       0.000000000000
      0.7868272350D+01 -0.1193324198D+00  0.6899906659D-01
      0.1881288540D+01 -0.1608541517D+00  0.3164239610D+00
      0.5442492580D+00  0.1143456438D+01  0.7443082909D+00
 SP   1 1.00       0.000000000000
      0.1687144782D+00  0.1000000000D+01  0.1000000000D+01
 D   1 1.00       0.000000000000
      0.8000000000D+00  0.1000000000D+01
 ****
     39 0
 S   3 1.00       0.000000000000
      0.1873113696D+02  0.3349460434D-01
      0.2825394365D+01  0.2347269535D+00
      0.6401216923D+00  0.8137573261D+00
 S   1 1.00       0.000000000000
      0.1612777588D+00  0.1000000000D+01
 ****
     40 0
 S   6 1.00       0.000000000000
      0.3047524880D+04  0.1834737132D-02
      0.4573695180D+03  0.1403732281D-01
      0.1039486850D+03  0.6884262226D-01
      0.2921015530D+02  0.2321844432D+00
      0.9286662960D+01  0.4679413484D+00
      0.3163926960D+01  0.3623119853D+00
 SP   3 1.00       0.000000000000
      0.7868272350D+01 -0.1193324198D+00  0.6899906659D-01
      0.1881288540D+01 -0.1608541517D+00  0.3164239610D+00
      0.5442492580D+00  0.1143456438D+01  0.7443082909D+00
 SP   1 1.00       0.000000000000
      0.1687144782D+00  0.1000000000D+01  0.1000000000D+01
 D   1 1.00       0.000000000000
      0.8000000000D+00  0.1000000000D+01
 ****
     41 0
 S   3 1.00       0.000000000000
      0.1873113696D+02  0.3349460434D-01
      0.2825394365D+01  0.2347269535D+00
      0.6401216923D+00  0.8137573261D+00
 S   1 1.00       0.000000000000
      0.1612777588D+00  0.1000000000D+01
 ****
     42 0
 S   3 1.00       0.000000000000
      0.1873113696D+02  0.3349460434D-01
      0.2825394365D+01  0.2347269535D+00
      0.6401216923D+00  0.8137573261D+00
 S   1 1.00       0.000000000000
      0.1612777588D+00  0.1000000000D+01
 ****
     43 0
 S   3 1.00       0.000000000000
      0.1873113696D+02  0.3349460434D-01
      0.2825394365D+01  0.2347269535D+00
      0.6401216923D+00  0.8137573261D+00
 S   1 1.00       0.000000000000
      0.1612777588D+00  0.1000000000D+01
 ****
     44 0
 S   6 1.00       0.000000000000
      0.3047524880D+04  0.1834737132D-02
      0.4573695180D+03  0.1403732281D-01
      0.1039486850D+03  0.6884262226D-01
      0.2921015530D+02  0.2321844432D+00
      0.9286662960D+01  0.4679413484D+00
      0.3163926960D+01  0.3623119853D+00
 SP   3 1.00       0.000000000000
      0.7868272350D+01 -0.1193324198D+00  0.6899906659D-01
      0.1881288540D+01 -0.1608541517D+00  0.3164239610D+00
      0.5442492580D+00  0.1143456438D+01  0.7443082909D+00
 SP   1 1.00       0.000000000000
      0.1687144782D+00  0.1000000000D+01  0.1000000000D+01
 D   1 1.00       0.000000000000
      0.8000000000D+00  0.1000000000D+01
 ****
     45 0
 S   3 1.00       0.000000000000
      0.1873113696D+02  0.3349460434D-01
      0.2825394365D+01  0.2347269535D+00
      0.6401216923D+00  0.8137573261D+00
 S   1 1.00       0.000000000000
      0.1612777588D+00  0.1000000000D+01
 ****
     46 0
 S   3 1.00       0.000000000000
      0.1873113696D+02  0.3349460434D-01
      0.2825394365D+01  0.2347269535D+00
      0.6401216923D+00  0.8137573261D+00
 S   1 1.00       0.000000000000
      0.1612777588D+00  0.1000000000D+01
 ****
     47 0
 S   6 1.00       0.000000000000
      0.3047524880D+04  0.1834737132D-02
      0.4573695180D+03  0.1403732281D-01
      0.1039486850D+03  0.6884262226D-01
      0.2921015530D+02  0.2321844432D+00
      0.9286662960D+01  0.4679413484D+00
      0.3163926960D+01  0.3623119853D+00
 SP   3 1.00       0.000000000000
      0.7868272350D+01 -0.1193324198D+00  0.6899906659D-01
      0.1881288540D+01 -0.1608541517D+00  0.3164239610D+00
      0.5442492580D+00  0.1143456438D+01  0.7443082909D+00
 SP   1 1.00       0.000000000000
      0.1687144782D+00  0.1000000000D+01  0.1000000000D+01
 D   1 1.00       0.000000000000
      0.8000000000D+00  0.1000000000D+01
 ****
     48 0
 S   3 1.00       0.000000000000
      0.1873113696D+02  0.3349460434D-01
      0.2825394365D+01  0.2347269535D+00
      0.6401216923D+00  0.8137573261D+00
 S   1 1.00       0.000000000000
      0.1612777588D+00  0.1000000000D+01
 ****
     49 0
 S   3 1.00       0.000000000000
      0.1873113696D+02  0.3349460434D-01
      0.2825394365D+01  0.2347269535D+00
      0.6401216923D+00  0.8137573261D+00
 S   1 1.00       0.000000000000
      0.1612777588D+00  0.1000000000D+01
 ****
     50 0
 S   6 1.00       0.000000000000
      0.3047524880D+04  0.1834737132D-02
      0.4573695180D+03  0.1403732281D-01
      0.1039486850D+03  0.6884262226D-01
      0.2921015530D+02  0.2321844432D+00
      0.9286662960D+01  0.4679413484D+00
      0.3163926960D+01  0.3623119853D+00
 SP   3 1.00       0.000000000000
      0.7868272350D+01 -0.1193324198D+00  0.6899906659D-01
      0.1881288540D+01 -0.1608541517D+00  0.3164239610D+00
      0.5442492580D+00  0.1143456438D+01  0.7443082909D+00
 SP   1 1.00       0.000000000000
      0.1687144782D+00  0.1000000000D+01  0.1000000000D+01
 D   1 1.00       0.000000000000
      0.8000000000D+00  0.1000000000D+01
 ****
     51 0
 S   3 1.00       0.000000000000
      0.1873113696D+02  0.3349460434D-01
      0.2825394365D+01  0.2347269535D+00
      0.6401216923D+00  0.8137573261D+00
 S   1 1.00       0.000000000000
      0.1612777588D+00  0.1000000000D+01
 ****
     52 0
 S   3 1.00       0.000000000000
      0.1873113696D+02  0.3349460434D-01
      0.2825394365D+01  0.2347269535D+00
      0.6401216923D+00  0.8137573261D+00
 S   1 1.00       0.000000000000
      0.1612777588D+00  0.1000000000D+01
 ****
     53 0
 S   6 1.00       0.000000000000
      0.3047524880D+04  0.1834737132D-02
      0.4573695180D+03  0.1403732281D-01
      0.1039486850D+03  0.6884262226D-01
      0.2921015530D+02  0.2321844432D+00
      0.9286662960D+01  0.4679413484D+00
      0.3163926960D+01  0.3623119853D+00
 SP   3 1.00       0.000000000000
      0.7868272350D+01 -0.1193324198D+00  0.6899906659D-01
      0.1881288540D+01 -0.1608541517D+00  0.3164239610D+00
      0.5442492580D+00  0.1143456438D+01  0.7443082909D+00
 SP   1 1.00       0.000000000000
      0.1687144782D+00  0.1000000000D+01  0.1000000000D+01
 D   1 1.00       0.000000000000
      0.8000000000D+00  0.1000000000D+01
 ****
     54 0
 S   3 1.00       0.000000000000
      0.1873113696D+02  0.3349460434D-01
      0.2825394365D+01  0.2347269535D+00
      0.6401216923D+00  0.8137573261D+00
 S   1 1.00       0.000000000000
      0.1612777588D+00  0.1000000000D+01
 ****
     55 0
 S   6 1.00       0.000000000000
      0.3047524880D+04  0.1834737132D-02
      0.4573695180D+03  0.1403732281D-01
      0.1039486850D+03  0.6884262226D-01
      0.2921015530D+02  0.2321844432D+00
      0.9286662960D+01  0.4679413484D+00
      0.3163926960D+01  0.3623119853D+00
 SP   3 1.00       0.000000000000
      0.7868272350D+01 -0.1193324198D+00  0.6899906659D-01
      0.1881288540D+01 -0.1608541517D+00  0.3164239610D+00
      0.5442492580D+00  0.1143456438D+01  0.7443082909D+00
 SP   1 1.00       0.000000000000
      0.1687144782D+00  0.1000000000D+01  0.1000000000D+01
 D   1 1.00       0.000000000000
      0.8000000000D+00  0.1000000000D+01
 ****
     56 0
 S   3 1.00       0.000000000000
      0.1873113696D+02  0.3349460434D-01
      0.2825394365D+01  0.2347269535D+00
      0.6401216923D+00  0.8137573261D+00
 S   1 1.00       0.000000000000
      0.1612777588D+00  0.1000000000D+01
 ****
     57 0
 S   3 1.00       0.000000000000
      0.1873113696D+02  0.3349460434D-01
      0.2825394365D+01  0.2347269535D+00
      0.6401216923D+00  0.8137573261D+00
 S   1 1.00       0.000000000000
      0.1612777588D+00  0.1000000000D+01
 ****
     58 0
 S   3 1.00       0.000000000000
      0.1873113696D+02  0.3349460434D-01
      0.2825394365D+01  0.2347269535D+00
      0.6401216923D+00  0.8137573261D+00
 S   1 1.00       0.000000000000
      0.1612777588D+00  0.1000000000D+01
 ****
     59 0
 S   6 1.00       0.000000000000
      0.3047524880D+04  0.1834737132D-02
      0.4573695180D+03  0.1403732281D-01
      0.1039486850D+03  0.6884262226D-01
      0.2921015530D+02  0.2321844432D+00
      0.9286662960D+01  0.4679413484D+00
      0.3163926960D+01  0.3623119853D+00
 SP   3 1.00       0.000000000000
      0.7868272350D+01 -0.1193324198D+00  0.6899906659D-01
      0.1881288540D+01 -0.1608541517D+00  0.3164239610D+00
      0.5442492580D+00  0.1143456438D+01  0.7443082909D+00
 SP   1 1.00       0.000000000000
      0.1687144782D+00  0.1000000000D+01  0.1000000000D+01
 D   1 1.00       0.000000000000
      0.8000000000D+00  0.1000000000D+01
 ****
     60 0
 S   3 1.00       0.000000000000
      0.1873113696D+02  0.3349460434D-01
      0.2825394365D+01  0.2347269535D+00
      0.6401216923D+00  0.8137573261D+00
 S   1 1.00       0.000000000000
      0.1612777588D+00  0.1000000000D+01
 ****
     61 0
 S   3 1.00       0.000000000000
      0.1873113696D+02  0.3349460434D-01
      0.2825394365D+01  0.2347269535D+00
      0.6401216923D+00  0.8137573261D+00
 S   1 1.00       0.000000000000
      0.1612777588D+00  0.1000000000D+01
 ****
     62 0
 S   6 1.00       0.000000000000
      0.3047524880D+04  0.1834737132D-02
      0.4573695180D+03  0.1403732281D-01
      0.1039486850D+03  0.6884262226D-01
      0.2921015530D+02  0.2321844432D+00
      0.9286662960D+01  0.4679413484D+00
      0.3163926960D+01  0.3623119853D+00
 SP   3 1.00       0.000000000000
      0.7868272350D+01 -0.1193324198D+00  0.6899906659D-01
      0.1881288540D+01 -0.1608541517D+00  0.3164239610D+00
      0.5442492580D+00  0.1143456438D+01  0.7443082909D+00
 SP   1 1.00       0.000000000000
      0.1687144782D+00  0.1000000000D+01  0.1000000000D+01
 D   1 1.00       0.000000000000
      0.8000000000D+00  0.1000000000D+01
 ****
     63 0
 S   3 1.00       0.000000000000
      0.1873113696D+02  0.3349460434D-01
      0.2825394365D+01  0.2347269535D+00
      0.6401216923D+00  0.8137573261D+00
 S   1 1.00       0.000000000000
      0.1612777588D+00  0.1000000000D+01
 ****
     64 0
 S   3 1.00       0.000000000000
      0.1873113696D+02  0.3349460434D-01
      0.2825394365D+01  0.2347269535D+00
      0.6401216923D+00  0.8137573261D+00
 S   1 1.00       0.000000000000
      0.1612777588D+00  0.1000000000D+01
 ****
     65 0
 S   6 1.00       0.000000000000
      0.3047524880D+04  0.1834737132D-02
      0.4573695180D+03  0.1403732281D-01
      0.1039486850D+03  0.6884262226D-01
      0.2921015530D+02  0.2321844432D+00
      0.9286662960D+01  0.4679413484D+00
      0.3163926960D+01  0.3623119853D+00
 SP   3 1.00       0.000000000000
      0.7868272350D+01 -0.1193324198D+00  0.6899906659D-01
      0.1881288540D+01 -0.1608541517D+00  0.3164239610D+00
      0.5442492580D+00  0.1143456438D+01  0.7443082909D+00
 SP   1 1.00       0.000000000000
      0.1687144782D+00  0.1000000000D+01  0.1000000000D+01
 D   1 1.00       0.000000000000
      0.8000000000D+00  0.1000000000D+01
 ****
     66 0
 S   3 1.00       0.000000000000
      0.1873113696D+02  0.3349460434D-01
      0.2825394365D+01  0.2347269535D+00
      0.6401216923D+00  0.8137573261D+00
 S   1 1.00       0.000000000000
      0.1612777588D+00  0.1000000000D+01
 ****
     67 0
 S   6 1.00       0.000000000000
      0.3047524880D+04  0.1834737132D-02
      0.4573695180D+03  0.1403732281D-01
      0.1039486850D+03  0.6884262226D-01
      0.2921015530D+02  0.2321844432D+00
      0.9286662960D+01  0.4679413484D+00
      0.3163926960D+01  0.3623119853D+00
 SP   3 1.00       0.000000000000
      0.7868272350D+01 -0.1193324198D+00  0.6899906659D-01
      0.1881288540D+01 -0.1608541517D+00  0.3164239610D+00
      0.5442492580D+00  0.1143456438D+01  0.7443082909D+00
 SP   1 1.00       0.000000000000
      0.1687144782D+00  0.1000000000D+01  0.1000000000D+01
 D   1 1.00       0.000000000000
      0.8000000000D+00  0.1000000000D+01
 ****
     68 0
 S   3 1.00       0.000000000000
      0.1873113696D+02  0.3349460434D-01
      0.2825394365D+01  0.2347269535D+00
      0.6401216923D+00  0.8137573261D+00
 S   1 1.00       0.000000000000
      0.1612777588D+00  0.1000000000D+01
 ****
     69 0
 S   3 1.00       0.000000000000
      0.1873113696D+02  0.3349460434D-01
      0.2825394365D+01  0.2347269535D+00
      0.6401216923D+00  0.8137573261D+00
 S   1 1.00       0.000000000000
      0.1612777588D+00  0.1000000000D+01
 ****
     70 0
 S   3 1.00       0.000000000000
      0.1873113696D+02  0.3349460434D-01
      0.2825394365D+01  0.2347269535D+00
      0.6401216923D+00  0.8137573261D+00
 S   1 1.00       0.000000000000
      0.1612777588D+00  0.1000000000D+01
 ****
     71 0
 S   6 1.00       0.000000000000
      0.3047524880D+04  0.1834737132D-02
      0.4573695180D+03  0.1403732281D-01
      0.1039486850D+03  0.6884262226D-01
      0.2921015530D+02  0.2321844432D+00
      0.9286662960D+01  0.4679413484D+00
      0.3163926960D+01  0.3623119853D+00
 SP   3 1.00       0.000000000000
      0.7868272350D+01 -0.1193324198D+00  0.6899906659D-01
      0.1881288540D+01 -0.1608541517D+00  0.3164239610D+00
      0.5442492580D+00  0.1143456438D+01  0.7443082909D+00
 SP   1 1.00       0.000000000000
      0.1687144782D+00  0.1000000000D+01  0.1000000000D+01
 D   1 1.00       0.000000000000
      0.8000000000D+00  0.1000000000D+01
 ****
     72 0
 S   3 1.00       0.000000000000
      0.1873113696D+02  0.3349460434D-01
      0.2825394365D+01  0.2347269535D+00
      0.6401216923D+00  0.8137573261D+00
 S   1 1.00       0.000000000000
      0.1612777588D+00  0.1000000000D+01
 ****
     73 0
 S   3 1.00       0.000000000000
      0.1873113696D+02  0.3349460434D-01
      0.2825394365D+01  0.2347269535D+00
      0.6401216923D+00  0.8137573261D+00
 S   1 1.00       0.000000000000
      0.1612777588D+00  0.1000000000D+01
 ****
     74 0
 S   3 1.00       0.000000000000
      0.1873113696D+02  0.3349460434D-01
      0.2825394365D+01  0.2347269535D+00
      0.6401216923D+00  0.8137573261D+00
 S   1 1.00       0.000000000000
      0.1612777588D+00  0.1000000000D+01
 ****

 AO basis set (Overlap normalization):
 Atom O1       Shell     1 S   6     bf    1 -     1          7.958085763408         12.390479509635          7.782741930579
      0.5484671660D+04  0.1831074430D-02
      0.8252349460D+03  0.1395017220D-01
      0.1880469580D+03  0.6844507810D-01
      0.5296450000D+02  0.2327143360D+00
      0.1689757040D+02  0.4701928980D+00
      0.5799635340D+01  0.3585208530D+00
 Atom O1       Shell     2 SP   3    bf    2 -     5          7.958085763408         12.390479509635          7.782741930579
      0.1553961625D+02 -0.1107775495D+00  0.7087426823D-01
      0.3599933586D+01 -0.1480262627D+00  0.3397528391D+00
      0.1013761750D+01  0.1130767015D+01  0.7271585773D+00
 Atom O1       Shell     3 SP   1    bf    6 -     9          7.958085763408         12.390479509635          7.782741930579
      0.2700058226D+00  0.1000000000D+01  0.1000000000D+01
 Atom O1       Shell     4 D   1     bf   10 -    15          7.958085763408         12.390479509635          7.782741930579
      0.8000000000D+00  0.1000000000D+01
 Atom H2       Shell     5 S   3     bf   16 -    16          9.429425774582         13.053089830541          6.927583521157
      0.1873113696D+02  0.3349460434D-01
      0.2825394365D+01  0.2347269535D+00
      0.6401216923D+00  0.8137573261D+00
 Atom H2       Shell     6 S   1     bf   17 -    17          9.429425774582         13.053089830541          6.927583521157
      0.1612777588D+00  0.1000000000D+01
 Atom C3       Shell     7 S   6     bf   18 -    18          0.000000000000          0.000000000000          0.000000000000
      0.3047524880D+04  0.1834737132D-02
      0.4573695180D+03  0.1403732281D-01
      0.1039486850D+03  0.6884262226D-01
      0.2921015530D+02  0.2321844432D+00
      0.9286662960D+01  0.4679413484D+00
      0.3163926960D+01  0.3623119853D+00
 Atom C3       Shell     8 SP   3    bf   19 -    22          0.000000000000          0.000000000000          0.000000000000
      0.7868272350D+01 -0.1193324198D+00  0.6899906659D-01
      0.1881288540D+01 -0.1608541517D+00  0.3164239610D+00
      0.5442492580D+00  0.1143456438D+01  0.7443082909D+00
 Atom C3       Shell     9 SP   1    bf   23 -    26          0.000000000000          0.000000000000          0.000000000000
      0.1687144782D+00  0.1000000000D+01  0.1000000000D+01
 Atom C3       Shell    10 D   1     bf   27 -    32          0.000000000000          0.000000000000          0.000000000000
      0.8000000000D+00  0.1000000000D+01
 Atom C4       Shell    11 S   6     bf   33 -    33          2.542893756867          1.170588944393         -0.892541387522
      0.3047524880D+04  0.1834737132D-02
      0.4573695180D+03  0.1403732281D-01
      0.1039486850D+03  0.6884262226D-01
      0.2921015530D+02  0.2321844432D+00
      0.9286662960D+01  0.4679413484D+00
      0.3163926960D+01  0.3623119853D+00
 Atom C4       Shell    12 SP   3    bf   34 -    37          2.542893756867          1.170588944393         -0.892541387522
      0.7868272350D+01 -0.1193324198D+00  0.6899906659D-01
      0.1881288540D+01 -0.1608541517D+00  0.3164239610D+00
      0.5442492580D+00  0.1143456438D+01  0.7443082909D+00
 Atom C4       Shell    13 SP   1    bf   38 -    41          2.542893756867          1.170588944393         -0.892541387522
      0.1687144782D+00  0.1000000000D+01  0.1000000000D+01
 Atom C4       Shell    14 D   1     bf   42 -    47          2.542893756867          1.170588944393         -0.892541387522
      0.8000000000D+00  0.1000000000D+01
 Atom H5       Shell    15 S   3     bf   48 -    48          4.020932072395          0.000000000000          0.000000000000
      0.1873113696D+02  0.3349460434D-01
      0.2825394365D+01  0.2347269535D+00
      0.6401216923D+00  0.8137573261D+00
 Atom H5       Shell    16 S   1     bf   49 -    49          4.020932072395          0.000000000000          0.000000000000
      0.1612777588D+00  0.1000000000D+01
 Atom C6       Shell    17 S   6     bf   50 -    50          3.047950070067          3.882611905139          0.000000000000
      0.3047524880D+04  0.1834737132D-02
      0.4573695180D+03  0.1403732281D-01
      0.1039486850D+03  0.6884262226D-01
      0.2921015530D+02  0.2321844432D+00
      0.9286662960D+01  0.4679413484D+00
      0.3163926960D+01  0.3623119853D+00
 Atom C6       Shell    18 SP   3    bf   51 -    54          3.047950070067          3.882611905139          0.000000000000
      0.7868272350D+01 -0.1193324198D+00  0.6899906659D-01
      0.1881288540D+01 -0.1608541517D+00  0.3164239610D+00
      0.5442492580D+00  0.1143456438D+01  0.7443082909D+00
 Atom C6       Shell    19 SP   1    bf   55 -    58          3.047950070067          3.882611905139          0.000000000000
      0.1687144782D+00  0.1000000000D+01  0.1000000000D+01
 Atom C6       Shell    20 D   1     bf   59 -    64          3.047950070067          3.882611905139          0.000000000000
      0.8000000000D+00  0.1000000000D+01
 Atom H7       Shell    21 S   3     bf   65 -    65          1.602941918569          5.143836215571         -0.797772226670
      0.1873113696D+02  0.3349460434D-01
      0.2825394365D+01  0.2347269535D+00
      0.6401216923D+00  0.8137573261D+00
 Atom H7       Shell    22 S   1     bf   66 -    66          1.602941918569          5.143836215571         -0.797772226670
      0.1612777588D+00  0.1000000000D+01
 Atom C8       Shell    23 S   6     bf   67 -    67          2.923941120070          4.007407321359          2.925641627925
      0.3047524880D+04  0.1834737132D-02
      0.4573695180D+03  0.1403732281D-01
      0.1039486850D+03  0.6884262226D-01
      0.2921015530D+02  0.2321844432D+00
      0.9286662960D+01  0.4679413484D+00
      0.3163926960D+01  0.3623119853D+00
 Atom C8       Shell    24 SP   3    bf   68 -    71          2.923941120070          4.007407321359          2.925641627925
      0.7868272350D+01 -0.1193324198D+00  0.6899906659D-01
      0.1881288540D+01 -0.1608541517D+00  0.3164239610D+00
      0.5442492580D+00  0.1143456438D+01  0.7443082909D+00
 Atom C8       Shell    25 SP   1    bf   72 -    75          2.923941120070          4.007407321359          2.925641627925
      0.1687144782D+00  0.1000000000D+01  0.1000000000D+01
 Atom C8       Shell    26 D   1     bf   76 -    81          2.923941120070          4.007407321359          2.925641627925
      0.8000000000D+00  0.1000000000D+01
 Atom H9       Shell    27 S   3     bf   82 -    82          4.555845699447          2.900243803185          3.598863101218
      0.1873113696D+02  0.3349460434D-01
      0.2825394365D+01  0.2347269535D+00
      0.6401216923D+00  0.8137573261D+00
 Atom H9       Shell    28 S   1     bf   83 -    83          4.555845699447          2.900243803185          3.598863101218
      0.1612777588D+00  0.1000000000D+01
 Atom C10      Shell    29 S   6     bf   84 -    84          0.167226211869         -2.655508168510         -1.308883638140
      0.3047524880D+04  0.1834737132D-02
      0.4573695180D+03  0.1403732281D-01
      0.1039486850D+03  0.6884262226D-01
      0.2921015530D+02  0.2321844432D+00
      0.9286662960D+01  0.4679413484D+00
      0.3163926960D+01  0.3623119853D+00
 Atom C10      Shell    30 SP   3    bf   85 -    88          0.167226211869         -2.655508168510         -1.308883638140
      0.7868272350D+01 -0.1193324198D+00  0.6899906659D-01
      0.1881288540D+01 -0.1608541517D+00  0.3164239610D+00
      0.5442492580D+00  0.1143456438D+01  0.7443082909D+00
 Atom C10      Shell    31 SP   1    bf   89 -    92          0.167226211869         -2.655508168510         -1.308883638140
      0.1687144782D+00  0.1000000000D+01  0.1000000000D+01
 Atom C10      Shell    32 D   1     bf   93 -    98          0.167226211869         -2.655508168510         -1.308883638140
      0.8000000000D+00  0.1000000000D+01
 Atom H11      Shell    33 S   3     bf   99 -    99          1.561237287980         -3.747985963501         -0.214212551410
      0.1873113696D+02  0.3349460434D-01
      0.2825394365D+01  0.2347269535D+00
      0.6401216923D+00  0.8137573261D+00
 Atom H11      Shell    34 S   1     bf  100 -   100          1.561237287980         -3.747985963501         -0.214212551410
      0.1612777588D+00  0.1000000000D+01
 Atom C12      Shell    35 S   6     bf  101 -   101          0.067610716069          0.023409587183          2.915133219948
      0.3047524880D+04  0.1834737132D-02
      0.4573695180D+03  0.1403732281D-01
      0.1039486850D+03  0.6884262226D-01
      0.2921015530D+02  0.2321844432D+00
      0.9286662960D+01  0.4679413484D+00
      0.3163926960D+01  0.3623119853D+00
 Atom C12      Shell    36 SP   3    bf  102 -   105          0.067610716069          0.023409587183          2.915133219948
      0.7868272350D+01 -0.1193324198D+00  0.6899906659D-01
      0.1881288540D+01 -0.1608541517D+00  0.3164239610D+00
      0.5442492580D+00  0.1143456438D+01  0.7443082909D+00
 Atom C12      Shell    37 SP   1    bf  106 -   109          0.067610716069          0.023409587183          2.915133219948
      0.1687144782D+00  0.1000000000D+01  0.1000000000D+01
 Atom C12      Shell    38 D   1     bf  110 -   115          0.067610716069          0.023409587183          2.915133219948
      0.8000000000D+00  0.1000000000D+01
 Atom H13      Shell    39 S   3     bf  116 -   116          1.585944058770         -1.244163163705          3.552814897319
      0.1873113696D+02  0.3349460434D-01
      0.2825394365D+01  0.2347269535D+00
      0.6401216923D+00  0.8137573261D+00
 Atom H13      Shell    40 S   1     bf  117 -   117          1.585944058770         -1.244163163705          3.552814897319
      0.1612777588D+00  0.1000000000D+01
 Atom H14      Shell    41 S   3     bf  118 -   118         -1.686820266463         -0.707013593796          3.731574334544
      0.1873113696D+02  0.3349460434D-01
      0.2825394365D+01  0.2347269535D+00
      0.6401216923D+00  0.8137573261D+00
 Atom H14      Shell    42 S   1     bf  119 -   119         -1.686820266463         -0.707013593796          3.731574334544
      0.1612777588D+00  0.1000000000D+01
 Atom C15      Shell    43 S   6     bf  120 -   120          3.329746068798          6.751741707697          3.973452741101
      0.3047524880D+04  0.1834737132D-02
      0.4573695180D+03  0.1403732281D-01
      0.1039486850D+03  0.6884262226D-01
      0.2921015530D+02  0.2321844432D+00
      0.9286662960D+01  0.4679413484D+00
      0.3163926960D+01  0.3623119853D+00
 Atom C15      Shell    44 SP   3    bf  121 -   124          3.329746068798          6.751741707697          3.973452741101
      0.7868272350D+01 -0.1193324198D+00  0.6899906659D-01
      0.1881288540D+01 -0.1608541517D+00  0.3164239610D+00
      0.5442492580D+00  0.1143456438D+01  0.7443082909D+00
 Atom C15      Shell    45 SP   1    bf  125 -   128          3.329746068798          6.751741707697          3.973452741101
      0.1687144782D+00  0.1000000000D+01  0.1000000000D+01
 Atom C15      Shell    46 D   1     bf  129 -   134          3.329746068798          6.751741707697          3.973452741101
      0.8000000000D+00  0.1000000000D+01
 Atom C16      Shell    47 S   6     bf  135 -   135          2.645799454838          0.588712089151         -3.733539328469
      0.3047524880D+04  0.1834737132D-02
      0.4573695180D+03  0.1403732281D-01
      0.1039486850D+03  0.6884262226D-01
      0.2921015530D+02  0.2321844432D+00
      0.9286662960D+01  0.4679413484D+00
      0.3163926960D+01  0.3623119853D+00
 Atom C16      Shell    48 SP   3    bf  136 -   139          2.645799454838          0.588712089151         -3.733539328469
      0.7868272350D+01 -0.1193324198D+00  0.6899906659D-01
      0.1881288540D+01 -0.1608541517D+00  0.3164239610D+00
      0.5442492580D+00  0.1143456438D+01  0.7443082909D+00
 Atom C16      Shell    49 SP   1    bf  140 -   143          2.645799454838          0.588712089151         -3.733539328469
      0.1687144782D+00  0.1000000000D+01  0.1000000000D+01
 Atom C16      Shell    50 D   1     bf  144 -   149          2.645799454838          0.588712089151         -3.733539328469
      0.8000000000D+00  0.1000000000D+01
 Atom H17      Shell    51 S   3     bf  150 -   150          4.578690088441          0.578055299878         -4.469972821208
      0.1873113696D+02  0.3349460434D-01
      0.2825394365D+01  0.2347269535D+00
      0.6401216923D+00  0.8137573261D+00
 Atom H17      Shell    52 S   1     bf  151 -   151          4.578690088441          0.578055299878         -4.469972821208
      0.1612777588D+00  0.1000000000D+01
 Atom H18      Shell    53 S   3     bf  152 -   152          1.604439507632          2.020431516408         -4.812430105948
      0.1873113696D+02  0.3349460434D-01
      0.2825394365D+01  0.2347269535D+00
      0.6401216923D+00  0.8137573261D+00
 Atom H18      Shell    54 S   1     bf  153 -   153          1.604439507632          2.020431516408         -4.812430105948
      0.1612777588D+00  0.1000000000D+01
 Atom C19      Shell    55 S   6     bf  154 -   154          0.529051564307          2.701329321814          3.972222378210
      0.3047524880D+04  0.1834737132D-02
      0.4573695180D+03  0.1403732281D-01
      0.1039486850D+03  0.6884262226D-01
      0.2921015530D+02  0.2321844432D+00
      0.9286662960D+01  0.4679413484D+00
      0.3163926960D+01  0.3623119853D+00
 Atom C19      Shell    56 SP   3    bf  155 -   158          0.529051564307          2.701329321814          3.972222378210
      0.7868272350D+01 -0.1193324198D+00  0.6899906659D-01
      0.1881288540D+01 -0.1608541517D+00  0.3164239610D+00
      0.5442492580D+00  0.1143456438D+01  0.7443082909D+00
 Atom C19      Shell    57 SP   1    bf  159 -   162          0.529051564307          2.701329321814          3.972222378210
      0.1687144782D+00  0.1000000000D+01  0.1000000000D+01
 Atom C19      Shell    58 D   1     bf  163 -   168          0.529051564307          2.701329321814          3.972222378210
      0.8000000000D+00  0.1000000000D+01
 Atom H20      Shell    59 S   3     bf  169 -   169         -1.136435073616          3.862455462596          3.570472800660
      0.1873113696D+02  0.3349460434D-01
      0.2825394365D+01  0.2347269535D+00
      0.6401216923D+00  0.8137573261D+00
 Atom H20      Shell    60 S   1     bf  170 -   170         -1.136435073616          3.862455462596          3.570472800660
      0.1612777588D+00  0.1000000000D+01
 Atom H21      Shell    61 S   3     bf  171 -   171          0.648479440213          2.576507487223          6.035965056981
      0.1873113696D+02  0.3349460434D-01
      0.2825394365D+01  0.2347269535D+00
      0.6401216923D+00  0.8137573261D+00
 Atom H21      Shell    62 S   1     bf  172 -   172          0.648479440213          2.576507487223          6.035965056981
      0.1612777588D+00  0.1000000000D+01
 Atom C22      Shell    63 S   6     bf  173 -   173          1.361006876919         -2.041367074138         -3.949677907650
      0.3047524880D+04  0.1834737132D-02
      0.4573695180D+03  0.1403732281D-01
      0.1039486850D+03  0.6884262226D-01
      0.2921015530D+02  0.2321844432D+00
      0.9286662960D+01  0.4679413484D+00
      0.3163926960D+01  0.3623119853D+00
 Atom C22      Shell    64 SP   3    bf  174 -   177          1.361006876919         -2.041367074138         -3.949677907650
      0.7868272350D+01 -0.1193324198D+00  0.6899906659D-01
      0.1881288540D+01 -0.1608541517D+00  0.3164239610D+00
      0.5442492580D+00  0.1143456438D+01  0.7443082909D+00
 Atom C22      Shell    65 SP   1    bf  178 -   181          1.361006876919         -2.041367074138         -3.949677907650
      0.1687144782D+00  0.1000000000D+01  0.1000000000D+01
 Atom C22      Shell    66 D   1     bf  182 -   187          1.361006876919         -2.041367074138         -3.949677907650
      0.8000000000D+00  0.1000000000D+01
 Atom H23      Shell    67 S   3     bf  188 -   188         -0.102583159514         -2.029194270972         -5.416771912074
      0.1873113696D+02  0.3349460434D-01
      0.2825394365D+01  0.2347269535D+00
      0.6401216923D+00  0.8137573261D+00
 Atom H23      Shell    68 S   1     bf  189 -   189         -0.102583159514         -2.029194270972         -5.416771912074
      0.1612777588D+00  0.1000000000D+01
 Atom H24      Shell    69 S   3     bf  190 -   190          2.724188847515         -3.494893638613         -4.500691169875
      0.1873113696D+02  0.3349460434D-01
      0.2825394365D+01  0.2347269535D+00
      0.6401216923D+00  0.8137573261D+00
 Atom H24      Shell    70 S   1     bf  191 -   191          2.724188847515         -3.494893638613         -4.500691169875
      0.1612777588D+00  0.1000000000D+01
 Atom C25      Shell    71 S   6     bf  192 -   192          5.642773066430          4.812172366201         -0.917695229721
      0.3047524880D+04  0.1834737132D-02
      0.4573695180D+03  0.1403732281D-01
      0.1039486850D+03  0.6884262226D-01
      0.2921015530D+02  0.2321844432D+00
      0.9286662960D+01  0.4679413484D+00
      0.3163926960D+01  0.3623119853D+00
 Atom C25      Shell    72 SP   3    bf  193 -   196          5.642773066430          4.812172366201         -0.917695229721
      0.7868272350D+01 -0.1193324198D+00  0.6899906659D-01
      0.1881288540D+01 -0.1608541517D+00  0.3164239610D+00
      0.5442492580D+00  0.1143456438D+01  0.7443082909D+00
 Atom C25      Shell    73 SP   1    bf  197 -   200          5.642773066430          4.812172366201         -0.917695229721
      0.1687144782D+00  0.1000000000D+01  0.1000000000D+01
 Atom C25      Shell    74 D   1     bf  201 -   206          5.642773066430          4.812172366201         -0.917695229721
      0.8000000000D+00  0.1000000000D+01
 Atom H26      Shell    75 S   3     bf  207 -   207          5.577687742570          5.213596476219         -2.952646513563
      0.1873113696D+02  0.3349460434D-01
      0.2825394365D+01  0.2347269535D+00
      0.6401216923D+00  0.8137573261D+00
 Atom H26      Shell    76 S   1     bf  208 -   208          5.577687742570          5.213596476219         -2.952646513563
      0.1612777588D+00  0.1000000000D+01
 Atom H27      Shell    77 S   3     bf  209 -   209          7.043061718268          3.283615926374         -0.703621403106
      0.1873113696D+02  0.3349460434D-01
      0.2825394365D+01  0.2347269535D+00
      0.6401216923D+00  0.8137573261D+00
 Atom H27      Shell    78 S   1     bf  210 -   210          7.043061718268          3.283615926374         -0.703621403106
      0.1612777588D+00  0.1000000000D+01
 Atom C28      Shell    79 S   6     bf  211 -   211         -2.230865295853         -4.327000261597         -1.523328417994
      0.3047524880D+04  0.1834737132D-02
      0.4573695180D+03  0.1403732281D-01
      0.1039486850D+03  0.6884262226D-01
      0.2921015530D+02  0.2321844432D+00
      0.9286662960D+01  0.4679413484D+00
      0.3163926960D+01  0.3623119853D+00
 Atom C28      Shell    80 SP   3    bf  212 -   215         -2.230865295853         -4.327000261597         -1.523328417994
      0.7868272350D+01 -0.1193324198D+00  0.6899906659D-01
      0.1881288540D+01 -0.1608541517D+00  0.3164239610D+00
      0.5442492580D+00  0.1143456438D+01  0.7443082909D+00
 Atom C28      Shell    81 SP   1    bf  216 -   219         -2.230865295853         -4.327000261597         -1.523328417994
      0.1687144782D+00  0.1000000000D+01  0.1000000000D+01
 Atom C28      Shell    82 D   1     bf  220 -   225         -2.230865295853         -4.327000261597         -1.523328417994
      0.8000000000D+00  0.1000000000D+01
 Atom H29      Shell    83 S   3     bf  226 -   226         -3.603376825470         -3.317761368971         -2.717391937252
      0.1873113696D+02  0.3349460434D-01
      0.2825394365D+01  0.2347269535D+00
      0.6401216923D+00  0.8137573261D+00
 Atom H29      Shell    84 S   1     bf  227 -   227         -3.603376825470         -3.317761368971         -2.717391937252
      0.1612777588D+00  0.1000000000D+01
 Atom C30      Shell    85 S   6     bf  228 -   228         -2.318565501468          1.473796730736         -0.994325608622
      0.3047524880D+04  0.1834737132D-02
      0.4573695180D+03  0.1403732281D-01
      0.1039486850D+03  0.6884262226D-01
      0.2921015530D+02  0.2321844432D+00
      0.9286662960D+01  0.4679413484D+00
      0.3163926960D+01  0.3623119853D+00
 Atom C30      Shell    86 SP   3    bf  229 -   232         -2.318565501468          1.473796730736         -0.994325608622
      0.7868272350D+01 -0.1193324198D+00  0.6899906659D-01
      0.1881288540D+01 -0.1608541517D+00  0.3164239610D+00
      0.5442492580D+00  0.1143456438D+01  0.7443082909D+00
 Atom C30      Shell    87 SP   1    bf  233 -   236         -2.318565501468          1.473796730736         -0.994325608622
      0.1687144782D+00  0.1000000000D+01  0.1000000000D+01
 Atom C30      Shell    88 D   1     bf  237 -   242         -2.318565501468          1.473796730736         -0.994325608622
      0.8000000000D+00  0.1000000000D+01
 Atom H31      Shell    89 S   3     bf  243 -   243         -4.072500109637          0.662319907794         -0.254791774497
      0.1873113696D+02  0.3349460434D-01
      0.2825394365D+01  0.2347269535D+00
      0.6401216923D+00  0.8137573261D+00
 Atom H31      Shell    90 S   1     bf  244 -   244         -4.072500109637          0.662319907794         -0.254791774497
      0.1612777588D+00  0.1000000000D+01
 Atom H32      Shell    91 S   3     bf  245 -   245         -2.284787119274          3.461543562847         -0.435654325730
      0.1873113696D+02  0.3349460434D-01
      0.2825394365D+01  0.2347269535D+00
      0.6401216923D+00  0.8137573261D+00
 Atom H32      Shell    92 S   1     bf  246 -   246         -2.284787119274          3.461543562847         -0.435654325730
      0.1612777588D+00  0.1000000000D+01
 Atom H33      Shell    93 S   3     bf  247 -   247         -2.441863555392          1.422614424393         -3.057892202712
      0.1873113696D+02  0.3349460434D-01
      0.2825394365D+01  0.2347269535D+00
      0.6401216923D+00  0.8137573261D+00
 Atom H33      Shell    94 S   1     bf  248 -   248         -2.441863555392          1.422614424393         -3.057892202712
      0.1612777588D+00  0.1000000000D+01
 Atom C34      Shell    95 S   6     bf  249 -   249          5.549781570951          8.026012744042          2.608183908142
      0.3047524880D+04  0.1834737132D-02
      0.4573695180D+03  0.1403732281D-01
      0.1039486850D+03  0.6884262226D-01
      0.2921015530D+02  0.2321844432D+00
      0.9286662960D+01  0.4679413484D+00
      0.3163926960D+01  0.3623119853D+00
 Atom C34      Shell    96 SP   3    bf  250 -   253          5.549781570951          8.026012744042          2.608183908142
      0.7868272350D+01 -0.1193324198D+00  0.6899906659D-01
      0.1881288540D+01 -0.1608541517D+00  0.3164239610D+00
      0.5442492580D+00  0.1143456438D+01  0.7443082909D+00
 Atom C34      Shell    97 SP   1    bf  254 -   257          5.549781570951          8.026012744042          2.608183908142
      0.1687144782D+00  0.1000000000D+01  0.1000000000D+01
 Atom C34      Shell    98 D   1     bf  258 -   263          5.549781570951          8.026012744042          2.608183908142
      0.8000000000D+00  0.1000000000D+01
 Atom C35      Shell    99 S   6     bf  264 -   264          3.996820300775          6.574092371192          6.840711771479
      0.3047524880D+04  0.1834737132D-02
      0.4573695180D+03  0.1403732281D-01
      0.1039486850D+03  0.6884262226D-01
      0.2921015530D+02  0.2321844432D+00
      0.9286662960D+01  0.4679413484D+00
      0.3163926960D+01  0.3623119853D+00
 Atom C35      Shell   100 SP   3    bf  265 -   268          3.996820300775          6.574092371192          6.840711771479
      0.7868272350D+01 -0.1193324198D+00  0.6899906659D-01
      0.1881288540D+01 -0.1608541517D+00  0.3164239610D+00
      0.5442492580D+00  0.1143456438D+01  0.7443082909D+00
 Atom C35      Shell   101 SP   1    bf  269 -   272          3.996820300775          6.574092371192          6.840711771479
      0.1687144782D+00  0.1000000000D+01  0.1000000000D+01
 Atom C35      Shell   102 D   1     bf  273 -   278          3.996820300775          6.574092371192          6.840711771479
      0.8000000000D+00  0.1000000000D+01
 Atom H36      Shell   103 S   3     bf  279 -   279          5.461280745065          5.120457147465          7.075473431625
      0.1873113696D+02  0.3349460434D-01
      0.2825394365D+01  0.2347269535D+00
      0.6401216923D+00  0.8137573261D+00
 Atom H36      Shell   104 S   1     bf  280 -   280          5.461280745065          5.120457147465          7.075473431625
      0.1612777588D+00  0.1000000000D+01
 Atom H37      Shell   105 S   3     bf  281 -   281          2.341081040321          5.914521164544          7.893643437763
      0.1873113696D+02  0.3349460434D-01
      0.2825394365D+01  0.2347269535D+00
      0.6401216923D+00  0.8137573261D+00
 Atom H37      Shell   106 S   1     bf  282 -   282          2.341081040321          5.914521164544          7.893643437763
      0.1612777588D+00  0.1000000000D+01
 Atom C38      Shell   107 S   6     bf  283 -   283          6.557953524202          7.114465776089          0.468972654097
      0.3047524880D+04  0.1834737132D-02
      0.4573695180D+03  0.1403732281D-01
      0.1039486850D+03  0.6884262226D-01
      0.2921015530D+02  0.2321844432D+00
      0.9286662960D+01  0.4679413484D+00
      0.3163926960D+01  0.3623119853D+00
 Atom C38      Shell   108 SP   3    bf  284 -   287          6.557953524202          7.114465776089          0.468972654097
      0.7868272350D+01 -0.1193324198D+00  0.6899906659D-01
      0.1881288540D+01 -0.1608541517D+00  0.3164239610D+00
      0.5442492580D+00  0.1143456438D+01  0.7443082909D+00
 Atom C38      Shell   109 SP   1    bf  288 -   291          6.557953524202          7.114465776089          0.468972654097
      0.1687144782D+00  0.1000000000D+01  0.1000000000D+01
 Atom C38      Shell   110 D   1     bf  292 -   297          6.557953524202          7.114465776089          0.468972654097
      0.8000000000D+00  0.1000000000D+01
 Atom H39      Shell   111 S   3     bf  298 -   298          8.165903613865          8.101943565226         -0.359922511605
      0.1873113696D+02  0.3349460434D-01
      0.2825394365D+01  0.2347269535D+00
      0.6401216923D+00  0.8137573261D+00
 Atom H39      Shell   112 S   1     bf  299 -   299          8.165903613865          8.101943565226         -0.359922511605
      0.1612777588D+00  0.1000000000D+01
 Atom C40      Shell   113 S   6     bf  300 -   300          0.933513692542          8.407882648338          3.626736901829
      0.3047524880D+04  0.1834737132D-02
      0.4573695180D+03  0.1403732281D-01
      0.1039486850D+03  0.6884262226D-01
      0.2921015530D+02  0.2321844432D+00
      0.9286662960D+01  0.4679413484D+00
      0.3163926960D+01  0.3623119853D+00
 Atom C40      Shell   114 SP   3    bf  301 -   304          0.933513692542          8.407882648338          3.626736901829
      0.7868272350D+01 -0.1193324198D+00  0.6899906659D-01
      0.1881288540D+01 -0.1608541517D+00  0.3164239610D+00
      0.5442492580D+00  0.1143456438D+01  0.7443082909D+00
[...]
 1547 Fit      -0.002879
 1548 Fit      -0.003075
 1549 Fit      -0.002346
 1550 Fit      -0.002571
 1551 Fit      -0.002790
 1552 Fit      -0.000839
 1553 Fit       0.000875
 1554 Fit       0.002045
 1555 Fit       0.000746
 1556 Fit       0.002301
 1557 Fit       0.003152
 1558 Fit      -0.001165
 1559 Fit       0.001447
 1560 Fit       0.002533
 1561 Fit       0.001221
 1562 Fit      -0.001249
 1563 Fit      -0.001917
 1564 Fit      -0.000656
 1565 Fit       0.000742
 1566 Fit       0.001942
 1567 Fit       0.000450
 1568 Fit       0.002393
 1569 Fit       0.002812
 1570 Fit       0.000611
 1571 Fit      -0.001847
 1572 Fit       0.000348
 1573 Fit       0.001636
 1574 Fit       0.001661
 1575 Fit      -0.001331
 1576 Fit      -0.002342
 1577 Fit      -0.000685
 1578 Fit      -0.000352
 1579 Fit       0.000402
 1580 Fit      -0.002132
 1581 Fit       0.002673
 1582 Fit       0.001737
 1583 Fit      -0.000046
 1584 Fit      -0.002225
 1585 Fit       0.000750
 1586 Fit       0.001671
 1587 Fit       0.001058
 1588 Fit      -0.000792
 1589 Fit      -0.000554
 1590 Fit      -0.000736
 1591 Fit      -0.001410
 1592 Fit      -0.002519
 1593 Fit      -0.002245
 1594 Fit      -0.002823
 1595 Fit      -0.002508
 1596 Fit       0.000843
 1597 Fit       0.000246
 1598 Fit       0.002115
 1599 Fit       0.002178
 1600 Fit       0.000824
 1601 Fit      -0.001349
 1602 Fit      -0.001563
 1603 Fit       0.002060
 1604 Fit       0.001884
 1605 Fit      -0.001190
 1606 Fit      -0.001720
 1607 Fit       0.000094
 1608 Fit      -0.001573
 1609 Fit       0.000500
 1610 Fit       0.001438
 1611 Fit      -0.000135
 1612 Fit       0.001803
 1613 Fit       0.002360
 1614 Fit       0.002069
 1615 Fit      -0.001683
 1616 Fit       0.000740
 1617 Fit       0.002583
 1618 Fit       0.003069
 1619 Fit      -0.002038
 1620 Fit      -0.000320
 1621 Fit       0.000250
 1622 Fit      -0.000335
 1623 Fit      -0.002092
 1624 Fit       0.001197
 1625 Fit       0.001944
 1626 Fit       0.001569
 1627 Fit      -0.000002
 1628 Fit      -0.002258
 1629 Fit       0.002815
 1630 Fit       0.002089
 1631 Fit      -0.000079
 1632 Fit      -0.024027
 1633 Fit      -0.020851
 1634 Fit      -0.023327
 1635 Fit      -0.026257
 1636 Fit      -0.023712
 1637 Fit      -0.019222
 1638 Fit      -0.013122
 1639 Fit      -0.013612
 1640 Fit      -0.017311
 1641 Fit      -0.022622
 1642 Fit      -0.026146
 1643 Fit      -0.025529
 1644 Fit      -0.013780
 1645 Fit      -0.011583
 1646 Fit      -0.019381
 1647 Fit      -0.024094
 1648 Fit      -0.023794
 1649 Fit      -0.004001
 1650 Fit      -0.008780
 1651 Fit      -0.017043
 1652 Fit      -0.020690
 1653 Fit      -0.018459
 1654 Fit      -0.007073
 1655 Fit      -0.013831
 1656 Fit       0.000638
 1657 Fit       0.000562
 1658 Fit       0.010714
 1659 Fit       0.010626
 1660 Fit       0.007588
 1661 Fit       0.000968
 1662 Fit       0.008389
 1663 Fit       0.016574
 1664 Fit       0.016068
 1665 Fit       0.013112
 1666 Fit       0.007244
 1667 Fit      -0.002052
 1668 Fit       0.015106
 1669 Fit       0.019224
 1670 Fit       0.017777
 1671 Fit       0.013376
 1672 Fit       0.005827
 1673 Fit       0.003817
 1674 Fit       0.003700
 1675 Fit       0.003744
 1676 Fit       0.003243
 1677 Fit       0.003543
 1678 Fit       0.000582
 1679 Fit       0.002733
 1680 Fit       0.002321
 1681 Fit       0.002786
 1682 Fit       0.003067
 1683 Fit      -0.000172
 1684 Fit       0.003227
 1685 Fit       0.002335
 1686 Fit       0.003295
 1687 Fit       0.003520
 1688 Fit       0.003108
 1689 Fit       0.003298
 1690 Fit       0.002347
 1691 Fit       0.002810
 1692 Fit       0.000226
 1693 Fit       0.000498
 1694 Fit      -0.000692
 1695 Fit       0.001631
 1696 Fit       0.001142
 1697 Fit       0.002665
 1698 Fit       0.000596
 1699 Fit       0.001942
 1700 Fit       0.002594
 1701 Fit       0.002580
 1702 Fit       0.003221
 1703 Fit       0.003517
 1704 Fit       0.000889
 1705 Fit       0.001497
 1706 Fit       0.000532
 1707 Fit       0.002376
 1708 Fit       0.002219
 1709 Fit       0.000293
 1710 Fit       0.002985
 1711 Fit       0.000902
 1712 Fit      -0.000016
 1713 Fit       0.000026
 1714 Fit       0.000908
 1715 Fit      -0.000286
 1716 Fit       0.003039
 1717 Fit       0.003464
 1718 Fit       0.003471
 1719 Fit       0.002966
 1720 Fit       0.002976
 1721 Fit       0.003339
 1722 Fit       0.002958
 1723 Fit       0.002717
 1724 Fit       0.002282
 1725 Fit       0.002615
 1726 Fit       0.001673
 1727 Fit       0.000976
 1728 Fit       0.000812
 1729 Fit       0.002589
 1730 Fit       0.002882
 1731 Fit       0.001946
 1732 Fit       0.002506
 1733 Fit       0.003097
 1734 Fit       0.003829
 1735 Fit       0.001170
 1736 Fit       0.002215
 1737 Fit       0.002398
 1738 Fit       0.000833
 1739 Fit       0.001462
 1740 Fit       0.002261
 1741 Fit       0.002740
 1742 Fit       0.002125
 1743 Fit       0.002536
 1744 Fit       0.003306
 1745 Fit       0.002859
 1746 Fit       0.002380
 1747 Fit       0.002307
 1748 Fit       0.002124
 1749 Fit       0.001656
 1750 Fit       0.001391
 1751 Fit       0.001105
 1752 Fit       0.001518
 1753 Fit       0.001618
 1754 Fit       0.000389
 1755 Fit      -0.000360
 1756 Fit       0.000220
 1757 Fit       0.003843
 1758 Fit       0.003740
 1759 Fit       0.003262
 1760 Fit       0.000681
 1761 Fit       0.002429
 1762 Fit       0.002848
 1763 Fit       0.002246
 1764 Fit       0.000907
 1765 Fit       0.001545
 1766 Fit       0.002824
 1767 Fit       0.003014
 1768 Fit       0.002794
 1769 Fit       0.003080
 1770 Fit       0.002944
 1771 Fit       0.002255
 1772 Fit       0.003015
 1773 Fit       0.003116
 1774 Fit       0.002137
 1775 Fit       0.002648
 1776 Fit       0.002617
 1777 Fit       0.000921
 1778 Fit       0.001594
 1779 Fit       0.002875
 1780 Fit       0.003052
 1781 Fit      -0.002684
 1782 Fit       0.002703
 1783 Fit       0.003212
 1784 Fit       0.003703
 1785 Fit       0.002691
 1786 Fit       0.001332
 1787 Fit       0.001435
 1788 Fit       0.002819
 1789 Fit       0.003242
 1790 Fit       0.003197
 1791 Fit       0.002676
 1792 Fit       0.002765
 1793 Fit      -0.001083
 1794 Fit       0.003363
 1795 Fit       0.001833
 1796 Fit       0.001386
 1797 Fit       0.003551
 1798 Fit       0.002685
 1799 Fit       0.002576
 1800 Fit       0.003663
 1801 Fit       0.003129
 1802 Fit       0.002590
 1803 Fit       0.003080
 1804 Fit       0.001467
 1805 Fit       0.001441
 1806 Fit       0.002519
 1807 Fit       0.002417
 1808 Fit       0.003757
 1809 Fit       0.003000
 1810 Fit       0.000813
 1811 Fit      -0.000193
 1812 Fit      -0.000699
 1813 Fit       0.000176
 1814 Fit      -0.000462
 1815 Fit      -0.000339
 1816 Fit       0.000424
 1817 Fit       0.004090
 1818 Fit       0.001297
 1819 Fit       0.002424
 1820 Fit       0.001104
 1821 Fit       0.002175
 1822 Fit       0.000143
 1823 Fit       0.001225
 1824 Fit       0.001431
 1825 Fit       0.000871
 1826 Fit       0.001962
 1827 Fit       0.000568
 1828 Fit       0.003270
 1829 Fit       0.001381
 1830 Fit       0.002198
 1831 Fit       0.000467
 1832 Fit       0.002155
 1833 Fit       0.001534
 1834 Fit       0.001576
 1835 Fit       0.002294
 1836 Fit       0.003348
 1837 Fit       0.003484
 1838 Fit       0.004452
 1839 Fit       0.000579
 1840 Fit       0.001277
 1841 Fit       0.000514
 1842 Fit       0.001330
 1843 Fit       0.001006
 1844 Fit       0.001633
 1845 Fit       0.001778
 1846 Fit       0.001674
 1847 Fit       0.002411
 1848 Fit       0.002673
 1849 Fit       0.002593
 1850 Fit       0.002827
 1851 Fit       0.001706
 1852 Fit      -0.000001
 1853 Fit       0.001194
 1854 Fit       0.001571
 1855 Fit       0.000303
 1856 Fit       0.001705
 1857 Fit       0.002965
 1858 Fit       0.003376
 1859 Fit       0.002343
 1860 Fit       0.003507
 1861 Fit       0.000909
 1862 Fit      -0.002858
 1863 Fit      -0.002723
 1864 Fit      -0.000517
 1865 Fit       0.001913
 1866 Fit      -0.003727
 1867 Fit      -0.006708
 1868 Fit      -0.005739
 1869 Fit      -0.002007
 1870 Fit      -0.003424
 1871 Fit       0.005323
 1872 Fit       0.001692
 1873 Fit       0.005851
 1874 Fit       0.007560
 1875 Fit       0.007841
 1876 Fit       0.003793
 1877 Fit       0.005717
 1878 Fit       0.006199
 1879 Fit       0.004714
 1880 Fit       0.000803
 1881 Fit       0.004413
 1882 Fit       0.004938
 1883 Fit       0.003998
 1884 Fit      -0.001370
 1885 Fit      -0.001348
 1886 Fit      -0.001483
 1887 Fit      -0.001739
 1888 Fit      -0.001480
 1889 Fit      -0.000347
 1890 Fit      -0.001635
 1891 Fit      -0.005963
 1892 Fit      -0.000005
 1893 Fit       0.002028
 1894 Fit      -0.000508
 1895 Fit       0.001315
 1896 Fit       0.002651
 1897 Fit       0.000314
 1898 Fit       0.001932
 1899 Fit       0.002981
 1900 Fit      -0.000392
 1901 Fit       0.001447
 1902 Fit      -0.001542
 1903 Fit      -0.001139
 1904 Fit      -0.001197
 1905 Fit      -0.000398
 1906 Fit      -0.001162
 1907 Fit      -0.001032
 1908 Fit      -0.001138
 1909 Fit      -0.000023
 1910 Fit       0.001499
 1911 Fit      -0.004198
 1912 Fit      -0.001182
 1913 Fit       0.000475
 1914 Fit       0.001982
 1915 Fit      -0.001730
 1916 Fit       0.001215
 1917 Fit       0.003454
 1918 Fit      -0.001400
 1919 Fit       0.015617
 1920 Fit       0.009230
 1921 Fit       0.011032
 1922 Fit       0.012692
 1923 Fit       0.011501
 1924 Fit       0.006803
 1925 Fit       0.007612
 1926 Fit       0.009563
 1927 Fit       0.008840
 1928 Fit       0.006165
 1929 Fit       0.001956
 1930 Fit       0.005014
 1931 Fit      -0.000284
 1932 Fit      -0.007085
 1933 Fit      -0.003159
 1934 Fit      -0.001526
 1935 Fit      -0.001966
 1936 Fit      -0.000639
 1937 Fit      -0.000875
 1938 Fit      -0.000894
 1939 Fit      -0.002907
 1940 Fit      -0.019114
 1941 Fit      -0.010300
 1942 Fit      -0.005265
 1943 Fit      -0.002042
 1944 Fit      -0.010917
 1945 Fit      -0.016171
 1946 Fit      -0.007723
 1947 Fit      -0.004026
 1948 Fit      -0.013534
 1949 Fit      -0.005774
 1950 Fit      -0.002586
 1951 Fit      -0.001160
 1952 Fit      -0.009423
 1953 Fit      -0.002668
 1954 Fit      -0.004679
 1955 Fit      -0.006240
 1956 Fit      -0.010636
 1957 Fit      -0.008250
 1958 Fit      -0.003953
 1959 Fit      -0.001786
 1960 Fit      -0.002310
 1961 Fit      -0.008567
 1962 Fit      -0.018721
 1963 Fit      -0.018166
 1964 Fit      -0.002026
 1965 Fit      -0.000488
 1966 Fit      -0.000290
 1967 Fit      -0.000671
 1968 Fit      -0.002804
 1969 Fit       0.000178
 1970 Fit      -0.002312
 1971 Fit       0.001827
 1972 Fit       0.002248
 1973 Fit       0.002463
 1974 Fit       0.002677
 1975 Fit       0.003264
 1976 Fit       0.002797
 1977 Fit       0.002584
 1978 Fit       0.002721
 1979 Fit       0.001772
 1980 Fit      -0.007844
 1981 Fit      -0.002610
 1982 Fit      -0.001480
 1983 Fit       0.001160
 1984 Fit       0.000259
 1985 Fit       0.004266
 1986 Fit       0.002556
 1987 Fit       0.003003
 1988 Fit       0.007494
 1989 Fit       0.000894
 1990 Fit       0.002143
 1991 Fit       0.004141
 1992 Fit       0.007805
 1993 Fit       0.001925
 1994 Fit      -0.000866
 1995 Fit      -0.000958
 1996 Fit      -0.001233
 1997 Fit      -0.001159
 1998 Fit      -0.001181
 1999 Fit      -0.000264
 2000 Fit       0.000279
 2001 Fit      -0.000244
 2002 Fit       0.001074
 2003 Fit      -0.000094
 2004 Fit       0.000166
 2005 Fit      -0.000154
 2006 Fit       0.000767
 2007 Fit      -0.000247
 2008 Fit       0.001055
 2009 Fit       0.001891
 2010 Fit       0.000520
 2011 Fit       0.001733
 2012 Fit       0.002336
 2013 Fit       0.001171
 2014 Fit       0.001879
 2015 Fit       0.002601
 2016 Fit       0.003116
 2017 Fit       0.000365
 2018 Fit       0.000833
 2019 Fit       0.000602
 2020 Fit      -0.000228
 2021 Fit       0.000734
 2022 Fit       0.001676
 2023 Fit       0.002412
 2024 Fit       0.000023
 2025 Fit       0.000839
 2026 Fit       0.001591
 2027 Fit       0.000104
 2028 Fit       0.000720
 2029 Fit       0.003521
 2030 Fit       0.001603
 2031 Fit       0.002255
 2032 Fit       0.000192
 2033 Fit       0.002129
 2034 Fit      -0.000345
 2035 Fit      -0.000318
 2036 Fit       0.002147
 2037 Fit       0.001202
 2038 Fit       0.000869
 2039 Fit       0.000826
 2040 Fit       0.001275
 2041 Fit       0.000702
 2042 Fit      -0.000027
 2043 Fit       0.002153
 2044 Fit       0.001482
 2045 Fit       0.000672
 2046 Fit      -0.000013
 2047 Fit       0.002855
 2048 Fit       0.002657
 2049 Fit       0.002163
 2050 Fit       0.001425
 2051 Fit       0.000436
 2052 Fit       0.001661
 2053 Fit       0.001583
 2054 Fit       0.000574
 2055 Fit      -0.000336
 2056 Fit      -0.001133
 2057 Fit      -0.001562
 2058 Fit      -0.002081
 2059 Fit       0.002736
 2060 Fit       0.002556
 2061 Fit       0.001828
 2062 Fit       0.000519
 2063 Fit       0.002273
 2064 Fit       0.002057
 2065 Fit       0.000961
 2066 Fit      -0.000560
 2067 Fit      -0.001055
 2068 Fit       0.000891
 2069 Fit       0.000662
 2070 Fit       0.000786
 2071 Fit       0.001665
 2072 Fit       0.000275
 2073 Fit       0.001014
 2074 Fit       0.001685
 2075 Fit       0.002214
 2076 Fit       0.000111
 2077 Fit       0.000827
 2078 Fit       0.001148
 2079 Fit      -0.000676
 2080 Fit      -0.000739
 2081 Fit       0.001460
 2082 Fit       0.002026
 2083 Fit       0.001258
 2084 Fit       0.001904
 2085 Fit       0.002274
 2086 Fit       0.001317
 2087 Fit       0.001265
 2088 Fit       0.001827
 2089 Fit       0.001480
 2090 Fit      -0.001753
 2091 Fit      -0.000765
 2092 Fit       0.000002
 2093 Fit      -0.001710
 2094 Fit      -0.002062
 2095 Fit      -0.002099
 2096 Fit      -0.001670
 2097 Fit      -0.001419
 2098 Fit      -0.001872
 2099 Fit      -0.002169
 2100 Fit      -0.002241
 2101 Fit      -0.001721
 2102 Fit      -0.001958
 2103 Fit       0.000008
 2104 Fit       0.001245
 2105 Fit       0.002187
 2106 Fit       0.000836
 2107 Fit       0.001985
 2108 Fit       0.002602
 2109 Fit      -0.000581
 2110 Fit       0.001071
 2111 Fit       0.001858
 2112 Fit       0.000932
 2113 Fit      -0.000770
 2114 Fit      -0.001274
 2115 Fit      -0.000424
 2116 Fit       0.000508
 2117 Fit       0.001901
 2118 Fit       0.000722
 2119 Fit       0.002142
 2120 Fit       0.002451
 2121 Fit       0.001112
 2122 Fit      -0.000583
 2123 Fit       0.000940
 2124 Fit       0.001755
 2125 Fit       0.001751
 2126 Fit      -0.000060
 2127 Fit      -0.001456
 2128 Fit      -0.000112
 2129 Fit       0.000652
 2130 Fit       0.000619
 2131 Fit      -0.001207
 2132 Fit      -0.000899
 2133 Fit       0.002015
 2134 Fit       0.000654
 2135 Fit      -0.000899
 2136 Fit       0.001939
 2137 Fit       0.001713
 2138 Fit       0.000879
 2139 Fit      -0.000486
 2140 Fit       0.000089
 2141 Fit       0.000863
 2142 Fit       0.000448
 2143 Fit      -0.000847
 2144 Fit      -0.000760
 2145 Fit      -0.000903
 2146 Fit      -0.000719
 2147 Fit      -0.001689
 2148 Fit      -0.001280
 2149 Fit      -0.000304
 2150 Fit      -0.001513
 2151 Fit      -0.002041
 2152 Fit      -0.001694
 2153 Fit       0.000943
 2154 Fit      -0.000204
 2155 Fit      -0.001895
 2156 Fit      -0.001724
 2157 Fit       0.000605
 2158 Fit       0.000376
 2159 Fit       0.001581
 2160 Fit       0.001444
 2161 Fit       0.000594
 2162 Fit      -0.000848
 2163 Fit      -0.000914
 2164 Fit       0.001838
 2165 Fit       0.001438
 2166 Fit      -0.000592
 2167 Fit      -0.000031
 2168 Fit      -0.001302
 2169 Fit       0.000115
 2170 Fit       0.001006
 2171 Fit      -0.000252
 2172 Fit       0.001124
 2173 Fit       0.001563
 2174 Fit       0.001655
 2175 Fit      -0.000611
 2176 Fit       0.001000
 2177 Fit       0.002080
 2178 Fit       0.002275
 2179 Fit      -0.001215
 2180 Fit       0.000649
 2181 Fit       0.002409
 2182 Fit      -0.000485
 2183 Fit      -0.000347
 2184 Fit      -0.000824
 2185 Fit       0.000311
 2186 Fit       0.000852
 2187 Fit       0.000966
 2188 Fit       0.000341
 2189 Fit      -0.000921
 2190 Fit       0.001773
 2191 Fit       0.001850
 2192 Fit       0.001170
 2193 Fit      -0.000259
 2194 Fit       0.002508
 2195 Fit       0.001943
 -----------------------------------------------------------------
 Leave Link  602 at Tue Mar 21 11:58:01 2017, MaxMem=    33554432 cpu:         3.3
 (Enter /home/michal/g09/l9999.exe)

 Test job not archived.
 1\1\GINC-LINUX\SP\RHF\6-31G(d)\C27H46O1\MICHAL\21-Mar-2017\0\\#P HF/6-
 31G* SCF(Conver=6) NoSymm Test Pop=mk IOp(6/33=2) GFInput GFPrint\\MEP
  - Input generated by R.E.D.-III.x MOLECULE\\0,1\O,0,4.21123761,6.5567
 5936,4.11844965\H,0,4.98983721,6.90739764,3.66591931\C,0,0.,0.,0.\C,0,
 1.34564142,0.61944899,-0.47231256\H,0,2.12778561,0.,0.\C,0,1.61290571,
 2.05458973,0.\H,0,0.84824033,2.72200089,-0.42216288\C,0,1.547283,2.120
 62862,1.54818287\H,0,2.41084971,1.53474292,1.90443633\C,0,0.0884923,-1
 .4052344,-0.69263139\H,0,0.82617119,-1.98334875,-0.1133564\C,0,0.03577
 805,0.01238782,1.54262206\H,0,0.83924545,-0.65838279,1.88006867\H,0,-0
 .89262684,-0.37413548,1.97466409\C,0,1.76202573,3.57286783,2.10266063\
 C,0,1.40009677,0.31153302,-1.97570392\H,0,2.42293844,0.30589369,-2.365
 40774\H,0,0.84903282,1.06916631,-2.54662833\C,0,0.27996203,1.42948191,
 2.10200955\H,0,-0.60137554,2.0439234,1.88941283\H,0,0.34316054,1.36342
 904,3.19409514\C,0,0.72021382,-1.08024493,-2.09007953\H,0,-0.05428467,
 -1.07380336,-2.86643224\H,0,1.44157865,-1.84941806,-2.38166319\C,0,2.9
 860269,2.54649194,-0.4856234\H,0,2.95158523,2.75891643,-1.56247324\H,0
 ,3.72702774,1.73761471,-0.37234041\C,0,-1.18052307,-2.28974992,-0.8061
 1068\H,0,-1.90682489,-1.7556837,-1.43798188\C,0,-1.22693202,0.77989964
 ,-0.52617445\H,0,-2.15507424,0.3504846,-0.13483\H,0,-1.20905727,1.8317
 6996,-0.23053834\H,0,-1.29217854,0.75281513,-1.61816686\C,0,2.93681792
 ,4.24718302,1.38019148\C,0,2.11502621,3.47885985,3.61994876\H,0,2.8899
 853,2.70962922,3.74417928\H,0,1.23884673,3.1298298,4.1771362\C,0,3.470
 31954,3.76481314,0.24816964\H,0,4.32121008,4.28736388,-0.19046279\C,0,
 0.49399417,4.44925987,1.91918651\H,0,-0.32412892,4.10888258,2.56174954
 \H,0,0.68794059,5.49420176,2.17358891\H,0,0.1466578,4.42926526,0.88154
 395\C,0,3.48743335,5.51184545,2.01263517\H,0,4.37472368,5.84214592,1.4
 5721377\H,0,2.75479318,6.32910835,1.95282109\C,0,2.61913586,4.78557391
 ,4.24969866\H,0,1.83770973,5.55569732,4.24486394\H,0,2.88652301,4.6167
 7783,5.2990245\C,0,-0.84277359,-3.61932727,-1.52636478\H,0,-0.28740409
 ,-3.40098879,-2.44612665\H,0,-0.15795492,-4.19550525,-0.88724453\C,0,3
 .82964496,5.32291432,3.49759275\H,0,4.65564782,4.59774161,3.58485769\C
 ,0,-1.84960202,-2.57123983,0.55070493\H,0,-1.14229489,-3.03941346,1.24
 705708\H,0,-2.70201503,-3.24780574,0.43890694\H,0,-2.22645901,-1.66086
 39,1.02160299\C,0,-2.05698273,-4.48284026,-1.9092912\H,0,-2.55692297,-
 4.86489949,-1.01194463\H,0,-2.79537092,-3.84425043,-2.41483966\C,0,-1.
 7228234,-5.65633836,-2.84888525\H,0,-1.29415896,-5.25002549,-3.7764981
 \H,0,-2.66095366,-6.15181644,-3.14016248\C,0,-0.76134821,-6.73174213,-
 2.29937581\H,0,0.18251578,-6.24024606,-2.02302493\C,0,-0.43997685,-7.7
 6397608,-3.39207422\H,0,-0.00828337,-7.28586448,-4.27893647\H,0,0.2744
 8582,-8.51399994,-3.03392434\H,0,-1.34765064,-8.29406189,-3.70836709\C
 ,0,-1.31466072,-7.42850137,-1.04614265\H,0,-1.47794076,-6.72731492,-0.
 22131705\H,0,-0.62261104,-8.20007574,-0.68992563\H,0,-2.27339562,-7.91
 721244,-1.26366352\\Version=EM64L-G09RevD.01\HF=-1124.0790577\RMSD=4.5
 35e-07\Dipole=0.2122432,-0.3351374,-0.5314025\Quadrupole=9.1496386,-4.
 9168703,-4.2327684,0.9344718,-3.126176,-9.2543092\PG=C01 [X(C27H46O1)]
 \\@


 At the touch of love, everyone becomves a poet.
                                -- Plato
 Job cpu time:       0 days  0 hours 10 minutes  9.7 seconds.
 File lengths (MBytes):  RWF=    142 Int=      0 D2E=      0 Chk=     10 Scr=      1
 Normal termination of Gaussian 09 at Tue Mar 21 11:58:01 2017.
