 Entering Gaussian System, Link 0=/home/michal/g09/g09
 Input=JOB2-gau_m1-6-1.com
 Output=JOB2-gau_m1-6-1.log
 Initial command:
 /home/michal/g09/l1.exe "/home/michal/gauss_scratch/Gau-14349.inp" -scrdir="/home/michal/gauss_scratch/"
 Entering Link 1 = /home/michal/g09/l1.exe PID=     14350.
  
 Copyright (c) 1988,1990,1992,1993,1995,1998,2003,2009,2013,
            Gaussian, Inc.  All Rights Reserved.
  
 This is part of the Gaussian(R) 09 program.  It is based on
 the Gaussian(R) 03 system (copyright 2003, Gaussian, Inc.),
 the Gaussian(R) 98 system (copyright 1998, Gaussian, Inc.),
 the Gaussian(R) 94 system (copyright 1995, Gaussian, Inc.),
 the Gaussian 92(TM) system (copyright 1992, Gaussian, Inc.),
 the Gaussian 90(TM) system (copyright 1990, Gaussian, Inc.),
 the Gaussian 88(TM) system (copyright 1988, Gaussian, Inc.),
 the Gaussian 86(TM) system (copyright 1986, Carnegie Mellon
 University), and the Gaussian 82(TM) system (copyright 1983,
 Carnegie Mellon University). Gaussian is a federally registered
 trademark of Gaussian, Inc.
  
 This software contains proprietary and confidential information,
 including trade secrets, belonging to Gaussian, Inc.
  
 This software is provided under written license and may be
 used, copied, transmitted, or stored only in accord with that
 written license.
  
 The following legend is applicable only to US Government
 contracts under FAR:
  
                    RESTRICTED RIGHTS LEGEND
  
 Use, reproduction and disclosure by the US Government is
 subject to restrictions as set forth in subparagraphs (a)
 and (c) of the Commercial Computer Software - Restricted
 Rights clause in FAR 52.227-19.
  
 Gaussian, Inc.
 340 Quinnipiac St., Bldg. 40, Wallingford CT 06492
  
  
 ---------------------------------------------------------------
 Warning -- This program may not be used in any manner that
 competes with the business of Gaussian, Inc. or will provide
 assistance to any competitor of Gaussian, Inc.  The licensee
 of this program is prohibited from giving any competitor of
 Gaussian, Inc. access to this program.  By using this program,
 the user acknowledges that Gaussian, Inc. is engaged in the
 business of creating and licensing software in the field of
 computational chemistry and represents and warrants to the
 licensee that it is not a competitor of Gaussian, Inc. and that
 it will not use this program in any manner prohibited above.
 ---------------------------------------------------------------
  

 Cite this work as:
 Gaussian 09, Revision D.01,
 M. J. Frisch, G. W. Trucks, H. B. Schlegel, G. E. Scuseria, 
 M. A. Robb, J. R. Cheeseman, G. Scalmani, V. Barone, B. Mennucci, 
 G. A. Petersson, H. Nakatsuji, M. Caricato, X. Li, H. P. Hratchian, 
 A. F. Izmaylov, J. Bloino, G. Zheng, J. L. Sonnenberg, M. Hada, 
 M. Ehara, K. Toyota, R. Fukuda, J. Hasegawa, M. Ishida, T. Nakajima, 
 Y. Honda, O. Kitao, H. Nakai, T. Vreven, J. A. Montgomery, Jr., 
 J. E. Peralta, F. Ogliaro, M. Bearpark, J. J. Heyd, E. Brothers, 
 K. N. Kudin, V. N. Staroverov, T. Keith, R. Kobayashi, J. Normand, 
 K. Raghavachari, A. Rendell, J. C. Burant, S. S. Iyengar, J. Tomasi, 
 M. Cossi, N. Rega, J. M. Millam, M. Klene, J. E. Knox, J. B. Cross, 
 V. Bakken, C. Adamo, J. Jaramillo, R. Gomperts, R. E. Stratmann, 
 O. Yazyev, A. J. Austin, R. Cammi, C. Pomelli, J. W. Ochterski, 
 R. L. Martin, K. Morokuma, V. G. Zakrzewski, G. A. Voth, 
 P. Salvador, J. J. Dannenberg, S. Dapprich, A. D. Daniels, 
 O. Farkas, J. B. Foresman, J. V. Ortiz, J. Cioslowski, 
 and D. J. Fox, Gaussian, Inc., Wallingford CT, 2013.
 
 ******************************************
 Gaussian 09:  EM64L-G09RevD.01 24-Apr-2013
                21-Mar-2017 
 ******************************************
 %Mem=256MB
 %NProc=12
 Will use up to   12 processors via shared memory.
 ----------------------------------------------------------------------
 #P HF/6-31G* SCF(Conver=6) NoSymm Test Pop=mk IOp(6/33=2) GFInput GFPr
 int
 ----------------------------------------------------------------------
 1/38=1/1;
 2/12=2,15=1,17=6,18=5,40=1/2;
 3/5=1,6=6,7=1,11=9,16=1,24=110,25=1,30=1/1,2,3;
 4//1;
 5/5=2,6=6,38=5/2;
 6/7=2,8=2,9=2,10=2,15=8,20=1,28=1,33=2/1,2;
 99/5=1,9=1/99;
 Leave Link    1 at Tue Mar 21 12:05:08 2017, MaxMem=    33554432 cpu:         0.9
 (Enter /home/michal/g09/l101.exe)
 ----------------------------------------------
 MEP - Input generated by R.E.D.-III.x MOLECULE
 ----------------------------------------------
 Symbolic Z-matrix:
 Charge =  0 Multiplicity = 1
 O                     4.9943   -0.25683  -7.25638 
 H                     5.94573  -0.34329  -7.1106 
 C                     0.        0.        0. 
 C                     1.55447   0.        0. 
 H                     1.84162   1.06588   0. 
 C                     2.21384  -0.6068   -1.24563 
 H                     1.94873  -1.67152  -1.31216 
 C                     1.70964   0.12313  -2.5181 
 H                     2.11363   1.14685  -2.44957 
 C                    -0.27348   0.65197   1.39982 
 H                    -0.04383   1.72377   1.28762 
 C                    -0.4357    0.81486  -1.23533 
 H                    -0.11032   1.85672  -1.10076 
 H                    -1.52491   0.84105  -1.34096 
 C                     2.30472  -0.48066  -3.83872 
 C                     1.93333  -0.5501    1.38303 
 H                     2.93623  -0.24318   1.69618 
 H                     1.9259   -1.64717   1.37843 
 C                     0.16876   0.25198  -2.53834 
 H                    -0.28347  -0.72532  -2.73782 
 H                    -0.1363    0.89886  -3.36866 
 C                     0.8278    0.01462   2.31697 
 H                     0.39549  -0.7785    2.93838 
 H                     1.24024   0.75548   3.00824 
 C                     3.74557  -0.50877  -1.1602 
 H                     4.13002  -1.23443  -0.43113 
 H                     4.02882   0.48034  -0.7632 
 C                    -1.68769   0.55893   2.02749 
 H                    -1.89474  -0.50654   2.20606 
 C                    -0.58929  -1.42887  -0.05089 
 H                    -1.68211  -1.39519  -0.10957 
 H                    -0.23774  -1.99237  -0.91865 
 H                    -0.3298   -2.01141   0.83834 
 C                     3.81023  -0.73218  -3.67454 
 C                     2.1084    0.55315  -4.99116 
 H                     2.43436   1.5376   -4.62738 
 H                     1.04121   0.64476  -5.22073 
 C                     4.42551  -0.72217  -2.48285 
 H                     5.50368  -0.88365  -2.45211 
 C                     1.61368  -1.81762  -4.2191 
 H                     0.57485  -1.65835  -4.5249 
 H                     2.12156  -2.30909  -5.0526 
 H                     1.62047  -2.5189   -3.37895 
 C                     4.597    -0.99755  -4.94469 
 H                     5.66577  -1.06872  -4.7048 
 H                     4.30797  -1.96067  -5.38871 
 C                     2.87186   0.23337  -6.28458 
 H                     2.50447  -0.69297  -6.74358 
 H                     2.7146    1.03119  -7.01932 
 C                    -1.73216   1.28128   3.40992 
 H                    -0.7167    1.53304   3.73296 
 H                    -2.25058   2.2438    3.29402 
 C                     4.36285   0.0788   -6.01456 
 H                     4.76129   1.03953  -5.64854 
 C                    -2.79975   1.10795   1.11438 
 H                    -2.57275   2.13368   0.79811 
 H                    -3.75767   1.13357   1.64286 
 H                    -2.94006   0.50429   0.21412 
 C                    -2.39444   0.48773   4.55407 
 H                    -1.85059  -0.45795   4.68142 
 H                    -2.24782   1.05142   5.48445 
 C                    -3.89299   0.20271   4.36503 
 H                    -4.0373   -0.39497   3.45512 
 H                    -4.41271   1.15607   4.18989 
 C                    -4.60247  -0.52773   5.53055 
 H                    -5.64926  -0.64991   5.21501 
 C                    -4.61817   0.29626   6.82889 
 H                    -5.02501   1.30019   6.65947 
 H                    -5.23762  -0.1906    7.5908 
 H                    -3.61275   0.40933   7.25038 
 C                    -4.03907  -1.93715   5.77761 
 H                    -4.03325  -2.53184   4.85649 
 H                    -4.6436   -2.47407   6.51752 
 H                    -3.0122   -1.90137   6.15921 
 
 NAtoms=     74 NQM=       74 NQMF=       0 NMMI=      0 NMMIF=      0
                NMic=       0 NMicF=      0.
                    Isotopes and Nuclear Properties:
 (Nuclear quadrupole moments (NQMom) in fm**2, nuclear magnetic moments (NMagM)
  in nuclear magnetons)

  Atom         1           2           3           4           5           6           7           8           9          10
 IAtWgt=          16           1          12          12           1          12           1          12           1          12
 AtmWgt=  15.9949146   1.0078250  12.0000000  12.0000000   1.0078250  12.0000000   1.0078250  12.0000000   1.0078250  12.0000000
 NucSpn=           0           1           0           0           1           0           1           0           1           0
 AtZEff=   0.0000000   0.0000000   0.0000000   0.0000000   0.0000000   0.0000000   0.0000000   0.0000000   0.0000000   0.0000000
 NQMom=    0.0000000   0.0000000   0.0000000   0.0000000   0.0000000   0.0000000   0.0000000   0.0000000   0.0000000   0.0000000
 NMagM=    0.0000000   2.7928460   0.0000000   0.0000000   2.7928460   0.0000000   2.7928460   0.0000000   2.7928460   0.0000000
 AtZNuc=   8.0000000   1.0000000   6.0000000   6.0000000   1.0000000   6.0000000   1.0000000   6.0000000   1.0000000   6.0000000

  Atom        11          12          13          14          15          16          17          18          19          20
 IAtWgt=           1          12           1           1          12          12           1           1          12           1
 AtmWgt=   1.0078250  12.0000000   1.0078250   1.0078250  12.0000000  12.0000000   1.0078250   1.0078250  12.0000000   1.0078250
 NucSpn=           1           0           1           1           0           0           1           1           0           1
 AtZEff=   0.0000000   0.0000000   0.0000000   0.0000000   0.0000000   0.0000000   0.0000000   0.0000000   0.0000000   0.0000000
 NQMom=    0.0000000   0.0000000   0.0000000   0.0000000   0.0000000   0.0000000   0.0000000   0.0000000   0.0000000   0.0000000
 NMagM=    2.7928460   0.0000000   2.7928460   2.7928460   0.0000000   0.0000000   2.7928460   2.7928460   0.0000000   2.7928460
 AtZNuc=   1.0000000   6.0000000   1.0000000   1.0000000   6.0000000   6.0000000   1.0000000   1.0000000   6.0000000   1.0000000

  Atom        21          22          23          24          25          26          27          28          29          30
 IAtWgt=           1          12           1           1          12           1           1          12           1          12
 AtmWgt=   1.0078250  12.0000000   1.0078250   1.0078250  12.0000000   1.0078250   1.0078250  12.0000000   1.0078250  12.0000000
 NucSpn=           1           0           1           1           0           1           1           0           1           0
 AtZEff=   0.0000000   0.0000000   0.0000000   0.0000000   0.0000000   0.0000000   0.0000000   0.0000000   0.0000000   0.0000000
 NQMom=    0.0000000   0.0000000   0.0000000   0.0000000   0.0000000   0.0000000   0.0000000   0.0000000   0.0000000   0.0000000
 NMagM=    2.7928460   0.0000000   2.7928460   2.7928460   0.0000000   2.7928460   2.7928460   0.0000000   2.7928460   0.0000000
 AtZNuc=   1.0000000   6.0000000   1.0000000   1.0000000   6.0000000   1.0000000   1.0000000   6.0000000   1.0000000   6.0000000

  Atom        31          32          33          34          35          36          37          38          39          40
 IAtWgt=           1           1           1          12          12           1           1          12           1          12
 AtmWgt=   1.0078250   1.0078250   1.0078250  12.0000000  12.0000000   1.0078250   1.0078250  12.0000000   1.0078250  12.0000000
 NucSpn=           1           1           1           0           0           1           1           0           1           0
 AtZEff=   0.0000000   0.0000000   0.0000000   0.0000000   0.0000000   0.0000000   0.0000000   0.0000000   0.0000000   0.0000000
 NQMom=    0.0000000   0.0000000   0.0000000   0.0000000   0.0000000   0.0000000   0.0000000   0.0000000   0.0000000   0.0000000
 NMagM=    2.7928460   2.7928460   2.7928460   0.0000000   0.0000000   2.7928460   2.7928460   0.0000000   2.7928460   0.0000000
 AtZNuc=   1.0000000   1.0000000   1.0000000   6.0000000   6.0000000   1.0000000   1.0000000   6.0000000   1.0000000   6.0000000

  Atom        41          42          43          44          45          46          47          48          49          50
 IAtWgt=           1           1           1          12           1           1          12           1           1          12
 AtmWgt=   1.0078250   1.0078250   1.0078250  12.0000000   1.0078250   1.0078250  12.0000000   1.0078250   1.0078250  12.0000000
 NucSpn=           1           1           1           0           1           1           0           1           1           0
 AtZEff=   0.0000000   0.0000000   0.0000000   0.0000000   0.0000000   0.0000000   0.0000000   0.0000000   0.0000000   0.0000000
 NQMom=    0.0000000   0.0000000   0.0000000   0.0000000   0.0000000   0.0000000   0.0000000   0.0000000   0.0000000   0.0000000
 NMagM=    2.7928460   2.7928460   2.7928460   0.0000000   2.7928460   2.7928460   0.0000000   2.7928460   2.7928460   0.0000000
 AtZNuc=   1.0000000   1.0000000   1.0000000   6.0000000   1.0000000   1.0000000   6.0000000   1.0000000   1.0000000   6.0000000

  Atom        51          52          53          54          55          56          57          58          59          60
 IAtWgt=           1           1          12           1          12           1           1           1          12           1
 AtmWgt=   1.0078250   1.0078250  12.0000000   1.0078250  12.0000000   1.0078250   1.0078250   1.0078250  12.0000000   1.0078250
 NucSpn=           1           1           0           1           0           1           1           1           0           1
 AtZEff=   0.0000000   0.0000000   0.0000000   0.0000000   0.0000000   0.0000000   0.0000000   0.0000000   0.0000000   0.0000000
 NQMom=    0.0000000   0.0000000   0.0000000   0.0000000   0.0000000   0.0000000   0.0000000   0.0000000   0.0000000   0.0000000
 NMagM=    2.7928460   2.7928460   0.0000000   2.7928460   0.0000000   2.7928460   2.7928460   2.7928460   0.0000000   2.7928460
 AtZNuc=   1.0000000   1.0000000   6.0000000   1.0000000   6.0000000   1.0000000   1.0000000   1.0000000   6.0000000   1.0000000

  Atom        61          62          63          64          65          66          67          68          69          70
 IAtWgt=           1          12           1           1          12           1          12           1           1           1
 AtmWgt=   1.0078250  12.0000000   1.0078250   1.0078250  12.0000000   1.0078250  12.0000000   1.0078250   1.0078250   1.0078250
 NucSpn=           1           0           1           1           0           1           0           1           1           1
 AtZEff=   0.0000000   0.0000000   0.0000000   0.0000000   0.0000000   0.0000000   0.0000000   0.0000000   0.0000000   0.0000000
 NQMom=    0.0000000   0.0000000   0.0000000   0.0000000   0.0000000   0.0000000   0.0000000   0.0000000   0.0000000   0.0000000
 NMagM=    2.7928460   0.0000000   2.7928460   2.7928460   0.0000000   2.7928460   0.0000000   2.7928460   2.7928460   2.7928460
 AtZNuc=   1.0000000   6.0000000   1.0000000   1.0000000   6.0000000   1.0000000   6.0000000   1.0000000   1.0000000   1.0000000

  Atom        71          72          73          74
 IAtWgt=          12           1           1           1
 AtmWgt=  12.0000000   1.0078250   1.0078250   1.0078250
 NucSpn=           0           1           1           1
 AtZEff=   0.0000000   0.0000000   0.0000000   0.0000000
 NQMom=    0.0000000   0.0000000   0.0000000   0.0000000
 NMagM=    0.0000000   2.7928460   2.7928460   2.7928460
 AtZNuc=   6.0000000   1.0000000   1.0000000   1.0000000
 Leave Link  101 at Tue Mar 21 12:05:08 2017, MaxMem=    33554432 cpu:         1.0
 (Enter /home/michal/g09/l202.exe)
 Symmetry turned off by external request.
 Stoichiometry    C27H46O
 Framework group  C1[X(C27H46O)]
 Deg. of freedom   216
 Full point group                 C1      NOp   1
                          Input orientation:                          
 ---------------------------------------------------------------------
 Center     Atomic      Atomic             Coordinates (Angstroms)
 Number     Number       Type             X           Y           Z
 ---------------------------------------------------------------------
      1          8           0        4.994304   -0.256827   -7.256376
      2          1           0        5.945732   -0.343288   -7.110599
      3          6           0        0.000000    0.000000    0.000000
      4          6           0        1.554466    0.000000    0.000000
      5          1           0        1.841615    1.065885    0.000000
      6          6           0        2.213841   -0.606805   -1.245627
      7          1           0        1.948735   -1.671524   -1.312157
      8          6           0        1.709643    0.123126   -2.518101
      9          1           0        2.113634    1.146853   -2.449573
     10          6           0       -0.273476    0.651973    1.399821
     11          1           0       -0.043829    1.723765    1.287623
     12          6           0       -0.435699    0.814856   -1.235326
     13          1           0       -0.110321    1.856718   -1.100763
     14          1           0       -1.524909    0.841051   -1.340958
     15          6           0        2.304719   -0.480664   -3.838724
     16          6           0        1.933327   -0.550104    1.383033
     17          1           0        2.936234   -0.243182    1.696176
     18          1           0        1.925897   -1.647172    1.378434
     19          6           0        0.168762    0.251983   -2.538336
     20          1           0       -0.283470   -0.725320   -2.737818
     21          1           0       -0.136298    0.898855   -3.368665
     22          6           0        0.827803    0.014617    2.316971
     23          1           0        0.395488   -0.778502    2.938384
     24          1           0        1.240245    0.755478    3.008237
     25          6           0        3.745568   -0.508773   -1.160195
     26          1           0        4.130023   -1.234427   -0.431125
     27          1           0        4.028825    0.480342   -0.763196
     28          6           0       -1.687692    0.558935    2.027491
     29          1           0       -1.894740   -0.506542    2.206060
     30          6           0       -0.589294   -1.428875   -0.050888
     31          1           0       -1.682106   -1.395192   -0.109571
     32          1           0       -0.237744   -1.992370   -0.918650
     33          1           0       -0.329804   -2.011411    0.838341
     34          6           0        3.810228   -0.732184   -3.674542
     35          6           0        2.108398    0.553146   -4.991158
     36          1           0        2.434363    1.537597   -4.627380
     37          1           0        1.041207    0.644761   -5.220733
     38          6           0        4.425512   -0.722167   -2.482848
     39          1           0        5.503682   -0.883647   -2.452106
     40          6           0        1.613684   -1.817616   -4.219097
     41          1           0        0.574848   -1.658347   -4.524896
     42          1           0        2.121564   -2.309089   -5.052602
     43          1           0        1.620473   -2.518896   -3.378948
     44          6           0        4.597002   -0.997553   -4.944694
     45          1           0        5.665769   -1.068721   -4.704801
     46          1           0        4.307968   -1.960670   -5.388711
     47          6           0        2.871860    0.233374   -6.284584
     48          1           0        2.504469   -0.692966   -6.743580
     49          1           0        2.714601    1.031192   -7.019317
     50          6           0       -1.732156    1.281281    3.409919
     51          1           0       -0.716700    1.533038    3.732960
     52          1           0       -2.250580    2.243795    3.294017
     53          6           0        4.362851    0.078799   -6.014561
     54          1           0        4.761286    1.039533   -5.648536
     55          6           0       -2.799745    1.107953    1.114383
     56          1           0       -2.572747    2.133681    0.798106
     57          1           0       -3.757666    1.133567    1.642863
     58          1           0       -2.940061    0.504285    0.214115
     59          6           0       -2.394436    0.487735    4.554065
     60          1           0       -1.850587   -0.457954    4.681420
     61          1           0       -2.247820    1.051421    5.484445
     62          6           0       -3.892988    0.202708    4.365026
     63          1           0       -4.037301   -0.394969    3.455123
     64          1           0       -4.412709    1.156073    4.189887
     65          6           0       -4.602470   -0.527729    5.530549
     66          1           0       -5.649256   -0.649915    5.215012
     67          6           0       -4.618167    0.296261    6.828890
     68          1           0       -5.025008    1.300188    6.659467
     69          1           0       -5.237618   -0.190595    7.590799
     70          1           0       -3.612748    0.409331    7.250377
     71          6           0       -4.039073   -1.937148    5.777611
     72          1           0       -4.033251   -2.531844    4.856488
     73          1           0       -4.643605   -2.474065    6.517523
     74          1           0       -3.012197   -1.901368    6.159206
 ---------------------------------------------------------------------
 Rotational constants (GHZ):      0.5975874      0.0556085      0.0538210
 Leave Link  202 at Tue Mar 21 12:05:08 2017, MaxMem=    33554432 cpu:         0.0
 (Enter /home/michal/g09/l301.exe)
 Standard basis: 6-31G(d) (6D, 7F)
 Ernie: Thresh=  0.10000D-02 Tol=  0.10000D-05 Strict=F.
 AO basis set in the form of general basis input (Overlap normalization):
      1 0
 S   6 1.00       0.000000000000
      0.5484671660D+04  0.1831074430D-02
      0.8252349460D+03  0.1395017220D-01
      0.1880469580D+03  0.6844507810D-01
      0.5296450000D+02  0.2327143360D+00
      0.1689757040D+02  0.4701928980D+00
      0.5799635340D+01  0.3585208530D+00
 SP   3 1.00       0.000000000000
      0.1553961625D+02 -0.1107775495D+00  0.7087426823D-01
      0.3599933586D+01 -0.1480262627D+00  0.3397528391D+00
      0.1013761750D+01  0.1130767015D+01  0.7271585773D+00
 SP   1 1.00       0.000000000000
      0.2700058226D+00  0.1000000000D+01  0.1000000000D+01
 D   1 1.00       0.000000000000
      0.8000000000D+00  0.1000000000D+01
 ****
      2 0
 S   3 1.00       0.000000000000
      0.1873113696D+02  0.3349460434D-01
      0.2825394365D+01  0.2347269535D+00
      0.6401216923D+00  0.8137573261D+00
 S   1 1.00       0.000000000000
      0.1612777588D+00  0.1000000000D+01
 ****
      3 0
 S   6 1.00       0.000000000000
      0.3047524880D+04  0.1834737132D-02
      0.4573695180D+03  0.1403732281D-01
      0.1039486850D+03  0.6884262226D-01
      0.2921015530D+02  0.2321844432D+00
      0.9286662960D+01  0.4679413484D+00
      0.3163926960D+01  0.3623119853D+00
 SP   3 1.00       0.000000000000
      0.7868272350D+01 -0.1193324198D+00  0.6899906659D-01
      0.1881288540D+01 -0.1608541517D+00  0.3164239610D+00
      0.5442492580D+00  0.1143456438D+01  0.7443082909D+00
 SP   1 1.00       0.000000000000
      0.1687144782D+00  0.1000000000D+01  0.1000000000D+01
 D   1 1.00       0.000000000000
      0.8000000000D+00  0.1000000000D+01
 ****
      4 0
 S   6 1.00       0.000000000000
      0.3047524880D+04  0.1834737132D-02
      0.4573695180D+03  0.1403732281D-01
      0.1039486850D+03  0.6884262226D-01
      0.2921015530D+02  0.2321844432D+00
      0.9286662960D+01  0.4679413484D+00
      0.3163926960D+01  0.3623119853D+00
 SP   3 1.00       0.000000000000
      0.7868272350D+01 -0.1193324198D+00  0.6899906659D-01
      0.1881288540D+01 -0.1608541517D+00  0.3164239610D+00
      0.5442492580D+00  0.1143456438D+01  0.7443082909D+00
 SP   1 1.00       0.000000000000
      0.1687144782D+00  0.1000000000D+01  0.1000000000D+01
 D   1 1.00       0.000000000000
      0.8000000000D+00  0.1000000000D+01
 ****
      5 0
 S   3 1.00       0.000000000000
      0.1873113696D+02  0.3349460434D-01
      0.2825394365D+01  0.2347269535D+00
      0.6401216923D+00  0.8137573261D+00
 S   1 1.00       0.000000000000
      0.1612777588D+00  0.1000000000D+01
 ****
      6 0
 S   6 1.00       0.000000000000
      0.3047524880D+04  0.1834737132D-02
      0.4573695180D+03  0.1403732281D-01
      0.1039486850D+03  0.6884262226D-01
      0.2921015530D+02  0.2321844432D+00
      0.9286662960D+01  0.4679413484D+00
      0.3163926960D+01  0.3623119853D+00
 SP   3 1.00       0.000000000000
      0.7868272350D+01 -0.1193324198D+00  0.6899906659D-01
      0.1881288540D+01 -0.1608541517D+00  0.3164239610D+00
      0.5442492580D+00  0.1143456438D+01  0.7443082909D+00
 SP   1 1.00       0.000000000000
      0.1687144782D+00  0.1000000000D+01  0.1000000000D+01
 D   1 1.00       0.000000000000
      0.8000000000D+00  0.1000000000D+01
 ****
      7 0
 S   3 1.00       0.000000000000
      0.1873113696D+02  0.3349460434D-01
      0.2825394365D+01  0.2347269535D+00
      0.6401216923D+00  0.8137573261D+00
 S   1 1.00       0.000000000000
      0.1612777588D+00  0.1000000000D+01
 ****
      8 0
 S   6 1.00       0.000000000000
      0.3047524880D+04  0.1834737132D-02
      0.4573695180D+03  0.1403732281D-01
      0.1039486850D+03  0.6884262226D-01
      0.2921015530D+02  0.2321844432D+00
      0.9286662960D+01  0.4679413484D+00
      0.3163926960D+01  0.3623119853D+00
 SP   3 1.00       0.000000000000
      0.7868272350D+01 -0.1193324198D+00  0.6899906659D-01
      0.1881288540D+01 -0.1608541517D+00  0.3164239610D+00
      0.5442492580D+00  0.1143456438D+01  0.7443082909D+00
 SP   1 1.00       0.000000000000
      0.1687144782D+00  0.1000000000D+01  0.1000000000D+01
 D   1 1.00       0.000000000000
      0.8000000000D+00  0.1000000000D+01
 ****
      9 0
 S   3 1.00       0.000000000000
      0.1873113696D+02  0.3349460434D-01
      0.2825394365D+01  0.2347269535D+00
      0.6401216923D+00  0.8137573261D+00
 S   1 1.00       0.000000000000
      0.1612777588D+00  0.1000000000D+01
 ****
     10 0
 S   6 1.00       0.000000000000
      0.3047524880D+04  0.1834737132D-02
      0.4573695180D+03  0.1403732281D-01
      0.1039486850D+03  0.6884262226D-01
      0.2921015530D+02  0.2321844432D+00
      0.9286662960D+01  0.4679413484D+00
      0.3163926960D+01  0.3623119853D+00
 SP   3 1.00       0.000000000000
      0.7868272350D+01 -0.1193324198D+00  0.6899906659D-01
      0.1881288540D+01 -0.1608541517D+00  0.3164239610D+00
      0.5442492580D+00  0.1143456438D+01  0.7443082909D+00
 SP   1 1.00       0.000000000000
      0.1687144782D+00  0.1000000000D+01  0.1000000000D+01
 D   1 1.00       0.000000000000
      0.8000000000D+00  0.1000000000D+01
 ****
     11 0
 S   3 1.00       0.000000000000
      0.1873113696D+02  0.3349460434D-01
      0.2825394365D+01  0.2347269535D+00
      0.6401216923D+00  0.8137573261D+00
 S   1 1.00       0.000000000000
      0.1612777588D+00  0.1000000000D+01
 ****
     12 0
 S   6 1.00       0.000000000000
      0.3047524880D+04  0.1834737132D-02
      0.4573695180D+03  0.1403732281D-01
      0.1039486850D+03  0.6884262226D-01
      0.2921015530D+02  0.2321844432D+00
      0.9286662960D+01  0.4679413484D+00
      0.3163926960D+01  0.3623119853D+00
 SP   3 1.00       0.000000000000
      0.7868272350D+01 -0.1193324198D+00  0.6899906659D-01
      0.1881288540D+01 -0.1608541517D+00  0.3164239610D+00
      0.5442492580D+00  0.1143456438D+01  0.7443082909D+00
 SP   1 1.00       0.000000000000
      0.1687144782D+00  0.1000000000D+01  0.1000000000D+01
 D   1 1.00       0.000000000000
      0.8000000000D+00  0.1000000000D+01
 ****
     13 0
 S   3 1.00       0.000000000000
      0.1873113696D+02  0.3349460434D-01
      0.2825394365D+01  0.2347269535D+00
      0.6401216923D+00  0.8137573261D+00
 S   1 1.00       0.000000000000
      0.1612777588D+00  0.1000000000D+01
 ****
     14 0
 S   3 1.00       0.000000000000
      0.1873113696D+02  0.3349460434D-01
      0.2825394365D+01  0.2347269535D+00
      0.6401216923D+00  0.8137573261D+00
 S   1 1.00       0.000000000000
      0.1612777588D+00  0.1000000000D+01
 ****
     15 0
 S   6 1.00       0.000000000000
      0.3047524880D+04  0.1834737132D-02
      0.4573695180D+03  0.1403732281D-01
      0.1039486850D+03  0.6884262226D-01
      0.2921015530D+02  0.2321844432D+00
      0.9286662960D+01  0.4679413484D+00
      0.3163926960D+01  0.3623119853D+00
 SP   3 1.00       0.000000000000
      0.7868272350D+01 -0.1193324198D+00  0.6899906659D-01
      0.1881288540D+01 -0.1608541517D+00  0.3164239610D+00
      0.5442492580D+00  0.1143456438D+01  0.7443082909D+00
 SP   1 1.00       0.000000000000
      0.1687144782D+00  0.1000000000D+01  0.1000000000D+01
 D   1 1.00       0.000000000000
      0.8000000000D+00  0.1000000000D+01
 ****
     16 0
 S   6 1.00       0.000000000000
      0.3047524880D+04  0.1834737132D-02
      0.4573695180D+03  0.1403732281D-01
      0.1039486850D+03  0.6884262226D-01
      0.2921015530D+02  0.2321844432D+00
      0.9286662960D+01  0.4679413484D+00
      0.3163926960D+01  0.3623119853D+00
 SP   3 1.00       0.000000000000
      0.7868272350D+01 -0.1193324198D+00  0.6899906659D-01
      0.1881288540D+01 -0.1608541517D+00  0.3164239610D+00
      0.5442492580D+00  0.1143456438D+01  0.7443082909D+00
 SP   1 1.00       0.000000000000
      0.1687144782D+00  0.1000000000D+01  0.1000000000D+01
 D   1 1.00       0.000000000000
      0.8000000000D+00  0.1000000000D+01
 ****
     17 0
 S   3 1.00       0.000000000000
      0.1873113696D+02  0.3349460434D-01
      0.2825394365D+01  0.2347269535D+00
      0.6401216923D+00  0.8137573261D+00
 S   1 1.00       0.000000000000
      0.1612777588D+00  0.1000000000D+01
 ****
     18 0
 S   3 1.00       0.000000000000
      0.1873113696D+02  0.3349460434D-01
      0.2825394365D+01  0.2347269535D+00
      0.6401216923D+00  0.8137573261D+00
 S   1 1.00       0.000000000000
      0.1612777588D+00  0.1000000000D+01
 ****
     19 0
 S   6 1.00       0.000000000000
      0.3047524880D+04  0.1834737132D-02
      0.4573695180D+03  0.1403732281D-01
      0.1039486850D+03  0.6884262226D-01
      0.2921015530D+02  0.2321844432D+00
      0.9286662960D+01  0.4679413484D+00
      0.3163926960D+01  0.3623119853D+00
 SP   3 1.00       0.000000000000
      0.7868272350D+01 -0.1193324198D+00  0.6899906659D-01
      0.1881288540D+01 -0.1608541517D+00  0.3164239610D+00
      0.5442492580D+00  0.1143456438D+01  0.7443082909D+00
 SP   1 1.00       0.000000000000
      0.1687144782D+00  0.1000000000D+01  0.1000000000D+01
 D   1 1.00       0.000000000000
      0.8000000000D+00  0.1000000000D+01
 ****
     20 0
 S   3 1.00       0.000000000000
      0.1873113696D+02  0.3349460434D-01
      0.2825394365D+01  0.2347269535D+00
      0.6401216923D+00  0.8137573261D+00
 S   1 1.00       0.000000000000
      0.1612777588D+00  0.1000000000D+01
 ****
     21 0
 S   3 1.00       0.000000000000
      0.1873113696D+02  0.3349460434D-01
      0.2825394365D+01  0.2347269535D+00
      0.6401216923D+00  0.8137573261D+00
 S   1 1.00       0.000000000000
      0.1612777588D+00  0.1000000000D+01
 ****
     22 0
 S   6 1.00       0.000000000000
      0.3047524880D+04  0.1834737132D-02
      0.4573695180D+03  0.1403732281D-01
      0.1039486850D+03  0.6884262226D-01
      0.2921015530D+02  0.2321844432D+00
      0.9286662960D+01  0.4679413484D+00
      0.3163926960D+01  0.3623119853D+00
 SP   3 1.00       0.000000000000
      0.7868272350D+01 -0.1193324198D+00  0.6899906659D-01
      0.1881288540D+01 -0.1608541517D+00  0.3164239610D+00
      0.5442492580D+00  0.1143456438D+01  0.7443082909D+00
 SP   1 1.00       0.000000000000
      0.1687144782D+00  0.1000000000D+01  0.1000000000D+01
 D   1 1.00       0.000000000000
      0.8000000000D+00  0.1000000000D+01
 ****
     23 0
 S   3 1.00       0.000000000000
      0.1873113696D+02  0.3349460434D-01
      0.2825394365D+01  0.2347269535D+00
      0.6401216923D+00  0.8137573261D+00
 S   1 1.00       0.000000000000
      0.1612777588D+00  0.1000000000D+01
 ****
     24 0
 S   3 1.00       0.000000000000
      0.1873113696D+02  0.3349460434D-01
      0.2825394365D+01  0.2347269535D+00
      0.6401216923D+00  0.8137573261D+00
 S   1 1.00       0.000000000000
      0.1612777588D+00  0.1000000000D+01
 ****
     25 0
 S   6 1.00       0.000000000000
      0.3047524880D+04  0.1834737132D-02
      0.4573695180D+03  0.1403732281D-01
      0.1039486850D+03  0.6884262226D-01
      0.2921015530D+02  0.2321844432D+00
      0.9286662960D+01  0.4679413484D+00
      0.3163926960D+01  0.3623119853D+00
 SP   3 1.00       0.000000000000
      0.7868272350D+01 -0.1193324198D+00  0.6899906659D-01
      0.1881288540D+01 -0.1608541517D+00  0.3164239610D+00
      0.5442492580D+00  0.1143456438D+01  0.7443082909D+00
 SP   1 1.00       0.000000000000
      0.1687144782D+00  0.1000000000D+01  0.1000000000D+01
 D   1 1.00       0.000000000000
      0.8000000000D+00  0.1000000000D+01
 ****
     26 0
 S   3 1.00       0.000000000000
      0.1873113696D+02  0.3349460434D-01
      0.2825394365D+01  0.2347269535D+00
      0.6401216923D+00  0.8137573261D+00
 S   1 1.00       0.000000000000
      0.1612777588D+00  0.1000000000D+01
 ****
     27 0
 S   3 1.00       0.000000000000
      0.1873113696D+02  0.3349460434D-01
      0.2825394365D+01  0.2347269535D+00
      0.6401216923D+00  0.8137573261D+00
 S   1 1.00       0.000000000000
      0.1612777588D+00  0.1000000000D+01
 ****
     28 0
 S   6 1.00       0.000000000000
      0.3047524880D+04  0.1834737132D-02
      0.4573695180D+03  0.1403732281D-01
      0.1039486850D+03  0.6884262226D-01
      0.2921015530D+02  0.2321844432D+00
      0.9286662960D+01  0.4679413484D+00
      0.3163926960D+01  0.3623119853D+00
 SP   3 1.00       0.000000000000
      0.7868272350D+01 -0.1193324198D+00  0.6899906659D-01
      0.1881288540D+01 -0.1608541517D+00  0.3164239610D+00
      0.5442492580D+00  0.1143456438D+01  0.7443082909D+00
 SP   1 1.00       0.000000000000
      0.1687144782D+00  0.1000000000D+01  0.1000000000D+01
 D   1 1.00       0.000000000000
      0.8000000000D+00  0.1000000000D+01
 ****
     29 0
 S   3 1.00       0.000000000000
      0.1873113696D+02  0.3349460434D-01
      0.2825394365D+01  0.2347269535D+00
      0.6401216923D+00  0.8137573261D+00
 S   1 1.00       0.000000000000
      0.1612777588D+00  0.1000000000D+01
 ****
     30 0
 S   6 1.00       0.000000000000
      0.3047524880D+04  0.1834737132D-02
      0.4573695180D+03  0.1403732281D-01
      0.1039486850D+03  0.6884262226D-01
      0.2921015530D+02  0.2321844432D+00
      0.9286662960D+01  0.4679413484D+00
      0.3163926960D+01  0.3623119853D+00
 SP   3 1.00       0.000000000000
      0.7868272350D+01 -0.1193324198D+00  0.6899906659D-01
      0.1881288540D+01 -0.1608541517D+00  0.3164239610D+00
      0.5442492580D+00  0.1143456438D+01  0.7443082909D+00
 SP   1 1.00       0.000000000000
      0.1687144782D+00  0.1000000000D+01  0.1000000000D+01
 D   1 1.00       0.000000000000
      0.8000000000D+00  0.1000000000D+01
 ****
     31 0
 S   3 1.00       0.000000000000
      0.1873113696D+02  0.3349460434D-01
      0.2825394365D+01  0.2347269535D+00
      0.6401216923D+00  0.8137573261D+00
 S   1 1.00       0.000000000000
      0.1612777588D+00  0.1000000000D+01
 ****
     32 0
 S   3 1.00       0.000000000000
      0.1873113696D+02  0.3349460434D-01
      0.2825394365D+01  0.2347269535D+00
      0.6401216923D+00  0.8137573261D+00
 S   1 1.00       0.000000000000
      0.1612777588D+00  0.1000000000D+01
 ****
     33 0
 S   3 1.00       0.000000000000
      0.1873113696D+02  0.3349460434D-01
      0.2825394365D+01  0.2347269535D+00
      0.6401216923D+00  0.8137573261D+00
 S   1 1.00       0.000000000000
      0.1612777588D+00  0.1000000000D+01
 ****
     34 0
 S   6 1.00       0.000000000000
      0.3047524880D+04  0.1834737132D-02
      0.4573695180D+03  0.1403732281D-01
      0.1039486850D+03  0.6884262226D-01
      0.2921015530D+02  0.2321844432D+00
      0.9286662960D+01  0.4679413484D+00
      0.3163926960D+01  0.3623119853D+00
 SP   3 1.00       0.000000000000
      0.7868272350D+01 -0.1193324198D+00  0.6899906659D-01
      0.1881288540D+01 -0.1608541517D+00  0.3164239610D+00
      0.5442492580D+00  0.1143456438D+01  0.7443082909D+00
 SP   1 1.00       0.000000000000
      0.1687144782D+00  0.1000000000D+01  0.1000000000D+01
 D   1 1.00       0.000000000000
      0.8000000000D+00  0.1000000000D+01
 ****
     35 0
 S   6 1.00       0.000000000000
      0.3047524880D+04  0.1834737132D-02
      0.4573695180D+03  0.1403732281D-01
      0.1039486850D+03  0.6884262226D-01
      0.2921015530D+02  0.2321844432D+00
      0.9286662960D+01  0.4679413484D+00
      0.3163926960D+01  0.3623119853D+00
 SP   3 1.00       0.000000000000
      0.7868272350D+01 -0.1193324198D+00  0.6899906659D-01
      0.1881288540D+01 -0.1608541517D+00  0.3164239610D+00
      0.5442492580D+00  0.1143456438D+01  0.7443082909D+00
 SP   1 1.00       0.000000000000
      0.1687144782D+00  0.1000000000D+01  0.1000000000D+01
 D   1 1.00       0.000000000000
      0.8000000000D+00  0.1000000000D+01
 ****
     36 0
 S   3 1.00       0.000000000000
      0.1873113696D+02  0.3349460434D-01
      0.2825394365D+01  0.2347269535D+00
      0.6401216923D+00  0.8137573261D+00
 S   1 1.00       0.000000000000
      0.1612777588D+00  0.1000000000D+01
 ****
     37 0
 S   3 1.00       0.000000000000
      0.1873113696D+02  0.3349460434D-01
      0.2825394365D+01  0.2347269535D+00
      0.6401216923D+00  0.8137573261D+00
 S   1 1.00       0.000000000000
      0.1612777588D+00  0.1000000000D+01
 ****
     38 0
 S   6 1.00       0.000000000000
      0.3047524880D+04  0.1834737132D-02
      0.4573695180D+03  0.1403732281D-01
      0.1039486850D+03  0.6884262226D-01
      0.2921015530D+02  0.2321844432D+00
      0.9286662960D+01  0.4679413484D+00
      0.3163926960D+01  0.3623119853D+00
 SP   3 1.00       0.000000000000
      0.7868272350D+01 -0.1193324198D+00  0.6899906659D-01
      0.1881288540D+01 -0.1608541517D+00  0.3164239610D+00
      0.5442492580D+00  0.1143456438D+01  0.7443082909D+00
 SP   1 1.00       0.000000000000
      0.1687144782D+00  0.1000000000D+01  0.1000000000D+01
 D   1 1.00       0.000000000000
      0.8000000000D+00  0.1000000000D+01
 ****
     39 0
 S   3 1.00       0.000000000000
      0.1873113696D+02  0.3349460434D-01
      0.2825394365D+01  0.2347269535D+00
      0.6401216923D+00  0.8137573261D+00
 S   1 1.00       0.000000000000
      0.1612777588D+00  0.1000000000D+01
 ****
     40 0
 S   6 1.00       0.000000000000
      0.3047524880D+04  0.1834737132D-02
      0.4573695180D+03  0.1403732281D-01
      0.1039486850D+03  0.6884262226D-01
      0.2921015530D+02  0.2321844432D+00
      0.9286662960D+01  0.4679413484D+00
      0.3163926960D+01  0.3623119853D+00
 SP   3 1.00       0.000000000000
      0.7868272350D+01 -0.1193324198D+00  0.6899906659D-01
      0.1881288540D+01 -0.1608541517D+00  0.3164239610D+00
      0.5442492580D+00  0.1143456438D+01  0.7443082909D+00
 SP   1 1.00       0.000000000000
      0.1687144782D+00  0.1000000000D+01  0.1000000000D+01
 D   1 1.00       0.000000000000
      0.8000000000D+00  0.1000000000D+01
 ****
     41 0
 S   3 1.00       0.000000000000
      0.1873113696D+02  0.3349460434D-01
      0.2825394365D+01  0.2347269535D+00
      0.6401216923D+00  0.8137573261D+00
 S   1 1.00       0.000000000000
      0.1612777588D+00  0.1000000000D+01
 ****
     42 0
 S   3 1.00       0.000000000000
      0.1873113696D+02  0.3349460434D-01
      0.2825394365D+01  0.2347269535D+00
      0.6401216923D+00  0.8137573261D+00
 S   1 1.00       0.000000000000
      0.1612777588D+00  0.1000000000D+01
 ****
     43 0
 S   3 1.00       0.000000000000
      0.1873113696D+02  0.3349460434D-01
      0.2825394365D+01  0.2347269535D+00
      0.6401216923D+00  0.8137573261D+00
 S   1 1.00       0.000000000000
      0.1612777588D+00  0.1000000000D+01
 ****
     44 0
 S   6 1.00       0.000000000000
      0.3047524880D+04  0.1834737132D-02
      0.4573695180D+03  0.1403732281D-01
      0.1039486850D+03  0.6884262226D-01
      0.2921015530D+02  0.2321844432D+00
      0.9286662960D+01  0.4679413484D+00
      0.3163926960D+01  0.3623119853D+00
 SP   3 1.00       0.000000000000
      0.7868272350D+01 -0.1193324198D+00  0.6899906659D-01
      0.1881288540D+01 -0.1608541517D+00  0.3164239610D+00
      0.5442492580D+00  0.1143456438D+01  0.7443082909D+00
 SP   1 1.00       0.000000000000
      0.1687144782D+00  0.1000000000D+01  0.1000000000D+01
 D   1 1.00       0.000000000000
      0.8000000000D+00  0.1000000000D+01
 ****
     45 0
 S   3 1.00       0.000000000000
      0.1873113696D+02  0.3349460434D-01
      0.2825394365D+01  0.2347269535D+00
      0.6401216923D+00  0.8137573261D+00
 S   1 1.00       0.000000000000
      0.1612777588D+00  0.1000000000D+01
 ****
     46 0
 S   3 1.00       0.000000000000
      0.1873113696D+02  0.3349460434D-01
      0.2825394365D+01  0.2347269535D+00
      0.6401216923D+00  0.8137573261D+00
 S   1 1.00       0.000000000000
      0.1612777588D+00  0.1000000000D+01
 ****
     47 0
 S   6 1.00       0.000000000000
      0.3047524880D+04  0.1834737132D-02
      0.4573695180D+03  0.1403732281D-01
      0.1039486850D+03  0.6884262226D-01
      0.2921015530D+02  0.2321844432D+00
      0.9286662960D+01  0.4679413484D+00
      0.3163926960D+01  0.3623119853D+00
 SP   3 1.00       0.000000000000
      0.7868272350D+01 -0.1193324198D+00  0.6899906659D-01
      0.1881288540D+01 -0.1608541517D+00  0.3164239610D+00
      0.5442492580D+00  0.1143456438D+01  0.7443082909D+00
 SP   1 1.00       0.000000000000
      0.1687144782D+00  0.1000000000D+01  0.1000000000D+01
 D   1 1.00       0.000000000000
      0.8000000000D+00  0.1000000000D+01
 ****
     48 0
 S   3 1.00       0.000000000000
      0.1873113696D+02  0.3349460434D-01
      0.2825394365D+01  0.2347269535D+00
      0.6401216923D+00  0.8137573261D+00
 S   1 1.00       0.000000000000
      0.1612777588D+00  0.1000000000D+01
 ****
     49 0
 S   3 1.00       0.000000000000
      0.1873113696D+02  0.3349460434D-01
      0.2825394365D+01  0.2347269535D+00
      0.6401216923D+00  0.8137573261D+00
 S   1 1.00       0.000000000000
      0.1612777588D+00  0.1000000000D+01
 ****
     50 0
 S   6 1.00       0.000000000000
      0.3047524880D+04  0.1834737132D-02
      0.4573695180D+03  0.1403732281D-01
      0.1039486850D+03  0.6884262226D-01
      0.2921015530D+02  0.2321844432D+00
      0.9286662960D+01  0.4679413484D+00
      0.3163926960D+01  0.3623119853D+00
 SP   3 1.00       0.000000000000
      0.7868272350D+01 -0.1193324198D+00  0.6899906659D-01
      0.1881288540D+01 -0.1608541517D+00  0.3164239610D+00
      0.5442492580D+00  0.1143456438D+01  0.7443082909D+00
 SP   1 1.00       0.000000000000
      0.1687144782D+00  0.1000000000D+01  0.1000000000D+01
 D   1 1.00       0.000000000000
      0.8000000000D+00  0.1000000000D+01
 ****
     51 0
 S   3 1.00       0.000000000000
      0.1873113696D+02  0.3349460434D-01
      0.2825394365D+01  0.2347269535D+00
      0.6401216923D+00  0.8137573261D+00
 S   1 1.00       0.000000000000
      0.1612777588D+00  0.1000000000D+01
 ****
     52 0
 S   3 1.00       0.000000000000
      0.1873113696D+02  0.3349460434D-01
      0.2825394365D+01  0.2347269535D+00
      0.6401216923D+00  0.8137573261D+00
 S   1 1.00       0.000000000000
      0.1612777588D+00  0.1000000000D+01
 ****
     53 0
 S   6 1.00       0.000000000000
      0.3047524880D+04  0.1834737132D-02
      0.4573695180D+03  0.1403732281D-01
      0.1039486850D+03  0.6884262226D-01
      0.2921015530D+02  0.2321844432D+00
      0.9286662960D+01  0.4679413484D+00
      0.3163926960D+01  0.3623119853D+00
 SP   3 1.00       0.000000000000
      0.7868272350D+01 -0.1193324198D+00  0.6899906659D-01
      0.1881288540D+01 -0.1608541517D+00  0.3164239610D+00
      0.5442492580D+00  0.1143456438D+01  0.7443082909D+00
 SP   1 1.00       0.000000000000
      0.1687144782D+00  0.1000000000D+01  0.1000000000D+01
 D   1 1.00       0.000000000000
      0.8000000000D+00  0.1000000000D+01
 ****
     54 0
 S   3 1.00       0.000000000000
      0.1873113696D+02  0.3349460434D-01
      0.2825394365D+01  0.2347269535D+00
      0.6401216923D+00  0.8137573261D+00
 S   1 1.00       0.000000000000
      0.1612777588D+00  0.1000000000D+01
 ****
     55 0
 S   6 1.00       0.000000000000
      0.3047524880D+04  0.1834737132D-02
      0.4573695180D+03  0.1403732281D-01
      0.1039486850D+03  0.6884262226D-01
      0.2921015530D+02  0.2321844432D+00
      0.9286662960D+01  0.4679413484D+00
      0.3163926960D+01  0.3623119853D+00
 SP   3 1.00       0.000000000000
      0.7868272350D+01 -0.1193324198D+00  0.6899906659D-01
      0.1881288540D+01 -0.1608541517D+00  0.3164239610D+00
      0.5442492580D+00  0.1143456438D+01  0.7443082909D+00
 SP   1 1.00       0.000000000000
      0.1687144782D+00  0.1000000000D+01  0.1000000000D+01
 D   1 1.00       0.000000000000
      0.8000000000D+00  0.1000000000D+01
 ****
     56 0
 S   3 1.00       0.000000000000
      0.1873113696D+02  0.3349460434D-01
      0.2825394365D+01  0.2347269535D+00
      0.6401216923D+00  0.8137573261D+00
 S   1 1.00       0.000000000000
      0.1612777588D+00  0.1000000000D+01
 ****
     57 0
 S   3 1.00       0.000000000000
      0.1873113696D+02  0.3349460434D-01
      0.2825394365D+01  0.2347269535D+00
      0.6401216923D+00  0.8137573261D+00
 S   1 1.00       0.000000000000
      0.1612777588D+00  0.1000000000D+01
 ****
     58 0
 S   3 1.00       0.000000000000
      0.1873113696D+02  0.3349460434D-01
      0.2825394365D+01  0.2347269535D+00
      0.6401216923D+00  0.8137573261D+00
 S   1 1.00       0.000000000000
      0.1612777588D+00  0.1000000000D+01
 ****
     59 0
 S   6 1.00       0.000000000000
      0.3047524880D+04  0.1834737132D-02
      0.4573695180D+03  0.1403732281D-01
      0.1039486850D+03  0.6884262226D-01
      0.2921015530D+02  0.2321844432D+00
      0.9286662960D+01  0.4679413484D+00
      0.3163926960D+01  0.3623119853D+00
 SP   3 1.00       0.000000000000
      0.7868272350D+01 -0.1193324198D+00  0.6899906659D-01
      0.1881288540D+01 -0.1608541517D+00  0.3164239610D+00
      0.5442492580D+00  0.1143456438D+01  0.7443082909D+00
 SP   1 1.00       0.000000000000
      0.1687144782D+00  0.1000000000D+01  0.1000000000D+01
 D   1 1.00       0.000000000000
      0.8000000000D+00  0.1000000000D+01
 ****
     60 0
 S   3 1.00       0.000000000000
      0.1873113696D+02  0.3349460434D-01
      0.2825394365D+01  0.2347269535D+00
      0.6401216923D+00  0.8137573261D+00
 S   1 1.00       0.000000000000
      0.1612777588D+00  0.1000000000D+01
 ****
     61 0
 S   3 1.00       0.000000000000
      0.1873113696D+02  0.3349460434D-01
      0.2825394365D+01  0.2347269535D+00
      0.6401216923D+00  0.8137573261D+00
 S   1 1.00       0.000000000000
      0.1612777588D+00  0.1000000000D+01
 ****
     62 0
 S   6 1.00       0.000000000000
      0.3047524880D+04  0.1834737132D-02
      0.4573695180D+03  0.1403732281D-01
      0.1039486850D+03  0.6884262226D-01
      0.2921015530D+02  0.2321844432D+00
      0.9286662960D+01  0.4679413484D+00
      0.3163926960D+01  0.3623119853D+00
 SP   3 1.00       0.000000000000
      0.7868272350D+01 -0.1193324198D+00  0.6899906659D-01
      0.1881288540D+01 -0.1608541517D+00  0.3164239610D+00
      0.5442492580D+00  0.1143456438D+01  0.7443082909D+00
 SP   1 1.00       0.000000000000
      0.1687144782D+00  0.1000000000D+01  0.1000000000D+01
 D   1 1.00       0.000000000000
      0.8000000000D+00  0.1000000000D+01
 ****
     63 0
 S   3 1.00       0.000000000000
      0.1873113696D+02  0.3349460434D-01
      0.2825394365D+01  0.2347269535D+00
      0.6401216923D+00  0.8137573261D+00
 S   1 1.00       0.000000000000
      0.1612777588D+00  0.1000000000D+01
 ****
     64 0
 S   3 1.00       0.000000000000
      0.1873113696D+02  0.3349460434D-01
      0.2825394365D+01  0.2347269535D+00
      0.6401216923D+00  0.8137573261D+00
 S   1 1.00       0.000000000000
      0.1612777588D+00  0.1000000000D+01
 ****
     65 0
 S   6 1.00       0.000000000000
      0.3047524880D+04  0.1834737132D-02
      0.4573695180D+03  0.1403732281D-01
      0.1039486850D+03  0.6884262226D-01
      0.2921015530D+02  0.2321844432D+00
      0.9286662960D+01  0.4679413484D+00
      0.3163926960D+01  0.3623119853D+00
 SP   3 1.00       0.000000000000
      0.7868272350D+01 -0.1193324198D+00  0.6899906659D-01
      0.1881288540D+01 -0.1608541517D+00  0.3164239610D+00
      0.5442492580D+00  0.1143456438D+01  0.7443082909D+00
 SP   1 1.00       0.000000000000
      0.1687144782D+00  0.1000000000D+01  0.1000000000D+01
 D   1 1.00       0.000000000000
      0.8000000000D+00  0.1000000000D+01
 ****
     66 0
 S   3 1.00       0.000000000000
      0.1873113696D+02  0.3349460434D-01
      0.2825394365D+01  0.2347269535D+00
      0.6401216923D+00  0.8137573261D+00
 S   1 1.00       0.000000000000
      0.1612777588D+00  0.1000000000D+01
 ****
     67 0
 S   6 1.00       0.000000000000
      0.3047524880D+04  0.1834737132D-02
      0.4573695180D+03  0.1403732281D-01
      0.1039486850D+03  0.6884262226D-01
      0.2921015530D+02  0.2321844432D+00
      0.9286662960D+01  0.4679413484D+00
      0.3163926960D+01  0.3623119853D+00
 SP   3 1.00       0.000000000000
      0.7868272350D+01 -0.1193324198D+00  0.6899906659D-01
      0.1881288540D+01 -0.1608541517D+00  0.3164239610D+00
      0.5442492580D+00  0.1143456438D+01  0.7443082909D+00
 SP   1 1.00       0.000000000000
      0.1687144782D+00  0.1000000000D+01  0.1000000000D+01
 D   1 1.00       0.000000000000
      0.8000000000D+00  0.1000000000D+01
 ****
     68 0
 S   3 1.00       0.000000000000
      0.1873113696D+02  0.3349460434D-01
      0.2825394365D+01  0.2347269535D+00
      0.6401216923D+00  0.8137573261D+00
 S   1 1.00       0.000000000000
      0.1612777588D+00  0.1000000000D+01
 ****
     69 0
 S   3 1.00       0.000000000000
      0.1873113696D+02  0.3349460434D-01
      0.2825394365D+01  0.2347269535D+00
      0.6401216923D+00  0.8137573261D+00
 S   1 1.00       0.000000000000
      0.1612777588D+00  0.1000000000D+01
 ****
     70 0
 S   3 1.00       0.000000000000
      0.1873113696D+02  0.3349460434D-01
      0.2825394365D+01  0.2347269535D+00
      0.6401216923D+00  0.8137573261D+00
 S   1 1.00       0.000000000000
      0.1612777588D+00  0.1000000000D+01
 ****
     71 0
 S   6 1.00       0.000000000000
      0.3047524880D+04  0.1834737132D-02
      0.4573695180D+03  0.1403732281D-01
      0.1039486850D+03  0.6884262226D-01
      0.2921015530D+02  0.2321844432D+00
      0.9286662960D+01  0.4679413484D+00
      0.3163926960D+01  0.3623119853D+00
 SP   3 1.00       0.000000000000
      0.7868272350D+01 -0.1193324198D+00  0.6899906659D-01
      0.1881288540D+01 -0.1608541517D+00  0.3164239610D+00
      0.5442492580D+00  0.1143456438D+01  0.7443082909D+00
 SP   1 1.00       0.000000000000
      0.1687144782D+00  0.1000000000D+01  0.1000000000D+01
 D   1 1.00       0.000000000000
      0.8000000000D+00  0.1000000000D+01
 ****
     72 0
 S   3 1.00       0.000000000000
      0.1873113696D+02  0.3349460434D-01
      0.2825394365D+01  0.2347269535D+00
      0.6401216923D+00  0.8137573261D+00
 S   1 1.00       0.000000000000
      0.1612777588D+00  0.1000000000D+01
 ****
     73 0
 S   3 1.00       0.000000000000
      0.1873113696D+02  0.3349460434D-01
      0.2825394365D+01  0.2347269535D+00
      0.6401216923D+00  0.8137573261D+00
 S   1 1.00       0.000000000000
      0.1612777588D+00  0.1000000000D+01
 ****
     74 0
 S   3 1.00       0.000000000000
      0.1873113696D+02  0.3349460434D-01
      0.2825394365D+01  0.2347269535D+00
      0.6401216923D+00  0.8137573261D+00
 S   1 1.00       0.000000000000
      0.1612777588D+00  0.1000000000D+01
 ****

 AO basis set (Overlap normalization):
 Atom O1       Shell     1 S   6     bf    1 -     1          9.437867483574         -0.485332107716        -13.712564283210
      0.5484671660D+04  0.1831074430D-02
      0.8252349460D+03  0.1395017220D-01
      0.1880469580D+03  0.6844507810D-01
      0.5296450000D+02  0.2327143360D+00
      0.1689757040D+02  0.4701928980D+00
      0.5799635340D+01  0.3585208530D+00
 Atom O1       Shell     2 SP   3    bf    2 -     5          9.437867483574         -0.485332107716        -13.712564283210
      0.1553961625D+02 -0.1107775495D+00  0.7087426823D-01
      0.3599933586D+01 -0.1480262627D+00  0.3397528391D+00
      0.1013761750D+01  0.1130767015D+01  0.7271585773D+00
 Atom O1       Shell     3 SP   1    bf    6 -     9          9.437867483574         -0.485332107716        -13.712564283210
      0.2700058226D+00  0.1000000000D+01  0.1000000000D+01
 Atom O1       Shell     4 D   1     bf   10 -    15          9.437867483574         -0.485332107716        -13.712564283210
      0.8000000000D+00  0.1000000000D+01
 Atom H2       Shell     5 S   3     bf   16 -    16         11.235805366302         -0.648720455884        -13.437084391723
      0.1873113696D+02  0.3349460434D-01
      0.2825394365D+01  0.2347269535D+00
      0.6401216923D+00  0.8137573261D+00
 Atom H2       Shell     6 S   1     bf   17 -    17         11.235805366302         -0.648720455884        -13.437084391723
      0.1612777588D+00  0.1000000000D+01
 Atom C3       Shell     7 S   6     bf   18 -    18          0.000000000000          0.000000000000          0.000000000000
      0.3047524880D+04  0.1834737132D-02
      0.4573695180D+03  0.1403732281D-01
      0.1039486850D+03  0.6884262226D-01
      0.2921015530D+02  0.2321844432D+00
      0.9286662960D+01  0.4679413484D+00
      0.3163926960D+01  0.3623119853D+00
 Atom C3       Shell     8 SP   3    bf   19 -    22          0.000000000000          0.000000000000          0.000000000000
      0.7868272350D+01 -0.1193324198D+00  0.6899906659D-01
      0.1881288540D+01 -0.1608541517D+00  0.3164239610D+00
      0.5442492580D+00  0.1143456438D+01  0.7443082909D+00
 Atom C3       Shell     9 SP   1    bf   23 -    26          0.000000000000          0.000000000000          0.000000000000
      0.1687144782D+00  0.1000000000D+01  0.1000000000D+01
 Atom C3       Shell    10 D   1     bf   27 -    32          0.000000000000          0.000000000000          0.000000000000
      0.8000000000D+00  0.1000000000D+01
 Atom C4       Shell    11 S   6     bf   33 -    33          2.937514493759          0.000000000000          0.000000000000
      0.3047524880D+04  0.1834737132D-02
      0.4573695180D+03  0.1403732281D-01
      0.1039486850D+03  0.6884262226D-01
      0.2921015530D+02  0.2321844432D+00
      0.9286662960D+01  0.4679413484D+00
      0.3163926960D+01  0.3623119853D+00
 Atom C4       Shell    12 SP   3    bf   34 -    37          2.937514493759          0.000000000000          0.000000000000
      0.7868272350D+01 -0.1193324198D+00  0.6899906659D-01
      0.1881288540D+01 -0.1608541517D+00  0.3164239610D+00
      0.5442492580D+00  0.1143456438D+01  0.7443082909D+00
 Atom C4       Shell    13 SP   1    bf   38 -    41          2.937514493759          0.000000000000          0.000000000000
      0.1687144782D+00  0.1000000000D+01  0.1000000000D+01
 Atom C4       Shell    14 D   1     bf   42 -    47          2.937514493759          0.000000000000          0.000000000000
      0.8000000000D+00  0.1000000000D+01
 Atom H5       Shell    15 S   3     bf   48 -    48          3.480148030009          2.014229945466          0.000000000000
      0.1873113696D+02  0.3349460434D-01
      0.2825394365D+01  0.2347269535D+00
      0.6401216923D+00  0.8137573261D+00
 Atom H5       Shell    16 S   1     bf   49 -    49          3.480148030009          2.014229945466          0.000000000000
      0.1612777588D+00  0.1000000000D+01
 Atom C6       Shell    17 S   6     bf   50 -    50          4.183552964987         -1.146694623559         -2.353894611824
      0.3047524880D+04  0.1834737132D-02
      0.4573695180D+03  0.1403732281D-01
      0.1039486850D+03  0.6884262226D-01
      0.2921015530D+02  0.2321844432D+00
      0.9286662960D+01  0.4679413484D+00
      0.3163926960D+01  0.3623119853D+00
 Atom C6       Shell    18 SP   3    bf   51 -    54          4.183552964987         -1.146694623559         -2.353894611824
      0.7868272350D+01 -0.1193324198D+00  0.6899906659D-01
      0.1881288540D+01 -0.1608541517D+00  0.3164239610D+00
      0.5442492580D+00  0.1143456438D+01  0.7443082909D+00
 Atom C6       Shell    19 SP   1    bf   55 -    58          4.183552964987         -1.146694623559         -2.353894611824
      0.1687144782D+00  0.1000000000D+01  0.1000000000D+01
 Atom C6       Shell    20 D   1     bf   59 -    64          4.183552964987         -1.146694623559         -2.353894611824
      0.8000000000D+00  0.1000000000D+01
 Atom H7       Shell    21 S   3     bf   65 -    65          3.682575361083         -3.158723038080         -2.479617524527
      0.1873113696D+02  0.3349460434D-01
      0.2825394365D+01  0.2347269535D+00
      0.6401216923D+00  0.8137573261D+00
 Atom H7       Shell    22 S   1     bf   66 -    66          3.682575361083         -3.158723038080         -2.479617524527
      0.1612777588D+00  0.1000000000D+01
 Atom C8       Shell    23 S   6     bf   67 -    67          3.230757867587          0.232674627708         -4.758520754719
      0.3047524880D+04  0.1834737132D-02
      0.4573695180D+03  0.1403732281D-01
      0.1039486850D+03  0.6884262226D-01
      0.2921015530D+02  0.2321844432D+00
      0.9286662960D+01  0.4679413484D+00
      0.3163926960D+01  0.3623119853D+00
 Atom C8       Shell    24 SP   3    bf   68 -    71          3.230757867587          0.232674627708         -4.758520754719
      0.7868272350D+01 -0.1193324198D+00  0.6899906659D-01
      0.1881288540D+01 -0.1608541517D+00  0.3164239610D+00
      0.5442492580D+00  0.1143456438D+01  0.7443082909D+00
 Atom C8       Shell    25 SP   1    bf   72 -    75          3.230757867587          0.232674627708         -4.758520754719
      0.1687144782D+00  0.1000000000D+01  0.1000000000D+01
 Atom C8       Shell    26 D   1     bf   76 -    81          3.230757867587          0.232674627708         -4.758520754719
      0.8000000000D+00  0.1000000000D+01
 Atom H9       Shell    27 S   3     bf   82 -    82          3.994189934279          2.167238557110         -4.629021810155
      0.1873113696D+02  0.3349460434D-01
      0.2825394365D+01  0.2347269535D+00
      0.6401216923D+00  0.8137573261D+00
 Atom H9       Shell    28 S   1     bf   83 -    83          3.994189934279          2.167238557110         -4.629021810155
      0.1612777588D+00  0.1000000000D+01
 Atom C10      Shell    29 S   6     bf   84 -    84         -0.516794951787          1.232050964056          2.645277814836
      0.3047524880D+04  0.1834737132D-02
      0.4573695180D+03  0.1403732281D-01
      0.1039486850D+03  0.6884262226D-01
      0.2921015530D+02  0.2321844432D+00
      0.9286662960D+01  0.4679413484D+00
      0.3163926960D+01  0.3623119853D+00
 Atom C10      Shell    30 SP   3    bf   85 -    88         -0.516794951787          1.232050964056          2.645277814836
      0.7868272350D+01 -0.1193324198D+00  0.6899906659D-01
      0.1881288540D+01 -0.1608541517D+00  0.3164239610D+00
      0.5442492580D+00  0.1143456438D+01  0.7443082909D+00
 Atom C10      Shell    31 SP   1    bf   89 -    92         -0.516794951787          1.232050964056          2.645277814836
      0.1687144782D+00  0.1000000000D+01  0.1000000000D+01
 Atom C10      Shell    32 D   1     bf   93 -    98         -0.516794951787          1.232050964056          2.645277814836
      0.8000000000D+00  0.1000000000D+01
 Atom H11      Shell    33 S   3     bf   99 -    99         -0.082825033445          3.257444088707          2.433254359973
      0.1873113696D+02  0.3349460434D-01
      0.2825394365D+01  0.2347269535D+00
      0.6401216923D+00  0.8137573261D+00
 Atom H11      Shell    34 S   1     bf  100 -   100         -0.082825033445          3.257444088707          2.433254359973
      0.1612777588D+00  0.1000000000D+01
 Atom C12      Shell    35 S   6     bf  101 -   101         -0.823351597400          1.539854299793         -2.334428618518
      0.3047524880D+04  0.1834737132D-02
      0.4573695180D+03  0.1403732281D-01
      0.1039486850D+03  0.6884262226D-01
      0.2921015530D+02  0.2321844432D+00
      0.9286662960D+01  0.4679413484D+00
      0.3163926960D+01  0.3623119853D+00
 Atom C12      Shell    36 SP   3    bf  102 -   105         -0.823351597400          1.539854299793         -2.334428618518
      0.7868272350D+01 -0.1193324198D+00  0.6899906659D-01
      0.1881288540D+01 -0.1608541517D+00  0.3164239610D+00
      0.5442492580D+00  0.1143456438D+01  0.7443082909D+00
 Atom C12      Shell    37 SP   1    bf  106 -   109         -0.823351597400          1.539854299793         -2.334428618518
      0.1687144782D+00  0.1000000000D+01  0.1000000000D+01
 Atom C12      Shell    38 D   1     bf  110 -   115         -0.823351597400          1.539854299793         -2.334428618518
      0.8000000000D+00  0.1000000000D+01
 Atom H13      Shell    39 S   3     bf  116 -   116         -0.208477383775          3.508687618931         -2.080140720597
      0.1873113696D+02  0.3349460434D-01
      0.2825394365D+01  0.2347269535D+00
      0.6401216923D+00  0.8137573261D+00
 Atom H13      Shell    40 S   1     bf  117 -   117         -0.208477383775          3.508687618931         -2.080140720597
      0.1612777588D+00  0.1000000000D+01
 Atom H14      Shell    41 S   3     bf  118 -   118         -2.881660123011          1.589355562461         -2.534043904825
      0.1873113696D+02  0.3349460434D-01
      0.2825394365D+01  0.2347269535D+00
      0.6401216923D+00  0.8137573261D+00
 Atom H14      Shell    42 S   1     bf  119 -   119         -2.881660123011          1.589355562461         -2.534043904825
      0.1612777588D+00  0.1000000000D+01
 Atom C15      Shell    43 S   6     bf  120 -   120          4.355288271279         -0.908323378629         -7.254136341639
      0.3047524880D+04  0.1834737132D-02
      0.4573695180D+03  0.1403732281D-01
      0.1039486850D+03  0.6884262226D-01
      0.2921015530D+02  0.2321844432D+00
      0.9286662960D+01  0.4679413484D+00
      0.3163926960D+01  0.3623119853D+00
 Atom C15      Shell    44 SP   3    bf  121 -   124          4.355288271279         -0.908323378629         -7.254136341639
      0.7868272350D+01 -0.1193324198D+00  0.6899906659D-01
      0.1881288540D+01 -0.1608541517D+00  0.3164239610D+00
      0.5442492580D+00  0.1143456438D+01  0.7443082909D+00
 Atom C15      Shell    45 SP   1    bf  125 -   128          4.355288271279         -0.908323378629         -7.254136341639
      0.1687144782D+00  0.1000000000D+01  0.1000000000D+01
 Atom C15      Shell    46 D   1     bf  129 -   134          4.355288271279         -0.908323378629         -7.254136341639
      0.8000000000D+00  0.1000000000D+01
 Atom C16      Shell    47 S   6     bf  135 -   135          3.653457667142         -1.039546320345          2.613553168106
      0.3047524880D+04  0.1834737132D-02
      0.4573695180D+03  0.1403732281D-01
      0.1039486850D+03  0.6884262226D-01
      0.2921015530D+02  0.2321844432D+00
      0.9286662960D+01  0.4679413484D+00
      0.3163926960D+01  0.3623119853D+00
 Atom C16      Shell    48 SP   3    bf  136 -   139          3.653457667142         -1.039546320345          2.613553168106
      0.7868272350D+01 -0.1193324198D+00  0.6899906659D-01
      0.1881288540D+01 -0.1608541517D+00  0.3164239610D+00
      0.5442492580D+00  0.1143456438D+01  0.7443082909D+00
 Atom C16      Shell    49 SP   1    bf  140 -   143          3.653457667142         -1.039546320345          2.613553168106
      0.1687144782D+00  0.1000000000D+01  0.1000000000D+01
 Atom C16      Shell    50 D   1     bf  144 -   149          3.653457667142         -1.039546320345          2.613553168106
      0.8000000000D+00  0.1000000000D+01
 Atom H17      Shell    51 S   3     bf  150 -   150          5.548677366177         -0.459547418242          3.205307659639
      0.1873113696D+02  0.3349460434D-01
      0.2825394365D+01  0.2347269535D+00
      0.6401216923D+00  0.8137573261D+00
 Atom H17      Shell    52 S   1     bf  151 -   151          5.548677366177         -0.459547418242          3.205307659639
      0.1612777588D+00  0.1000000000D+01
 Atom H18      Shell    53 S   3     bf  152 -   152          3.639417833454         -3.112703217867          2.604863602635
      0.1873113696D+02  0.3349460434D-01
      0.2825394365D+01  0.2347269535D+00
      0.6401216923D+00  0.8137573261D+00
 Atom H18      Shell    54 S   1     bf  153 -   153          3.639417833454         -3.112703217867          2.604863602635
      0.1612777588D+00  0.1000000000D+01
 Atom C19      Shell    55 S   6     bf  154 -   154          0.318914566350          0.476178085355         -4.796760194498
      0.3047524880D+04  0.1834737132D-02
      0.4573695180D+03  0.1403732281D-01
      0.1039486850D+03  0.6884262226D-01
      0.2921015530D+02  0.2321844432D+00
      0.9286662960D+01  0.4679413484D+00
      0.3163926960D+01  0.3623119853D+00
 Atom C19      Shell    56 SP   3    bf  155 -   158          0.318914566350          0.476178085355         -4.796760194498
      0.7868272350D+01 -0.1193324198D+00  0.6899906659D-01
      0.1881288540D+01 -0.1608541517D+00  0.3164239610D+00
      0.5442492580D+00  0.1143456438D+01  0.7443082909D+00
 Atom C19      Shell    57 SP   1    bf  159 -   162          0.318914566350          0.476178085355         -4.796760194498
      0.1687144782D+00  0.1000000000D+01  0.1000000000D+01
 Atom C19      Shell    58 D   1     bf  163 -   168          0.318914566350          0.476178085355         -4.796760194498
      0.8000000000D+00  0.1000000000D+01
 Atom H20      Shell    59 S   3     bf  169 -   169         -0.535681573958         -1.370656876801         -5.173725314616
      0.1873113696D+02  0.3349460434D-01
      0.2825394365D+01  0.2347269535D+00
      0.6401216923D+00  0.8137573261D+00
 Atom H20      Shell    60 S   1     bf  170 -   170         -0.535681573958         -1.370656876801         -5.173725314616
      0.1612777588D+00  0.1000000000D+01
 Atom H21      Shell    61 S   3     bf  171 -   171         -0.257565854666          1.698590406785         -6.365854056670
      0.1873113696D+02  0.3349460434D-01
      0.2825394365D+01  0.2347269535D+00
      0.6401216923D+00  0.8137573261D+00
 Atom H21      Shell    62 S   1     bf  172 -   172         -0.257565854666          1.698590406785         -6.365854056670
      0.1612777588D+00  0.1000000000D+01
 Atom C22      Shell    63 S   6     bf  173 -   173          1.564321547796          0.027621730042          4.378439929742
      0.3047524880D+04  0.1834737132D-02
      0.4573695180D+03  0.1403732281D-01
      0.1039486850D+03  0.6884262226D-01
      0.2921015530D+02  0.2321844432D+00
      0.9286662960D+01  0.4679413484D+00
      0.3163926960D+01  0.3623119853D+00
 Atom C22      Shell    64 SP   3    bf  174 -   177          1.564321547796          0.027621730042          4.378439929742
      0.7868272350D+01 -0.1193324198D+00  0.6899906659D-01
      0.1881288540D+01 -0.1608541517D+00  0.3164239610D+00
      0.5442492580D+00  0.1143456438D+01  0.7443082909D+00
 Atom C22      Shell    65 SP   1    bf  178 -   181          1.564321547796          0.027621730042          4.378439929742
      0.1687144782D+00  0.1000000000D+01  0.1000000000D+01
 Atom C22      Shell    66 D   1     bf  182 -   187          1.564321547796          0.027621730042          4.378439929742
      0.8000000000D+00  0.1000000000D+01
 Atom H23      Shell    67 S   3     bf  188 -   188          0.747364348993         -1.471155555006          5.552740844280
      0.1873113696D+02  0.3349460434D-01
      0.2825394365D+01  0.2347269535D+00
      0.6401216923D+00  0.8137573261D+00
 Atom H23      Shell    68 S   1     bf  189 -   189          0.747364348993         -1.471155555006          5.552740844280
      0.1612777588D+00  0.1000000000D+01
 Atom H24      Shell    69 S   3     bf  190 -   190          2.343722971941          1.427646576112          5.684744790909
      0.1873113696D+02  0.3349460434D-01
      0.2825394365D+01  0.2347269535D+00
      0.6401216923D+00  0.8137573261D+00
 Atom H24      Shell    70 S   1     bf  191 -   191          2.343722971941          1.427646576112          5.684744790909
      0.1612777588D+00  0.1000000000D+01
 Atom C25      Shell    71 S   6     bf  192 -   192          7.078097354155         -0.961441596012         -2.192451717812
      0.3047524880D+04  0.1834737132D-02
      0.4573695180D+03  0.1403732281D-01
      0.1039486850D+03  0.6884262226D-01
      0.2921015530D+02  0.2321844432D+00
      0.9286662960D+01  0.4679413484D+00
      0.3163926960D+01  0.3623119853D+00
 Atom C25      Shell    72 SP   3    bf  193 -   196          7.078097354155         -0.961441596012         -2.192451717812
      0.7868272350D+01 -0.1193324198D+00  0.6899906659D-01
      0.1881288540D+01 -0.1608541517D+00  0.3164239610D+00
      0.5442492580D+00  0.1143456438D+01  0.7443082909D+00
 Atom C25      Shell    73 SP   1    bf  197 -   200          7.078097354155         -0.961441596012         -2.192451717812
      0.1687144782D+00  0.1000000000D+01  0.1000000000D+01
 Atom C25      Shell    74 D   1     bf  201 -   206          7.078097354155         -0.961441596012         -2.192451717812
      0.8000000000D+00  0.1000000000D+01
 Atom H26      Shell    75 S   3     bf  207 -   207          7.804611863395         -2.332729414574         -0.814708764855
      0.1873113696D+02  0.3349460434D-01
      0.2825394365D+01  0.2347269535D+00
      0.6401216923D+00  0.8137573261D+00
 Atom H26      Shell    76 S   1     bf  208 -   208          7.804611863395         -2.332729414574         -0.814708764855
      0.1612777588D+00  0.1000000000D+01
 Atom H27      Shell    77 S   3     bf  209 -   209          7.613375150330          0.907715453732         -1.442230858796
      0.1873113696D+02  0.3349460434D-01
      0.2825394365D+01  0.2347269535D+00
      0.6401216923D+00  0.8137573261D+00
 Atom H27      Shell    78 S   1     bf  210 -   210          7.613375150330          0.907715453732         -1.442230858796
      0.1612777588D+00  0.1000000000D+01
 Atom C28      Shell    79 S   6     bf  211 -   211         -3.189275865635          1.056233603653          3.831403501678
      0.3047524880D+04  0.1834737132D-02
      0.4573695180D+03  0.1403732281D-01
      0.1039486850D+03  0.6884262226D-01
      0.2921015530D+02  0.2321844432D+00
      0.9286662960D+01  0.4679413484D+00
      0.3163926960D+01  0.3623119853D+00
 Atom C28      Shell    80 SP   3    bf  212 -   215         -3.189275865635          1.056233603653          3.831403501678
      0.7868272350D+01 -0.1193324198D+00  0.6899906659D-01
      0.1881288540D+01 -0.1608541517D+00  0.3164239610D+00
      0.5442492580D+00  0.1143456438D+01  0.7443082909D+00
 Atom C28      Shell    81 SP   1    bf  216 -   219         -3.189275865635          1.056233603653          3.831403501678
      0.1687144782D+00  0.1000000000D+01  0.1000000000D+01
 Atom C28      Shell    82 D   1     bf  220 -   225         -3.189275865635          1.056233603653          3.831403501678
      0.8000000000D+00  0.1000000000D+01
 Atom H29      Shell    83 S   3     bf  226 -   226         -3.580538937133         -0.957224917811          4.168848665796
      0.1873113696D+02  0.3349460434D-01
      0.2825394365D+01  0.2347269535D+00
      0.6401216923D+00  0.8137573261D+00
 Atom H29      Shell    84 S   1     bf  227 -   227         -3.580538937133         -0.957224917811          4.168848665796
      0.1612777588D+00  0.1000000000D+01
 Atom C30      Shell    85 S   6     bf  228 -   228         -1.113604385136         -2.700182220257         -0.096163608663
      0.3047524880D+04  0.1834737132D-02
      0.4573695180D+03  0.1403732281D-01
      0.1039486850D+03  0.6884262226D-01
      0.2921015530D+02  0.2321844432D+00
      0.9286662960D+01  0.4679413484D+00
      0.3163926960D+01  0.3623119853D+00
 Atom C30      Shell    86 SP   3    bf  229 -   232         -1.113604385136         -2.700182220257         -0.096163608663
      0.7868272350D+01 -0.1193324198D+00  0.6899906659D-01
      0.1881288540D+01 -0.1608541517D+00  0.3164239610D+00
      0.5442492580D+00  0.1143456438D+01  0.7443082909D+00
 Atom C30      Shell    87 SP   1    bf  233 -   236         -1.113604385136         -2.700182220257         -0.096163608663
      0.1687144782D+00  0.1000000000D+01  0.1000000000D+01
 Atom C30      Shell    88 D   1     bf  237 -   242         -1.113604385136         -2.700182220257         -0.096163608663
      0.8000000000D+00  0.1000000000D+01
 Atom H31      Shell    89 S   3     bf  243 -   243         -3.178718967285         -2.636530971766         -0.207059937997
      0.1873113696D+02  0.3349460434D-01
      0.2825394365D+01  0.2347269535D+00
      0.6401216923D+00  0.8137573261D+00
 Atom H31      Shell    90 S   1     bf  244 -   244         -3.178718967285         -2.636530971766         -0.207059937997
      0.1612777588D+00  0.1000000000D+01
 Atom H32      Shell    91 S   3     bf  245 -   245         -0.449270388333         -3.765032993973         -1.735997667866
      0.1873113696D+02  0.3349460434D-01
      0.2825394365D+01  0.2347269535D+00
      0.6401216923D+00  0.8137573261D+00
 Atom H32      Shell    92 S   1     bf  246 -   246         -0.449270388333         -3.765032993973         -1.735997667866
      0.1612777588D+00  0.1000000000D+01
 Atom H33      Shell    93 S   3     bf  247 -   247         -0.623238878482         -3.801016516489          1.584234895969
      0.1873113696D+02  0.3349460434D-01
      0.2825394365D+01  0.2347269535D+00
      0.6401216923D+00  0.8137573261D+00
 Atom H33      Shell    94 S   1     bf  248 -   248         -0.623238878482         -3.801016516489          1.584234895969
      0.1612777588D+00  0.1000000000D+01
 Atom C34      Shell    95 S   6     bf  249 -   249          7.200287442750         -1.383627597929         -6.943878024889
      0.3047524880D+04  0.1834737132D-02
      0.4573695180D+03  0.1403732281D-01
      0.1039486850D+03  0.6884262226D-01
      0.2921015530D+02  0.2321844432D+00
      0.9286662960D+01  0.4679413484D+00
      0.3163926960D+01  0.3623119853D+00
 Atom C34      Shell    96 SP   3    bf  250 -   253          7.200287442750         -1.383627597929         -6.943878024889
      0.7868272350D+01 -0.1193324198D+00  0.6899906659D-01
      0.1881288540D+01 -0.1608541517D+00  0.3164239610D+00
      0.5442492580D+00  0.1143456438D+01  0.7443082909D+00
 Atom C34      Shell    97 SP   1    bf  254 -   257          7.200287442750         -1.383627597929         -6.943878024889
      0.1687144782D+00  0.1000000000D+01  0.1000000000D+01
 Atom C34      Shell    98 D   1     bf  258 -   263          7.200287442750         -1.383627597929         -6.943878024889
      0.8000000000D+00  0.1000000000D+01
 Atom C35      Shell    99 S   6     bf  264 -   264          3.984295252658          1.045294432604         -9.431921422502
      0.3047524880D+04  0.1834737132D-02
      0.4573695180D+03  0.1403732281D-01
      0.1039486850D+03  0.6884262226D-01
      0.2921015530D+02  0.2321844432D+00
      0.9286662960D+01  0.4679413484D+00
      0.3163926960D+01  0.3623119853D+00
 Atom C35      Shell   100 SP   3    bf  265 -   268          3.984295252658          1.045294432604         -9.431921422502
      0.7868272350D+01 -0.1193324198D+00  0.6899906659D-01
      0.1881288540D+01 -0.1608541517D+00  0.3164239610D+00
      0.5442492580D+00  0.1143456438D+01  0.7443082909D+00
 Atom C35      Shell   101 SP   1    bf  269 -   272          3.984295252658          1.045294432604         -9.431921422502
      0.1687144782D+00  0.1000000000D+01  0.1000000000D+01
 Atom C35      Shell   102 D   1     bf  273 -   278          3.984295252658          1.045294432604         -9.431921422502
      0.8000000000D+00  0.1000000000D+01
 Atom H36      Shell   103 S   3     bf  279 -   279          4.600278697728          2.905637913048         -8.744481800964
      0.1873113696D+02  0.3349460434D-01
      0.2825394365D+01  0.2347269535D+00
      0.6401216923D+00  0.8137573261D+00
 Atom H36      Shell   104 S   1     bf  280 -   280          4.600278697728          2.905637913048         -8.744481800964
      0.1612777588D+00  0.1000000000D+01
 Atom H37      Shell   105 S   3     bf  281 -   281          1.967596266616          1.218421900138         -9.865756319912
      0.1873113696D+02  0.3349460434D-01
      0.2825394365D+01  0.2347269535D+00
      0.6401216923D+00  0.8137573261D+00
 Atom H37      Shell   106 S   1     bf  282 -   282          1.967596266616          1.218421900138         -9.865756319912
      0.1612777588D+00  0.1000000000D+01
 Atom C38      Shell   107 S   6     bf  283 -   283          8.363004903011         -1.364697398673         -4.691902390535
      0.3047524880D+04  0.1834737132D-02
      0.4573695180D+03  0.1403732281D-01
      0.1039486850D+03  0.6884262226D-01
      0.2921015530D+02  0.2321844432D+00
      0.9286662960D+01  0.4679413484D+00
      0.3163926960D+01  0.3623119853D+00
 Atom C38      Shell   108 SP   3    bf  284 -   287          8.363004903011         -1.364697398673         -4.691902390535
      0.7868272350D+01 -0.1193324198D+00  0.6899906659D-01
      0.1881288540D+01 -0.1608541517D+00  0.3164239610D+00
      0.5442492580D+00  0.1143456438D+01  0.7443082909D+00
 Atom C38      Shell   109 SP   1    bf  288 -   291          8.363004903011         -1.364697398673         -4.691902390535
      0.1687144782D+00  0.1000000000D+01  0.1000000000D+01
 Atom C38      Shell   110 D   1     bf  292 -   297          8.363004903011         -1.364697398673         -4.691902390535
      0.8000000000D+00  0.1000000000D+01
 Atom H39      Shell   111 S   3     bf  298 -   298         10.400450984396         -1.669851054913         -4.633809639182
      0.1873113696D+02  0.3349460434D-01
      0.2825394365D+01  0.2347269535D+00
      0.6401216923D+00  0.8137573261D+00
 Atom H39      Shell   112 S   1     bf  299 -   299         10.400450984396         -1.669851054913         -4.633809639182
      0.1612777588D+00  0.1000000000D+01
 Atom C40      Shell   113 S   6     bf  300 -   300          3.049421675396         -3.434796530340         -7.972937990360
      0.3047524880D+04  0.1834737132D-02
      0.4573695180D+03  0.1403732281D-01
      0.1039486850D+03  0.6884262226D-01
      0.2921015530D+02  0.2321844432D+00
      0.9286662960D+01  0.4679413484D+00
      0.3163926960D+01  0.3623119853D+00
 Atom C40      Shell   114 SP   3    bf  301 -   304          3.049421675396         -3.434796530340         -7.972937990360
      0.7868272350D+01 -0.1193324198D+00  0.6899906659D-01
      0.1881288540D+01 -0.1608541517D+00  0.3164239610D+00
      0.5442492580D+00  0.1143456438D+01  0.7443082909D+00
[...]
 1501 Fit       0.001711
 1502 Fit       0.002955
 1503 Fit       0.002723
 1504 Fit       0.001338
 1505 Fit      -0.000012
 1506 Fit      -0.002041
 1507 Fit      -0.000936
 1508 Fit       0.001258
 1509 Fit       0.001866
 1510 Fit      -0.000021
 1511 Fit      -0.001774
 1512 Fit       0.000305
 1513 Fit       0.002041
 1514 Fit       0.002850
 1515 Fit       0.002421
 1516 Fit      -0.000356
 1517 Fit      -0.000648
 1518 Fit       0.001165
 1519 Fit       0.002399
 1520 Fit      -0.001770
 1521 Fit       0.000779
 1522 Fit      -0.000371
 1523 Fit      -0.000900
 1524 Fit       0.002506
 1525 Fit       0.002158
 1526 Fit       0.000145
 1527 Fit      -0.000957
 1528 Fit       0.001575
 1529 Fit      -0.002120
 1530 Fit      -0.002372
 1531 Fit      -0.002294
 1532 Fit      -0.002315
 1533 Fit      -0.001509
 1534 Fit      -0.000822
 1535 Fit       0.000281
 1536 Fit      -0.001248
 1537 Fit      -0.000767
 1538 Fit      -0.000544
 1539 Fit      -0.000709
 1540 Fit       0.002013
 1541 Fit       0.000872
 1542 Fit       0.001333
 1543 Fit       0.001798
 1544 Fit       0.001849
 1545 Fit       0.001696
 1546 Fit       0.003402
 1547 Fit       0.002830
 1548 Fit       0.003085
 1549 Fit       0.003259
 1550 Fit       0.003927
 1551 Fit       0.000689
 1552 Fit      -0.001901
 1553 Fit       0.002833
 1554 Fit       0.002000
 1555 Fit      -0.000025
 1556 Fit       0.002684
 1557 Fit       0.002176
 1558 Fit       0.000922
 1559 Fit      -0.000938
 1560 Fit       0.001263
 1561 Fit       0.000868
 1562 Fit      -0.000050
 1563 Fit      -0.001495
 1564 Fit      -0.001719
 1565 Fit       0.000984
 1566 Fit      -0.000851
 1567 Fit       0.002483
 1568 Fit       0.002271
 1569 Fit      -0.001015
 1570 Fit       0.001315
 1571 Fit       0.003134
 1572 Fit      -0.000423
 1573 Fit       0.001903
 1574 Fit       0.001263
 1575 Fit      -0.002906
 1576 Fit      -0.002337
 1577 Fit      -0.004446
 1578 Fit      -0.012753
 1579 Fit      -0.016266
 1580 Fit      -0.020045
 1581 Fit      -0.018464
 1582 Fit      -0.011853
 1583 Fit      -0.007860
 1584 Fit      -0.015642
 1585 Fit      -0.020991
 1586 Fit      -0.022577
 1587 Fit      -0.024791
 1588 Fit      -0.024463
 1589 Fit      -0.020913
 1590 Fit      -0.013562
 1591 Fit      -0.005563
 1592 Fit      -0.015761
 1593 Fit      -0.020570
 1594 Fit      -0.025281
 1595 Fit      -0.026650
 1596 Fit      -0.025355
 1597 Fit      -0.019576
 1598 Fit      -0.023851
 1599 Fit       0.019565
 1600 Fit       0.017338
 1601 Fit       0.018183
 1602 Fit       0.016419
 1603 Fit       0.011761
 1604 Fit       0.011940
 1605 Fit       0.016809
 1606 Fit       0.014624
 1607 Fit       0.012460
 1608 Fit       0.006603
 1609 Fit      -0.001480
 1610 Fit       0.008058
 1611 Fit       0.013233
 1612 Fit       0.007949
 1613 Fit       0.004372
 1614 Fit      -0.002464
 1615 Fit       0.005798
 1616 Fit      -0.002963
 1617 Fit       0.003179
 1618 Fit       0.003583
 1619 Fit       0.003516
 1620 Fit       0.003656
 1621 Fit       0.003619
 1622 Fit       0.002915
 1623 Fit       0.001884
 1624 Fit       0.000142
 1625 Fit      -0.003748
 1626 Fit       0.002017
 1627 Fit       0.002941
 1628 Fit       0.003059
 1629 Fit       0.001738
 1630 Fit       0.002895
 1631 Fit       0.002449
 1632 Fit       0.001991
 1633 Fit       0.003024
 1634 Fit       0.002806
 1635 Fit       0.002284
 1636 Fit       0.001566
 1637 Fit       0.003440
 1638 Fit       0.002945
 1639 Fit       0.002402
 1640 Fit      -0.000982
 1641 Fit      -0.000257
 1642 Fit       0.003558
 1643 Fit       0.002904
 1644 Fit       0.001963
 1645 Fit       0.003032
 1646 Fit       0.002389
 1647 Fit       0.001364
 1648 Fit      -0.000096
 1649 Fit       0.001972
 1650 Fit       0.001095
 1651 Fit      -0.000523
 1652 Fit       0.000408
 1653 Fit       0.000382
 1654 Fit       0.001404
 1655 Fit       0.002156
 1656 Fit       0.001973
 1657 Fit      -0.000262
 1658 Fit      -0.000292
 1659 Fit       0.000063
 1660 Fit       0.001153
 1661 Fit       0.001376
 1662 Fit       0.002517
 1663 Fit       0.002970
 1664 Fit       0.002994
 1665 Fit       0.001323
 1666 Fit       0.003078
 1667 Fit       0.003423
 1668 Fit       0.003391
 1669 Fit       0.003080
 1670 Fit       0.001068
 1671 Fit       0.002398
 1672 Fit       0.002591
 1673 Fit       0.001462
 1674 Fit       0.000219
 1675 Fit       0.003334
 1676 Fit       0.002569
 1677 Fit       0.001780
 1678 Fit       0.001151
 1679 Fit       0.002875
 1680 Fit       0.002643
 1681 Fit       0.002242
 1682 Fit       0.001086
 1683 Fit       0.002138
 1684 Fit       0.001561
 1685 Fit       0.002101
 1686 Fit       0.002480
 1687 Fit       0.002180
 1688 Fit       0.001462
 1689 Fit       0.001641
 1690 Fit       0.001535
 1691 Fit       0.001392
 1692 Fit       0.001174
 1693 Fit       0.002259
 1694 Fit       0.002597
 1695 Fit       0.002331
 1696 Fit       0.001965
 1697 Fit      -0.000247
 1698 Fit      -0.000668
 1699 Fit       0.003037
 1700 Fit       0.001163
 1701 Fit       0.003085
 1702 Fit       0.001688
 1703 Fit      -0.000162
 1704 Fit       0.004053
 1705 Fit       0.003892
 1706 Fit       0.002935
 1707 Fit       0.001188
 1708 Fit       0.001543
 1709 Fit       0.002766
 1710 Fit      -0.000145
 1711 Fit       0.001774
 1712 Fit       0.002958
 1713 Fit       0.003482
 1714 Fit       0.003026
 1715 Fit       0.003348
 1716 Fit       0.003307
 1717 Fit       0.003064
 1718 Fit       0.002930
 1719 Fit       0.003014
 1720 Fit       0.002995
 1721 Fit       0.002882
 1722 Fit       0.002193
 1723 Fit       0.003099
 1724 Fit       0.002306
 1725 Fit       0.002823
 1726 Fit       0.003246
 1727 Fit       0.003761
 1728 Fit       0.001734
 1729 Fit       0.001839
 1730 Fit       0.002556
 1731 Fit       0.003432
 1732 Fit      -0.000741
 1733 Fit      -0.000991
 1734 Fit       0.000485
 1735 Fit       0.002419
 1736 Fit       0.003005
 1737 Fit       0.003532
 1738 Fit       0.003808
 1739 Fit       0.002558
 1740 Fit       0.002845
 1741 Fit       0.003274
 1742 Fit       0.001148
 1743 Fit       0.001181
 1744 Fit       0.001811
 1745 Fit       0.002850
 1746 Fit       0.002909
 1747 Fit       0.002544
 1748 Fit       0.001152
 1749 Fit      -0.000266
 1750 Fit      -0.000266
 1751 Fit      -0.000465
 1752 Fit      -0.000484
 1753 Fit       0.000400
 1754 Fit      -0.000020
 1755 Fit       0.001521
 1756 Fit       0.001455
 1757 Fit       0.002258
 1758 Fit       0.000919
 1759 Fit       0.002313
 1760 Fit       0.000801
 1761 Fit       0.002449
 1762 Fit       0.000883
 1763 Fit       0.002132
 1764 Fit       0.002361
 1765 Fit       0.000995
 1766 Fit       0.002384
 1767 Fit       0.001490
 1768 Fit       0.002281
 1769 Fit       0.004299
 1770 Fit       0.002508
 1771 Fit       0.003101
 1772 Fit       0.003898
 1773 Fit       0.000685
 1774 Fit       0.001424
 1775 Fit       0.002321
 1776 Fit      -0.007964
 1777 Fit      -0.000115
 1778 Fit      -0.000402
 1779 Fit       0.002596
 1780 Fit       0.002414
 1781 Fit       0.002516
 1782 Fit       0.002045
 1783 Fit       0.001327
 1784 Fit       0.002335
 1785 Fit       0.001740
 1786 Fit       0.001125
 1787 Fit       0.000438
 1788 Fit       0.000572
 1789 Fit       0.000284
 1790 Fit       0.001870
 1791 Fit       0.003056
 1792 Fit       0.003243
 1793 Fit       0.003359
 1794 Fit       0.000894
 1795 Fit       0.001694
 1796 Fit       0.001627
 1797 Fit       0.000693
 1798 Fit      -0.000614
 1799 Fit       0.001181
 1800 Fit      -0.001050
 1801 Fit      -0.004849
 1802 Fit      -0.004897
 1803 Fit      -0.002132
 1804 Fit       0.001038
 1805 Fit      -0.002476
 1806 Fit      -0.003707
 1807 Fit      -0.007296
 1808 Fit      -0.003582
 1809 Fit       0.005313
 1810 Fit       0.004304
 1811 Fit       0.002587
 1812 Fit       0.004650
 1813 Fit       0.006470
 1814 Fit       0.005422
 1815 Fit       0.002757
 1816 Fit       0.003236
 1817 Fit       0.005723
 1818 Fit       0.008176
 1819 Fit       0.006887
 1820 Fit       0.003223
 1821 Fit       0.003552
 1822 Fit       0.007023
 1823 Fit       0.000919
 1824 Fit      -0.000190
 1825 Fit      -0.005658
 1826 Fit      -0.001277
 1827 Fit      -0.001711
 1828 Fit      -0.001746
 1829 Fit      -0.001826
 1830 Fit      -0.001747
 1831 Fit       0.002248
 1832 Fit       0.000479
 1833 Fit       0.002819
 1834 Fit       0.002594
 1835 Fit       0.001606
 1836 Fit      -0.000082
 1837 Fit       0.002229
 1838 Fit       0.001207
 1839 Fit      -0.000408
 1840 Fit       0.000188
 1841 Fit      -0.001280
 1842 Fit      -0.002006
 1843 Fit      -0.001407
 1844 Fit      -0.000723
 1845 Fit      -0.001595
 1846 Fit      -0.001024
 1847 Fit      -0.000699
 1848 Fit      -0.001694
 1849 Fit      -0.002815
 1850 Fit       0.002846
 1851 Fit       0.001297
 1852 Fit       0.002129
 1853 Fit       0.001443
 1854 Fit       0.001079
 1855 Fit       0.000162
 1856 Fit      -0.002160
 1857 Fit      -0.000900
 1858 Fit      -0.001466
 1859 Fit      -0.004896
 1860 Fit      -0.001020
 1861 Fit       0.001095
 1862 Fit       0.010195
 1863 Fit       0.010473
 1864 Fit       0.008245
 1865 Fit       0.004136
 1866 Fit       0.007864
 1867 Fit       0.014152
 1868 Fit       0.016522
 1869 Fit       0.004971
 1870 Fit       0.009912
 1871 Fit      -0.005016
 1872 Fit      -0.001084
 1873 Fit      -0.001354
 1874 Fit      -0.000873
 1875 Fit      -0.000355
 1876 Fit      -0.001162
 1877 Fit      -0.000893
 1878 Fit      -0.003655
 1879 Fit      -0.004679
 1880 Fit      -0.003925
 1881 Fit      -0.013056
 1882 Fit      -0.002190
 1883 Fit      -0.002767
 1884 Fit      -0.020498
 1885 Fit      -0.001180
 1886 Fit      -0.001473
 1887 Fit      -0.001667
 1888 Fit      -0.005111
 1889 Fit      -0.004043
 1890 Fit      -0.004481
 1891 Fit      -0.007353
 1892 Fit      -0.016860
 1893 Fit      -0.008852
 1894 Fit      -0.010295
 1895 Fit      -0.020844
 1896 Fit      -0.017520
 1897 Fit      -0.000300
 1898 Fit      -0.000003
 1899 Fit      -0.006717
 1900 Fit      -0.002784
 1901 Fit      -0.001212
 1902 Fit      -0.000787
 1903 Fit      -0.000894
 1904 Fit      -0.007770
 1905 Fit      -0.003783
 1906 Fit      -0.002730
 1907 Fit      -0.003382
 1908 Fit      -0.012153
 1909 Fit      -0.006827
 1910 Fit      -0.007774
 1911 Fit      -0.014017
 1912 Fit      -0.000472
 1913 Fit      -0.000394
 1914 Fit       0.000029
 1915 Fit       0.001290
 1916 Fit       0.001213
 1917 Fit       0.002485
 1918 Fit       0.001054
 1919 Fit       0.002046
 1920 Fit       0.000073
 1921 Fit       0.002017
 1922 Fit      -0.000459
 1923 Fit       0.000511
 1924 Fit       0.001200
 1925 Fit       0.000311
 1926 Fit       0.001134
 1927 Fit       0.001604
 1928 Fit       0.000039
 1929 Fit       0.000777
 1930 Fit       0.001267
 1931 Fit       0.001176
 1932 Fit       0.000942
 1933 Fit      -0.009734
 1934 Fit       0.003499
 1935 Fit       0.002198
 1936 Fit       0.002054
 1937 Fit       0.012462
 1938 Fit       0.006652
 1939 Fit       0.003704
 1940 Fit       0.002453
 1941 Fit       0.002384
 1942 Fit       0.006790
 1943 Fit       0.002075
 1944 Fit       0.000368
 1945 Fit       0.000052
 1946 Fit      -0.004742
 1947 Fit      -0.005164
 1948 Fit      -0.000841
 1949 Fit      -0.001383
 1950 Fit      -0.001441
 1951 Fit      -0.000147
 1952 Fit       0.001116
 1953 Fit      -0.001806
 1954 Fit      -0.001514
 1955 Fit      -0.000784
 1956 Fit      -0.001315
 1957 Fit      -0.000922
 1958 Fit       0.001985
 1959 Fit       0.001682
 1960 Fit       0.000976
 1961 Fit      -0.000329
 1962 Fit       0.002152
 1963 Fit       0.001774
 1964 Fit       0.001007
 1965 Fit      -0.000308
 1966 Fit       0.000868
 1967 Fit       0.000594
 1968 Fit      -0.000532
 1969 Fit      -0.000747
 1970 Fit       0.000467
 1971 Fit       0.000991
 1972 Fit       0.000723
 1973 Fit      -0.001025
 1974 Fit      -0.000177
 1975 Fit       0.000175
 1976 Fit       0.000203
 1977 Fit       0.000414
 1978 Fit       0.000615
 1979 Fit       0.002335
 1980 Fit       0.000007
 1981 Fit       0.001487
 1982 Fit       0.003106
 1983 Fit       0.002456
 1984 Fit       0.000835
 1985 Fit       0.000071
 1986 Fit       0.000286
 1987 Fit       0.001822
 1988 Fit       0.002862
 1989 Fit       0.002664
 1990 Fit       0.002272
 1991 Fit       0.002234
 1992 Fit       0.001066
 1993 Fit       0.001623
 1994 Fit       0.001607
 1995 Fit       0.000946
 1996 Fit       0.000599
 1997 Fit       0.001253
 1998 Fit       0.000918
 1999 Fit       0.000683
 2000 Fit       0.000603
 2001 Fit       0.000196
 2002 Fit       0.000449
 2003 Fit       0.001223
 2004 Fit       0.002106
 2005 Fit       0.001148
 2006 Fit       0.002117
 2007 Fit       0.002877
 2008 Fit       0.001610
 2009 Fit       0.002262
 2010 Fit       0.002472
 2011 Fit       0.001875
 2012 Fit       0.002020
 2013 Fit       0.002003
 2014 Fit       0.001488
 2015 Fit       0.000734
 2016 Fit       0.001421
 2017 Fit       0.000929
 2018 Fit       0.001469
 2019 Fit       0.001022
 2020 Fit       0.000588
 2021 Fit       0.001103
 2022 Fit       0.001180
 2023 Fit       0.000649
 2024 Fit       0.000954
 2025 Fit       0.001139
 2026 Fit       0.001433
 2027 Fit       0.001335
 2028 Fit       0.000650
 2029 Fit       0.000690
 2030 Fit       0.001166
 2031 Fit       0.001337
 2032 Fit       0.001037
 2033 Fit       0.000833
 2034 Fit       0.001244
 2035 Fit      -0.001367
 2036 Fit      -0.001805
 2037 Fit      -0.001753
 2038 Fit      -0.001588
 2039 Fit      -0.001910
 2040 Fit      -0.001759
 2041 Fit      -0.001312
 2042 Fit      -0.001213
 2043 Fit      -0.001322
 2044 Fit      -0.000344
 2045 Fit      -0.000863
 2046 Fit      -0.000272
 2047 Fit      -0.000900
 2048 Fit      -0.000156
 2049 Fit      -0.000289
 2050 Fit      -0.000189
 2051 Fit       0.000726
 2052 Fit       0.001317
 2053 Fit       0.001145
 2054 Fit       0.000249
 2055 Fit       0.000530
 2056 Fit       0.001563
 2057 Fit       0.002168
 2058 Fit       0.001989
 2059 Fit       0.001122
 2060 Fit       0.000031
 2061 Fit       0.002389
 2062 Fit       0.001362
 2063 Fit      -0.000098
 2064 Fit      -0.000688
 2065 Fit       0.000812
 2066 Fit       0.001235
 2067 Fit      -0.000020
 2068 Fit      -0.001119
 2069 Fit       0.000356
 2070 Fit       0.001582
 2071 Fit       0.002135
 2072 Fit       0.001701
 2073 Fit      -0.000130
 2074 Fit      -0.000720
 2075 Fit       0.000636
 2076 Fit       0.001719
 2077 Fit       0.002497
 2078 Fit       0.000072
 2079 Fit       0.001185
 2080 Fit       0.000298
 2081 Fit      -0.000487
 2082 Fit      -0.000781
 2083 Fit       0.001671
 2084 Fit       0.001375
 2085 Fit      -0.000021
 2086 Fit      -0.000810
 2087 Fit       0.000957
 2088 Fit       0.002191
 2089 Fit       0.002493
 2090 Fit       0.001512
 2091 Fit       0.001954
 2092 Fit      -0.001152
 2093 Fit      -0.001312
 2094 Fit      -0.001304
 2095 Fit      -0.001586
 2096 Fit      -0.001653
 2097 Fit      -0.001654
 2098 Fit      -0.000515
 2099 Fit      -0.000980
 2100 Fit      -0.001133
 2101 Fit      -0.001065
 2102 Fit      -0.000458
 2103 Fit       0.001467
 2104 Fit      -0.000173
 2105 Fit       0.000063
 2106 Fit       0.000354
 2107 Fit       0.000473
 2108 Fit       0.000467
 2109 Fit       0.000712
 2110 Fit       0.001300
 2111 Fit       0.001551
 2112 Fit       0.001844
 2113 Fit       0.001954
 2114 Fit       0.002117
 2115 Fit       0.002671
 2116 Fit       0.002667
 2117 Fit       0.002831
 2118 Fit       0.000538
 2119 Fit       0.002208
 2120 Fit       0.001464
 2121 Fit       0.000038
 2122 Fit       0.002312
 2123 Fit       0.001810
 2124 Fit       0.000848
 2125 Fit      -0.000484
 2126 Fit       0.001729
 2127 Fit       0.001524
 2128 Fit       0.001063
 2129 Fit       0.000225
 2130 Fit      -0.000922
 2131 Fit       0.000275
 2132 Fit      -0.000226
 2133 Fit      -0.000975
 2134 Fit       0.000510
 2135 Fit      -0.000722
 2136 Fit       0.001731
 2137 Fit       0.001931
 2138 Fit      -0.000776
 2139 Fit       0.000843
 2140 Fit       0.002278
 2141 Fit       0.000076
 2142 Fit       0.001609
 2143 Fit       0.000003
 2144 Fit       0.001871
 -----------------------------------------------------------------
 Leave Link  602 at Tue Mar 21 12:06:02 2017, MaxMem=    33554432 cpu:         3.2
 (Enter /home/michal/g09/l9999.exe)

 Test job not archived.
 1\1\GINC-LINUX\SP\RHF\6-31G(d)\C27H46O1\MICHAL\21-Mar-2017\0\\#P HF/6-
 31G* SCF(Conver=6) NoSymm Test Pop=mk IOp(6/33=2) GFInput GFPrint\\MEP
  - Input generated by R.E.D.-III.x MOLECULE\\0,1\O,0,4.99430437,-0.256
 82669,-7.25637649\H,0,5.94573212,-0.34328808,-7.11059881\C,0,0.,0.,0.\
 C,0,1.55446572,0.,0.\H,0,1.84161502,1.06588458,0.\C,0,2.21384088,-0.60
 680466,-1.24562738\H,0,1.94873495,-1.67152424,-1.31215708\C,0,1.709643
 43,0.12312611,-2.51810073\H,0,2.11363428,1.14685325,-2.44957284\C,0,-0
 .27347611,0.65197329,1.39982073\H,0,-0.04382912,1.72376517,1.28762275\
 C,0,-0.4356989,0.8148558,-1.23532642\H,0,-0.11032148,1.85671752,-1.100
 76306\H,0,-1.52490886,0.84105074,-1.34095828\C,0,2.30471929,-0.4806640
 3,-3.83872362\C,0,1.93332653,-0.55010422,1.38303277\H,0,2.9362336,-0.2
 4318202,1.69617576\H,0,1.92589697,-1.6471716,1.37843445\C,0,0.16876232
 ,0.25198259,-2.53833617\H,0,-0.28347048,-0.72532038,-2.73781752\H,0,-0
 .13629798,0.89885533,-3.36866488\C,0,0.82780331,0.01461679,2.31697062\
 H,0,0.39548818,-0.77850199,2.9383839\H,0,1.24024478,0.75547803,3.00823
 738\C,0,3.7455678,-0.50877298,-1.16019548\H,0,4.13002272,-1.23442724,-
 0.43112531\H,0,4.02882461,0.48034233,-0.7631957\C,0,-1.6876921,0.55893
 475,2.02749141\H,0,-1.8947396,-0.50654161,2.2060597\C,0,-0.58929406,-1
 .42887489,-0.05088759\H,0,-1.68210563,-1.3951921,-0.1095714\H,0,-0.237
 74365,-1.99236965,-0.9186504\H,0,-0.32980381,-2.01141131,0.838341\C,0,
 3.81022801,-0.73218419,-3.67454199\C,0,2.10839824,0.55314599,-4.991157
 85\H,0,2.43436264,1.53759736,-4.62738047\H,0,1.0412071,0.6447611,-5.22
 073339\C,0,4.42551159,-0.72216676,-2.48284781\H,0,5.50368162,-0.883647
 12,-2.45210645\C,0,1.61368445,-1.81761604,-4.21909707\H,0,0.57484844,-
 1.65834737,-4.52489603\H,0,2.12156407,-2.30908915,-5.0526021\H,0,1.620
 47299,-2.51889573,-3.37894825\C,0,4.59700228,-0.99755281,-4.94469393\H
 ,0,5.66576878,-1.06872074,-4.70480123\H,0,4.30796766,-1.96067002,-5.38
 871066\C,0,2.87185955,0.23337376,-6.28458386\H,0,2.50446903,-0.6929659
 6,-6.74357991\H,0,2.7146007,1.03119184,-7.01931662\C,0,-1.73215552,1.2
 8128132,3.40991947\H,0,-0.71670017,1.53303814,3.73295998\H,0,-2.250580
 22,2.24379526,3.29401702\C,0,4.36285105,0.07879924,-6.01456072\H,0,4.7
 6128573,1.03953284,-5.64853619\C,0,-2.7997451,1.10795286,1.1143828\H,0
 ,-2.57274694,2.13368075,0.79810636\H,0,-3.75766598,1.13356669,1.642862
 69\H,0,-2.94006098,0.50428534,0.21411513\C,0,-2.39443629,0.48773494,4.
 5540655\H,0,-1.85058675,-0.45795427,4.68142001\H,0,-2.24782015,1.05142
 131,5.48444522\C,0,-3.89298835,0.20270761,4.36502647\H,0,-4.0373011,-0
 .39496895,3.45512268\H,0,-4.4127089,1.15607348,4.18988668\C,0,-4.60246
 953,-0.52772869,5.53054886\H,0,-5.64925597,-0.64991454,5.21501173\C,0,
 -4.61816673,0.29626123,6.82888957\H,0,-5.0250082,1.30018779,6.65946655
 \H,0,-5.23761793,-0.19059539,7.59079896\H,0,-3.61274836,0.40933066,7.2
 5037653\C,0,-4.03907265,-1.93714764,5.77761119\H,0,-4.03325098,-2.5318
 4426,4.85648811\H,0,-4.64360472,-2.47406509,6.51752313\H,0,-3.01219686
 ,-1.90136755,6.1592063\\Version=EM64L-G09RevD.01\HF=-1124.074068\RMSD=
 4.619e-07\Dipole=0.1725898,0.0834329,0.6523088\Quadrupole=10.4444111,2
 .7737467,-13.2181578,0.5609033,2.6499577,-0.9020903\PG=C01 [X(C27H46O1
 )]\\@


 THE WORLD OF CHEMICAL REACTIONS IS LIKE A STAGE,
 ON WHICH SCENE AFTER SCENE IS CEASELESSLY PLAYED.
 THE ACTORS ON IT ARE THE ELEMENTS.
   -- CLEMENS WINKLER   BER. 30,13(1897)
 (DISCOVERER OF GERMANIUM, FEB 6, 1886)
 Job cpu time:       0 days  0 hours 10 minutes 31.3 seconds.
 File lengths (MBytes):  RWF=    142 Int=      0 D2E=      0 Chk=     10 Scr=      1
 Normal termination of Gaussian 09 at Tue Mar 21 12:06:02 2017.
