 Entering Gaussian System, Link 0=/home/michal/g09/g09
 Input=JOB2-gau_m1-7-1.com
 Output=JOB2-gau_m1-7-1.log
 Initial command:
 /home/michal/g09/l1.exe "/home/michal/gauss_scratch/Gau-14869.inp" -scrdir="/home/michal/gauss_scratch/"
 Entering Link 1 = /home/michal/g09/l1.exe PID=     14870.
  
 Copyright (c) 1988,1990,1992,1993,1995,1998,2003,2009,2013,
            Gaussian, Inc.  All Rights Reserved.
  
 This is part of the Gaussian(R) 09 program.  It is based on
 the Gaussian(R) 03 system (copyright 2003, Gaussian, Inc.),
 the Gaussian(R) 98 system (copyright 1998, Gaussian, Inc.),
 the Gaussian(R) 94 system (copyright 1995, Gaussian, Inc.),
 the Gaussian 92(TM) system (copyright 1992, Gaussian, Inc.),
 the Gaussian 90(TM) system (copyright 1990, Gaussian, Inc.),
 the Gaussian 88(TM) system (copyright 1988, Gaussian, Inc.),
 the Gaussian 86(TM) system (copyright 1986, Carnegie Mellon
 University), and the Gaussian 82(TM) system (copyright 1983,
 Carnegie Mellon University). Gaussian is a federally registered
 trademark of Gaussian, Inc.
  
 This software contains proprietary and confidential information,
 including trade secrets, belonging to Gaussian, Inc.
  
 This software is provided under written license and may be
 used, copied, transmitted, or stored only in accord with that
 written license.
  
 The following legend is applicable only to US Government
 contracts under FAR:
  
                    RESTRICTED RIGHTS LEGEND
  
 Use, reproduction and disclosure by the US Government is
 subject to restrictions as set forth in subparagraphs (a)
 and (c) of the Commercial Computer Software - Restricted
 Rights clause in FAR 52.227-19.
  
 Gaussian, Inc.
 340 Quinnipiac St., Bldg. 40, Wallingford CT 06492
  
  
 ---------------------------------------------------------------
 Warning -- This program may not be used in any manner that
 competes with the business of Gaussian, Inc. or will provide
 assistance to any competitor of Gaussian, Inc.  The licensee
 of this program is prohibited from giving any competitor of
 Gaussian, Inc. access to this program.  By using this program,
 the user acknowledges that Gaussian, Inc. is engaged in the
 business of creating and licensing software in the field of
 computational chemistry and represents and warrants to the
 licensee that it is not a competitor of Gaussian, Inc. and that
 it will not use this program in any manner prohibited above.
 ---------------------------------------------------------------
  

 Cite this work as:
 Gaussian 09, Revision D.01,
 M. J. Frisch, G. W. Trucks, H. B. Schlegel, G. E. Scuseria, 
 M. A. Robb, J. R. Cheeseman, G. Scalmani, V. Barone, B. Mennucci, 
 G. A. Petersson, H. Nakatsuji, M. Caricato, X. Li, H. P. Hratchian, 
 A. F. Izmaylov, J. Bloino, G. Zheng, J. L. Sonnenberg, M. Hada, 
 M. Ehara, K. Toyota, R. Fukuda, J. Hasegawa, M. Ishida, T. Nakajima, 
 Y. Honda, O. Kitao, H. Nakai, T. Vreven, J. A. Montgomery, Jr., 
 J. E. Peralta, F. Ogliaro, M. Bearpark, J. J. Heyd, E. Brothers, 
 K. N. Kudin, V. N. Staroverov, T. Keith, R. Kobayashi, J. Normand, 
 K. Raghavachari, A. Rendell, J. C. Burant, S. S. Iyengar, J. Tomasi, 
 M. Cossi, N. Rega, J. M. Millam, M. Klene, J. E. Knox, J. B. Cross, 
 V. Bakken, C. Adamo, J. Jaramillo, R. Gomperts, R. E. Stratmann, 
 O. Yazyev, A. J. Austin, R. Cammi, C. Pomelli, J. W. Ochterski, 
 R. L. Martin, K. Morokuma, V. G. Zakrzewski, G. A. Voth, 
 P. Salvador, J. J. Dannenberg, S. Dapprich, A. D. Daniels, 
 O. Farkas, J. B. Foresman, J. V. Ortiz, J. Cioslowski, 
 and D. J. Fox, Gaussian, Inc., Wallingford CT, 2013.
 
 ******************************************
 Gaussian 09:  EM64L-G09RevD.01 24-Apr-2013
                21-Mar-2017 
 ******************************************
 %Mem=256MB
 %NProc=12
 Will use up to   12 processors via shared memory.
 ----------------------------------------------------------------------
 #P HF/6-31G* SCF(Conver=6) NoSymm Test Pop=mk IOp(6/33=2) GFInput GFPr
 int
 ----------------------------------------------------------------------
 1/38=1/1;
 2/12=2,15=1,17=6,18=5,40=1/2;
 3/5=1,6=6,7=1,11=9,16=1,24=110,25=1,30=1/1,2,3;
 4//1;
 5/5=2,6=6,38=5/2;
 6/7=2,8=2,9=2,10=2,15=8,20=1,28=1,33=2/1,2;
 99/5=1,9=1/99;
 Leave Link    1 at Tue Mar 21 12:08:41 2017, MaxMem=    33554432 cpu:         0.6
 (Enter /home/michal/g09/l101.exe)
 ----------------------------------------------
 MEP - Input generated by R.E.D.-III.x MOLECULE
 ----------------------------------------------
 Symbolic Z-matrix:
 Charge =  0 Multiplicity = 1
 O                     4.99883  -0.24213  -7.25388 
 H                     5.9504   -0.32548  -7.10721 
 C                     0.        0.        0. 
 C                     1.55463   0.        0. 
 H                     1.84183   1.06588   0. 
 C                     2.21436  -0.60648  -1.24543 
 H                     1.94935  -1.67119  -1.31242 
 C                     1.71055   0.12387  -2.51775 
 H                     2.11386   1.14782  -2.44843 
 C                    -0.27321   0.65278   1.39995 
 H                    -0.04391   1.72457   1.2869 
 C                    -0.43559   0.81424  -1.23589 
 H                    -0.11086   1.85631  -1.10145 
 H                    -1.52468   0.83988  -1.34254 
 C                     2.30696  -0.47845  -3.83834 
 C                     1.93337  -0.55014   1.38292 
 H                     2.93687  -0.24457   1.69552 
 H                     1.92433  -1.64717   1.37892 
 C                     0.16975   0.25162  -2.53869 
 H                    -0.2817   -0.72598  -2.7387 
 H                    -0.13539   0.89848  -3.36899 
 C                     0.82932   0.01687   2.31695 
 H                     0.39782  -0.77445   2.94127 
 H                     1.24362   0.75933   3.00536 
 C                     3.74614  -0.5081   -1.15905 
 H                     4.13052  -1.23535  -0.43152 
 H                     4.02872   0.48013  -0.75938 
 C                    -1.68774   0.56021   2.02837 
 H                    -1.89485  -0.50483   2.20999 
 C                    -0.58914  -1.42887  -0.05011 
 H                    -1.682    -1.39565  -0.10771 
 H                    -0.23833  -1.99225  -0.91822 
 H                    -0.32868  -2.01138   0.83882 
 C                     3.81307  -0.72644  -3.67388 
 C                     2.10765   0.55488  -4.99078 
 H                     2.42917   1.54057  -4.6264 
 H                     1.04038   0.64219  -5.22158 
 C                     4.42735  -0.71768  -2.48166 
 H                     5.50583  -0.87695  -2.45038 
 C                     1.61959  -1.81725  -4.21881 
 H                     0.5798   -1.66098  -4.52293 
 H                     2.12789  -2.30613  -5.05361 
 H                     1.62993  -2.51939  -3.37938 
 C                     4.60142  -0.98776  -4.94384 
 H                     5.67022  -1.05625  -4.7033 
 H                     4.31538  -1.95102  -5.38951 
 C                     2.87364   0.23889  -6.28367 
 H                     2.51009  -0.68839  -6.74383 
 H                     2.71419   1.03676  -7.01787 
 C                    -1.72992   1.28485   3.40928 
 H                    -0.71064   1.49317   3.75009 
 H                    -2.19921   2.26991   3.28293 
 C                     4.36485   0.08943  -6.01227 
 H                     4.7595    1.05103  -5.64439 
 C                    -2.79775   1.10567   1.11102 
 H                    -2.57318   2.13202   0.79506 
 H                    -3.75919   1.12749   1.63245 
 H                    -2.9313    0.50112   0.21053 
 C                    -2.43024   0.50869   4.54424 
 H                    -1.93437  -0.46672   4.6454 
 H                    -2.24222   1.0327    5.4902 
 C                    -3.94309   0.26066   4.39594 
 H                    -4.26113  -0.41527   5.20364 
 H                    -4.1308   -0.28712   3.46263 
 C                    -4.8549    1.50623   4.43278 
 H                    -4.5223    2.20387   3.65095 
 C                    -4.78407   2.24579   5.77875 
 H                    -3.77498   2.60781   5.99988 
 H                    -5.45282   3.11403   5.78293 
 H                    -5.09058   1.58652   6.60137 
 C                    -6.30587   1.11161   4.11323 
 H                    -6.38226   0.62458   3.13419 
 H                    -6.96463   1.98748   4.1044 
 H                    -6.69429   0.41118   4.86379 
 
 NAtoms=     74 NQM=       74 NQMF=       0 NMMI=      0 NMMIF=      0
                NMic=       0 NMicF=      0.
                    Isotopes and Nuclear Properties:
 (Nuclear quadrupole moments (NQMom) in fm**2, nuclear magnetic moments (NMagM)
  in nuclear magnetons)

  Atom         1           2           3           4           5           6           7           8           9          10
 IAtWgt=          16           1          12          12           1          12           1          12           1          12
 AtmWgt=  15.9949146   1.0078250  12.0000000  12.0000000   1.0078250  12.0000000   1.0078250  12.0000000   1.0078250  12.0000000
 NucSpn=           0           1           0           0           1           0           1           0           1           0
 AtZEff=   0.0000000   0.0000000   0.0000000   0.0000000   0.0000000   0.0000000   0.0000000   0.0000000   0.0000000   0.0000000
 NQMom=    0.0000000   0.0000000   0.0000000   0.0000000   0.0000000   0.0000000   0.0000000   0.0000000   0.0000000   0.0000000
 NMagM=    0.0000000   2.7928460   0.0000000   0.0000000   2.7928460   0.0000000   2.7928460   0.0000000   2.7928460   0.0000000
 AtZNuc=   8.0000000   1.0000000   6.0000000   6.0000000   1.0000000   6.0000000   1.0000000   6.0000000   1.0000000   6.0000000

  Atom        11          12          13          14          15          16          17          18          19          20
 IAtWgt=           1          12           1           1          12          12           1           1          12           1
 AtmWgt=   1.0078250  12.0000000   1.0078250   1.0078250  12.0000000  12.0000000   1.0078250   1.0078250  12.0000000   1.0078250
 NucSpn=           1           0           1           1           0           0           1           1           0           1
 AtZEff=   0.0000000   0.0000000   0.0000000   0.0000000   0.0000000   0.0000000   0.0000000   0.0000000   0.0000000   0.0000000
 NQMom=    0.0000000   0.0000000   0.0000000   0.0000000   0.0000000   0.0000000   0.0000000   0.0000000   0.0000000   0.0000000
 NMagM=    2.7928460   0.0000000   2.7928460   2.7928460   0.0000000   0.0000000   2.7928460   2.7928460   0.0000000   2.7928460
 AtZNuc=   1.0000000   6.0000000   1.0000000   1.0000000   6.0000000   6.0000000   1.0000000   1.0000000   6.0000000   1.0000000

  Atom        21          22          23          24          25          26          27          28          29          30
 IAtWgt=           1          12           1           1          12           1           1          12           1          12
 AtmWgt=   1.0078250  12.0000000   1.0078250   1.0078250  12.0000000   1.0078250   1.0078250  12.0000000   1.0078250  12.0000000
 NucSpn=           1           0           1           1           0           1           1           0           1           0
 AtZEff=   0.0000000   0.0000000   0.0000000   0.0000000   0.0000000   0.0000000   0.0000000   0.0000000   0.0000000   0.0000000
 NQMom=    0.0000000   0.0000000   0.0000000   0.0000000   0.0000000   0.0000000   0.0000000   0.0000000   0.0000000   0.0000000
 NMagM=    2.7928460   0.0000000   2.7928460   2.7928460   0.0000000   2.7928460   2.7928460   0.0000000   2.7928460   0.0000000
 AtZNuc=   1.0000000   6.0000000   1.0000000   1.0000000   6.0000000   1.0000000   1.0000000   6.0000000   1.0000000   6.0000000

  Atom        31          32          33          34          35          36          37          38          39          40
 IAtWgt=           1           1           1          12          12           1           1          12           1          12
 AtmWgt=   1.0078250   1.0078250   1.0078250  12.0000000  12.0000000   1.0078250   1.0078250  12.0000000   1.0078250  12.0000000
 NucSpn=           1           1           1           0           0           1           1           0           1           0
 AtZEff=   0.0000000   0.0000000   0.0000000   0.0000000   0.0000000   0.0000000   0.0000000   0.0000000   0.0000000   0.0000000
 NQMom=    0.0000000   0.0000000   0.0000000   0.0000000   0.0000000   0.0000000   0.0000000   0.0000000   0.0000000   0.0000000
 NMagM=    2.7928460   2.7928460   2.7928460   0.0000000   0.0000000   2.7928460   2.7928460   0.0000000   2.7928460   0.0000000
 AtZNuc=   1.0000000   1.0000000   1.0000000   6.0000000   6.0000000   1.0000000   1.0000000   6.0000000   1.0000000   6.0000000

  Atom        41          42          43          44          45          46          47          48          49          50
 IAtWgt=           1           1           1          12           1           1          12           1           1          12
 AtmWgt=   1.0078250   1.0078250   1.0078250  12.0000000   1.0078250   1.0078250  12.0000000   1.0078250   1.0078250  12.0000000
 NucSpn=           1           1           1           0           1           1           0           1           1           0
 AtZEff=   0.0000000   0.0000000   0.0000000   0.0000000   0.0000000   0.0000000   0.0000000   0.0000000   0.0000000   0.0000000
 NQMom=    0.0000000   0.0000000   0.0000000   0.0000000   0.0000000   0.0000000   0.0000000   0.0000000   0.0000000   0.0000000
 NMagM=    2.7928460   2.7928460   2.7928460   0.0000000   2.7928460   2.7928460   0.0000000   2.7928460   2.7928460   0.0000000
 AtZNuc=   1.0000000   1.0000000   1.0000000   6.0000000   1.0000000   1.0000000   6.0000000   1.0000000   1.0000000   6.0000000

  Atom        51          52          53          54          55          56          57          58          59          60
 IAtWgt=           1           1          12           1          12           1           1           1          12           1
 AtmWgt=   1.0078250   1.0078250  12.0000000   1.0078250  12.0000000   1.0078250   1.0078250   1.0078250  12.0000000   1.0078250
 NucSpn=           1           1           0           1           0           1           1           1           0           1
 AtZEff=   0.0000000   0.0000000   0.0000000   0.0000000   0.0000000   0.0000000   0.0000000   0.0000000   0.0000000   0.0000000
 NQMom=    0.0000000   0.0000000   0.0000000   0.0000000   0.0000000   0.0000000   0.0000000   0.0000000   0.0000000   0.0000000
 NMagM=    2.7928460   2.7928460   0.0000000   2.7928460   0.0000000   2.7928460   2.7928460   2.7928460   0.0000000   2.7928460
 AtZNuc=   1.0000000   1.0000000   6.0000000   1.0000000   6.0000000   1.0000000   1.0000000   1.0000000   6.0000000   1.0000000

  Atom        61          62          63          64          65          66          67          68          69          70
 IAtWgt=           1          12           1           1          12           1          12           1           1           1
 AtmWgt=   1.0078250  12.0000000   1.0078250   1.0078250  12.0000000   1.0078250  12.0000000   1.0078250   1.0078250   1.0078250
 NucSpn=           1           0           1           1           0           1           0           1           1           1
 AtZEff=   0.0000000   0.0000000   0.0000000   0.0000000   0.0000000   0.0000000   0.0000000   0.0000000   0.0000000   0.0000000
 NQMom=    0.0000000   0.0000000   0.0000000   0.0000000   0.0000000   0.0000000   0.0000000   0.0000000   0.0000000   0.0000000
 NMagM=    2.7928460   0.0000000   2.7928460   2.7928460   0.0000000   2.7928460   0.0000000   2.7928460   2.7928460   2.7928460
 AtZNuc=   1.0000000   6.0000000   1.0000000   1.0000000   6.0000000   1.0000000   6.0000000   1.0000000   1.0000000   1.0000000

  Atom        71          72          73          74
 IAtWgt=          12           1           1           1
 AtmWgt=  12.0000000   1.0078250   1.0078250   1.0078250
 NucSpn=           0           1           1           1
 AtZEff=   0.0000000   0.0000000   0.0000000   0.0000000
 NQMom=    0.0000000   0.0000000   0.0000000   0.0000000
 NMagM=    0.0000000   2.7928460   2.7928460   2.7928460
 AtZNuc=   6.0000000   1.0000000   1.0000000   1.0000000
 Leave Link  101 at Tue Mar 21 12:08:41 2017, MaxMem=    33554432 cpu:         1.0
 (Enter /home/michal/g09/l202.exe)
 Symmetry turned off by external request.
 Stoichiometry    C27H46O
 Framework group  C1[X(C27H46O)]
 Deg. of freedom   216
 Full point group                 C1      NOp   1
                          Input orientation:                          
 ---------------------------------------------------------------------
 Center     Atomic      Atomic             Coordinates (Angstroms)
 Number     Number       Type             X           Y           Z
 ---------------------------------------------------------------------
      1          8           0        4.998829   -0.242127   -7.253881
      2          1           0        5.950399   -0.325477   -7.107214
      3          6           0        0.000000    0.000000    0.000000
      4          6           0        1.554627    0.000000    0.000000
      5          1           0        1.841828    1.065881    0.000000
      6          6           0        2.214361   -0.606480   -1.245428
      7          1           0        1.949351   -1.671191   -1.312424
      8          6           0        1.710552    0.123870   -2.517753
      9          1           0        2.113862    1.147817   -2.448432
     10          6           0       -0.273208    0.652777    1.399955
     11          1           0       -0.043908    1.724573    1.286897
     12          6           0       -0.435590    0.814241   -1.235887
     13          1           0       -0.110859    1.856306   -1.101453
     14          1           0       -1.524676    0.839878   -1.342540
     15          6           0        2.306958   -0.478446   -3.838340
     16          6           0        1.933371   -0.550135    1.382923
     17          1           0        2.936870   -0.244567    1.695522
     18          1           0        1.924329   -1.647169    1.378917
     19          6           0        0.169746    0.251619   -2.538686
     20          1           0       -0.281702   -0.725982   -2.738699
     21          1           0       -0.135390    0.898478   -3.368985
     22          6           0        0.829318    0.016868    2.316954
     23          1           0        0.397822   -0.774449    2.941267
     24          1           0        1.243617    0.759328    3.005362
     25          6           0        3.746136   -0.508103   -1.159052
     26          1           0        4.130515   -1.235347   -0.431517
     27          1           0        4.028719    0.480128   -0.759377
     28          6           0       -1.687738    0.560212    2.028367
     29          1           0       -1.894847   -0.504831    2.209987
     30          6           0       -0.589141   -1.428872   -0.050110
     31          1           0       -1.682004   -1.395648   -0.107710
     32          1           0       -0.238328   -1.992252   -0.918222
     33          1           0       -0.328682   -2.011380    0.838817
     34          6           0        3.813067   -0.726444   -3.673875
     35          6           0        2.107650    0.554880   -4.990777
     36          1           0        2.429175    1.540566   -4.626404
     37          1           0        1.040377    0.642187   -5.221581
     38          6           0        4.427348   -0.717680   -2.481665
     39          1           0        5.505826   -0.876954   -2.450380
     40          6           0        1.619586   -1.817250   -4.218812
     41          1           0        0.579798   -1.660978   -4.522925
     42          1           0        2.127890   -2.306135   -5.053615
     43          1           0        1.629928   -2.519388   -3.379379
     44          6           0        4.601418   -0.987755   -4.943840
     45          1           0        5.670216   -1.056251   -4.703304
     46          1           0        4.315378   -1.951021   -5.389508
     47          6           0        2.873638    0.238890   -6.283670
     48          1           0        2.510087   -0.688386   -6.743834
     49          1           0        2.714189    1.036760   -7.017872
     50          6           0       -1.729917    1.284846    3.409285
     51          1           0       -0.710637    1.493168    3.750093
     52          1           0       -2.199211    2.269913    3.282934
     53          6           0        4.364848    0.089429   -6.012271
     54          1           0        4.759495    1.051033   -5.644388
     55          6           0       -2.797754    1.105671    1.111020
     56          1           0       -2.573176    2.132023    0.795061
     57          1           0       -3.759193    1.127493    1.632447
     58          1           0       -2.931297    0.501117    0.210528
     59          6           0       -2.430244    0.508694    4.544238
     60          1           0       -1.934368   -0.466721    4.645397
     61          1           0       -2.242223    1.032705    5.490202
     62          6           0       -3.943094    0.260658    4.395945
     63          1           0       -4.261128   -0.415273    5.203641
     64          1           0       -4.130798   -0.287119    3.462632
     65          6           0       -4.854901    1.506231    4.432778
     66          1           0       -4.522298    2.203872    3.650954
     67          6           0       -4.784068    2.245789    5.778745
     68          1           0       -3.774980    2.607807    5.999875
     69          1           0       -5.452815    3.114029    5.782928
     70          1           0       -5.090576    1.586519    6.601373
     71          6           0       -6.305872    1.111614    4.113225
     72          1           0       -6.382257    0.624577    3.134191
     73          1           0       -6.964626    1.987482    4.104397
     74          1           0       -6.694287    0.411183    4.863789
 ---------------------------------------------------------------------
 Rotational constants (GHZ):      0.5608491      0.0571627      0.0541633
 Leave Link  202 at Tue Mar 21 12:08:41 2017, MaxMem=    33554432 cpu:         0.5
 (Enter /home/michal/g09/l301.exe)
 Standard basis: 6-31G(d) (6D, 7F)
 Ernie: Thresh=  0.10000D-02 Tol=  0.10000D-05 Strict=F.
 AO basis set in the form of general basis input (Overlap normalization):
      1 0
 S   6 1.00       0.000000000000
      0.5484671660D+04  0.1831074430D-02
      0.8252349460D+03  0.1395017220D-01
      0.1880469580D+03  0.6844507810D-01
      0.5296450000D+02  0.2327143360D+00
      0.1689757040D+02  0.4701928980D+00
      0.5799635340D+01  0.3585208530D+00
 SP   3 1.00       0.000000000000
      0.1553961625D+02 -0.1107775495D+00  0.7087426823D-01
      0.3599933586D+01 -0.1480262627D+00  0.3397528391D+00
      0.1013761750D+01  0.1130767015D+01  0.7271585773D+00
 SP   1 1.00       0.000000000000
      0.2700058226D+00  0.1000000000D+01  0.1000000000D+01
 D   1 1.00       0.000000000000
      0.8000000000D+00  0.1000000000D+01
 ****
      2 0
 S   3 1.00       0.000000000000
      0.1873113696D+02  0.3349460434D-01
      0.2825394365D+01  0.2347269535D+00
      0.6401216923D+00  0.8137573261D+00
 S   1 1.00       0.000000000000
      0.1612777588D+00  0.1000000000D+01
 ****
      3 0
 S   6 1.00       0.000000000000
      0.3047524880D+04  0.1834737132D-02
      0.4573695180D+03  0.1403732281D-01
      0.1039486850D+03  0.6884262226D-01
      0.2921015530D+02  0.2321844432D+00
      0.9286662960D+01  0.4679413484D+00
      0.3163926960D+01  0.3623119853D+00
 SP   3 1.00       0.000000000000
      0.7868272350D+01 -0.1193324198D+00  0.6899906659D-01
      0.1881288540D+01 -0.1608541517D+00  0.3164239610D+00
      0.5442492580D+00  0.1143456438D+01  0.7443082909D+00
 SP   1 1.00       0.000000000000
      0.1687144782D+00  0.1000000000D+01  0.1000000000D+01
 D   1 1.00       0.000000000000
      0.8000000000D+00  0.1000000000D+01
 ****
      4 0
 S   6 1.00       0.000000000000
      0.3047524880D+04  0.1834737132D-02
      0.4573695180D+03  0.1403732281D-01
      0.1039486850D+03  0.6884262226D-01
      0.2921015530D+02  0.2321844432D+00
      0.9286662960D+01  0.4679413484D+00
      0.3163926960D+01  0.3623119853D+00
 SP   3 1.00       0.000000000000
      0.7868272350D+01 -0.1193324198D+00  0.6899906659D-01
      0.1881288540D+01 -0.1608541517D+00  0.3164239610D+00
      0.5442492580D+00  0.1143456438D+01  0.7443082909D+00
 SP   1 1.00       0.000000000000
      0.1687144782D+00  0.1000000000D+01  0.1000000000D+01
 D   1 1.00       0.000000000000
      0.8000000000D+00  0.1000000000D+01
 ****
      5 0
 S   3 1.00       0.000000000000
      0.1873113696D+02  0.3349460434D-01
      0.2825394365D+01  0.2347269535D+00
      0.6401216923D+00  0.8137573261D+00
 S   1 1.00       0.000000000000
      0.1612777588D+00  0.1000000000D+01
 ****
      6 0
 S   6 1.00       0.000000000000
      0.3047524880D+04  0.1834737132D-02
      0.4573695180D+03  0.1403732281D-01
      0.1039486850D+03  0.6884262226D-01
      0.2921015530D+02  0.2321844432D+00
      0.9286662960D+01  0.4679413484D+00
      0.3163926960D+01  0.3623119853D+00
 SP   3 1.00       0.000000000000
      0.7868272350D+01 -0.1193324198D+00  0.6899906659D-01
      0.1881288540D+01 -0.1608541517D+00  0.3164239610D+00
      0.5442492580D+00  0.1143456438D+01  0.7443082909D+00
 SP   1 1.00       0.000000000000
      0.1687144782D+00  0.1000000000D+01  0.1000000000D+01
 D   1 1.00       0.000000000000
      0.8000000000D+00  0.1000000000D+01
 ****
      7 0
 S   3 1.00       0.000000000000
      0.1873113696D+02  0.3349460434D-01
      0.2825394365D+01  0.2347269535D+00
      0.6401216923D+00  0.8137573261D+00
 S   1 1.00       0.000000000000
      0.1612777588D+00  0.1000000000D+01
 ****
      8 0
 S   6 1.00       0.000000000000
      0.3047524880D+04  0.1834737132D-02
      0.4573695180D+03  0.1403732281D-01
      0.1039486850D+03  0.6884262226D-01
      0.2921015530D+02  0.2321844432D+00
      0.9286662960D+01  0.4679413484D+00
      0.3163926960D+01  0.3623119853D+00
 SP   3 1.00       0.000000000000
      0.7868272350D+01 -0.1193324198D+00  0.6899906659D-01
      0.1881288540D+01 -0.1608541517D+00  0.3164239610D+00
      0.5442492580D+00  0.1143456438D+01  0.7443082909D+00
 SP   1 1.00       0.000000000000
      0.1687144782D+00  0.1000000000D+01  0.1000000000D+01
 D   1 1.00       0.000000000000
      0.8000000000D+00  0.1000000000D+01
 ****
      9 0
 S   3 1.00       0.000000000000
      0.1873113696D+02  0.3349460434D-01
      0.2825394365D+01  0.2347269535D+00
      0.6401216923D+00  0.8137573261D+00
 S   1 1.00       0.000000000000
      0.1612777588D+00  0.1000000000D+01
 ****
     10 0
 S   6 1.00       0.000000000000
      0.3047524880D+04  0.1834737132D-02
      0.4573695180D+03  0.1403732281D-01
      0.1039486850D+03  0.6884262226D-01
      0.2921015530D+02  0.2321844432D+00
      0.9286662960D+01  0.4679413484D+00
      0.3163926960D+01  0.3623119853D+00
 SP   3 1.00       0.000000000000
      0.7868272350D+01 -0.1193324198D+00  0.6899906659D-01
      0.1881288540D+01 -0.1608541517D+00  0.3164239610D+00
      0.5442492580D+00  0.1143456438D+01  0.7443082909D+00
 SP   1 1.00       0.000000000000
      0.1687144782D+00  0.1000000000D+01  0.1000000000D+01
 D   1 1.00       0.000000000000
      0.8000000000D+00  0.1000000000D+01
 ****
     11 0
 S   3 1.00       0.000000000000
      0.1873113696D+02  0.3349460434D-01
      0.2825394365D+01  0.2347269535D+00
      0.6401216923D+00  0.8137573261D+00
 S   1 1.00       0.000000000000
      0.1612777588D+00  0.1000000000D+01
 ****
     12 0
 S   6 1.00       0.000000000000
      0.3047524880D+04  0.1834737132D-02
      0.4573695180D+03  0.1403732281D-01
      0.1039486850D+03  0.6884262226D-01
      0.2921015530D+02  0.2321844432D+00
      0.9286662960D+01  0.4679413484D+00
      0.3163926960D+01  0.3623119853D+00
 SP   3 1.00       0.000000000000
      0.7868272350D+01 -0.1193324198D+00  0.6899906659D-01
      0.1881288540D+01 -0.1608541517D+00  0.3164239610D+00
      0.5442492580D+00  0.1143456438D+01  0.7443082909D+00
 SP   1 1.00       0.000000000000
      0.1687144782D+00  0.1000000000D+01  0.1000000000D+01
 D   1 1.00       0.000000000000
      0.8000000000D+00  0.1000000000D+01
 ****
     13 0
 S   3 1.00       0.000000000000
      0.1873113696D+02  0.3349460434D-01
      0.2825394365D+01  0.2347269535D+00
      0.6401216923D+00  0.8137573261D+00
 S   1 1.00       0.000000000000
      0.1612777588D+00  0.1000000000D+01
 ****
     14 0
 S   3 1.00       0.000000000000
      0.1873113696D+02  0.3349460434D-01
      0.2825394365D+01  0.2347269535D+00
      0.6401216923D+00  0.8137573261D+00
 S   1 1.00       0.000000000000
      0.1612777588D+00  0.1000000000D+01
 ****
     15 0
 S   6 1.00       0.000000000000
      0.3047524880D+04  0.1834737132D-02
      0.4573695180D+03  0.1403732281D-01
      0.1039486850D+03  0.6884262226D-01
      0.2921015530D+02  0.2321844432D+00
      0.9286662960D+01  0.4679413484D+00
      0.3163926960D+01  0.3623119853D+00
 SP   3 1.00       0.000000000000
      0.7868272350D+01 -0.1193324198D+00  0.6899906659D-01
      0.1881288540D+01 -0.1608541517D+00  0.3164239610D+00
      0.5442492580D+00  0.1143456438D+01  0.7443082909D+00
 SP   1 1.00       0.000000000000
      0.1687144782D+00  0.1000000000D+01  0.1000000000D+01
 D   1 1.00       0.000000000000
      0.8000000000D+00  0.1000000000D+01
 ****
     16 0
 S   6 1.00       0.000000000000
      0.3047524880D+04  0.1834737132D-02
      0.4573695180D+03  0.1403732281D-01
      0.1039486850D+03  0.6884262226D-01
      0.2921015530D+02  0.2321844432D+00
      0.9286662960D+01  0.4679413484D+00
      0.3163926960D+01  0.3623119853D+00
 SP   3 1.00       0.000000000000
      0.7868272350D+01 -0.1193324198D+00  0.6899906659D-01
      0.1881288540D+01 -0.1608541517D+00  0.3164239610D+00
      0.5442492580D+00  0.1143456438D+01  0.7443082909D+00
 SP   1 1.00       0.000000000000
      0.1687144782D+00  0.1000000000D+01  0.1000000000D+01
 D   1 1.00       0.000000000000
      0.8000000000D+00  0.1000000000D+01
 ****
     17 0
 S   3 1.00       0.000000000000
      0.1873113696D+02  0.3349460434D-01
      0.2825394365D+01  0.2347269535D+00
      0.6401216923D+00  0.8137573261D+00
 S   1 1.00       0.000000000000
      0.1612777588D+00  0.1000000000D+01
 ****
     18 0
 S   3 1.00       0.000000000000
      0.1873113696D+02  0.3349460434D-01
      0.2825394365D+01  0.2347269535D+00
      0.6401216923D+00  0.8137573261D+00
 S   1 1.00       0.000000000000
      0.1612777588D+00  0.1000000000D+01
 ****
     19 0
 S   6 1.00       0.000000000000
      0.3047524880D+04  0.1834737132D-02
      0.4573695180D+03  0.1403732281D-01
      0.1039486850D+03  0.6884262226D-01
      0.2921015530D+02  0.2321844432D+00
      0.9286662960D+01  0.4679413484D+00
      0.3163926960D+01  0.3623119853D+00
 SP   3 1.00       0.000000000000
      0.7868272350D+01 -0.1193324198D+00  0.6899906659D-01
      0.1881288540D+01 -0.1608541517D+00  0.3164239610D+00
      0.5442492580D+00  0.1143456438D+01  0.7443082909D+00
 SP   1 1.00       0.000000000000
      0.1687144782D+00  0.1000000000D+01  0.1000000000D+01
 D   1 1.00       0.000000000000
      0.8000000000D+00  0.1000000000D+01
 ****
     20 0
 S   3 1.00       0.000000000000
      0.1873113696D+02  0.3349460434D-01
      0.2825394365D+01  0.2347269535D+00
      0.6401216923D+00  0.8137573261D+00
 S   1 1.00       0.000000000000
      0.1612777588D+00  0.1000000000D+01
 ****
     21 0
 S   3 1.00       0.000000000000
      0.1873113696D+02  0.3349460434D-01
      0.2825394365D+01  0.2347269535D+00
      0.6401216923D+00  0.8137573261D+00
 S   1 1.00       0.000000000000
      0.1612777588D+00  0.1000000000D+01
 ****
     22 0
 S   6 1.00       0.000000000000
      0.3047524880D+04  0.1834737132D-02
      0.4573695180D+03  0.1403732281D-01
      0.1039486850D+03  0.6884262226D-01
      0.2921015530D+02  0.2321844432D+00
      0.9286662960D+01  0.4679413484D+00
      0.3163926960D+01  0.3623119853D+00
 SP   3 1.00       0.000000000000
      0.7868272350D+01 -0.1193324198D+00  0.6899906659D-01
      0.1881288540D+01 -0.1608541517D+00  0.3164239610D+00
      0.5442492580D+00  0.1143456438D+01  0.7443082909D+00
 SP   1 1.00       0.000000000000
      0.1687144782D+00  0.1000000000D+01  0.1000000000D+01
 D   1 1.00       0.000000000000
      0.8000000000D+00  0.1000000000D+01
 ****
     23 0
 S   3 1.00       0.000000000000
      0.1873113696D+02  0.3349460434D-01
      0.2825394365D+01  0.2347269535D+00
      0.6401216923D+00  0.8137573261D+00
 S   1 1.00       0.000000000000
      0.1612777588D+00  0.1000000000D+01
 ****
     24 0
 S   3 1.00       0.000000000000
      0.1873113696D+02  0.3349460434D-01
      0.2825394365D+01  0.2347269535D+00
      0.6401216923D+00  0.8137573261D+00
 S   1 1.00       0.000000000000
      0.1612777588D+00  0.1000000000D+01
 ****
     25 0
 S   6 1.00       0.000000000000
      0.3047524880D+04  0.1834737132D-02
      0.4573695180D+03  0.1403732281D-01
      0.1039486850D+03  0.6884262226D-01
      0.2921015530D+02  0.2321844432D+00
      0.9286662960D+01  0.4679413484D+00
      0.3163926960D+01  0.3623119853D+00
 SP   3 1.00       0.000000000000
      0.7868272350D+01 -0.1193324198D+00  0.6899906659D-01
      0.1881288540D+01 -0.1608541517D+00  0.3164239610D+00
      0.5442492580D+00  0.1143456438D+01  0.7443082909D+00
 SP   1 1.00       0.000000000000
      0.1687144782D+00  0.1000000000D+01  0.1000000000D+01
 D   1 1.00       0.000000000000
      0.8000000000D+00  0.1000000000D+01
 ****
     26 0
 S   3 1.00       0.000000000000
      0.1873113696D+02  0.3349460434D-01
      0.2825394365D+01  0.2347269535D+00
      0.6401216923D+00  0.8137573261D+00
 S   1 1.00       0.000000000000
      0.1612777588D+00  0.1000000000D+01
 ****
     27 0
 S   3 1.00       0.000000000000
      0.1873113696D+02  0.3349460434D-01
      0.2825394365D+01  0.2347269535D+00
      0.6401216923D+00  0.8137573261D+00
 S   1 1.00       0.000000000000
      0.1612777588D+00  0.1000000000D+01
 ****
     28 0
 S   6 1.00       0.000000000000
      0.3047524880D+04  0.1834737132D-02
      0.4573695180D+03  0.1403732281D-01
      0.1039486850D+03  0.6884262226D-01
      0.2921015530D+02  0.2321844432D+00
      0.9286662960D+01  0.4679413484D+00
      0.3163926960D+01  0.3623119853D+00
 SP   3 1.00       0.000000000000
      0.7868272350D+01 -0.1193324198D+00  0.6899906659D-01
      0.1881288540D+01 -0.1608541517D+00  0.3164239610D+00
      0.5442492580D+00  0.1143456438D+01  0.7443082909D+00
 SP   1 1.00       0.000000000000
      0.1687144782D+00  0.1000000000D+01  0.1000000000D+01
 D   1 1.00       0.000000000000
      0.8000000000D+00  0.1000000000D+01
 ****
     29 0
 S   3 1.00       0.000000000000
      0.1873113696D+02  0.3349460434D-01
      0.2825394365D+01  0.2347269535D+00
      0.6401216923D+00  0.8137573261D+00
 S   1 1.00       0.000000000000
      0.1612777588D+00  0.1000000000D+01
 ****
     30 0
 S   6 1.00       0.000000000000
      0.3047524880D+04  0.1834737132D-02
      0.4573695180D+03  0.1403732281D-01
      0.1039486850D+03  0.6884262226D-01
      0.2921015530D+02  0.2321844432D+00
      0.9286662960D+01  0.4679413484D+00
      0.3163926960D+01  0.3623119853D+00
 SP   3 1.00       0.000000000000
      0.7868272350D+01 -0.1193324198D+00  0.6899906659D-01
      0.1881288540D+01 -0.1608541517D+00  0.3164239610D+00
      0.5442492580D+00  0.1143456438D+01  0.7443082909D+00
 SP   1 1.00       0.000000000000
      0.1687144782D+00  0.1000000000D+01  0.1000000000D+01
 D   1 1.00       0.000000000000
      0.8000000000D+00  0.1000000000D+01
 ****
     31 0
 S   3 1.00       0.000000000000
      0.1873113696D+02  0.3349460434D-01
      0.2825394365D+01  0.2347269535D+00
      0.6401216923D+00  0.8137573261D+00
 S   1 1.00       0.000000000000
      0.1612777588D+00  0.1000000000D+01
 ****
     32 0
 S   3 1.00       0.000000000000
      0.1873113696D+02  0.3349460434D-01
      0.2825394365D+01  0.2347269535D+00
      0.6401216923D+00  0.8137573261D+00
 S   1 1.00       0.000000000000
      0.1612777588D+00  0.1000000000D+01
 ****
     33 0
 S   3 1.00       0.000000000000
      0.1873113696D+02  0.3349460434D-01
      0.2825394365D+01  0.2347269535D+00
      0.6401216923D+00  0.8137573261D+00
 S   1 1.00       0.000000000000
      0.1612777588D+00  0.1000000000D+01
 ****
     34 0
 S   6 1.00       0.000000000000
      0.3047524880D+04  0.1834737132D-02
      0.4573695180D+03  0.1403732281D-01
      0.1039486850D+03  0.6884262226D-01
      0.2921015530D+02  0.2321844432D+00
      0.9286662960D+01  0.4679413484D+00
      0.3163926960D+01  0.3623119853D+00
 SP   3 1.00       0.000000000000
      0.7868272350D+01 -0.1193324198D+00  0.6899906659D-01
      0.1881288540D+01 -0.1608541517D+00  0.3164239610D+00
      0.5442492580D+00  0.1143456438D+01  0.7443082909D+00
 SP   1 1.00       0.000000000000
      0.1687144782D+00  0.1000000000D+01  0.1000000000D+01
 D   1 1.00       0.000000000000
      0.8000000000D+00  0.1000000000D+01
 ****
     35 0
 S   6 1.00       0.000000000000
      0.3047524880D+04  0.1834737132D-02
      0.4573695180D+03  0.1403732281D-01
      0.1039486850D+03  0.6884262226D-01
      0.2921015530D+02  0.2321844432D+00
      0.9286662960D+01  0.4679413484D+00
      0.3163926960D+01  0.3623119853D+00
 SP   3 1.00       0.000000000000
      0.7868272350D+01 -0.1193324198D+00  0.6899906659D-01
      0.1881288540D+01 -0.1608541517D+00  0.3164239610D+00
      0.5442492580D+00  0.1143456438D+01  0.7443082909D+00
 SP   1 1.00       0.000000000000
      0.1687144782D+00  0.1000000000D+01  0.1000000000D+01
 D   1 1.00       0.000000000000
      0.8000000000D+00  0.1000000000D+01
 ****
     36 0
 S   3 1.00       0.000000000000
      0.1873113696D+02  0.3349460434D-01
      0.2825394365D+01  0.2347269535D+00
      0.6401216923D+00  0.8137573261D+00
 S   1 1.00       0.000000000000
      0.1612777588D+00  0.1000000000D+01
 ****
     37 0
 S   3 1.00       0.000000000000
      0.1873113696D+02  0.3349460434D-01
      0.2825394365D+01  0.2347269535D+00
      0.6401216923D+00  0.8137573261D+00
 S   1 1.00       0.000000000000
      0.1612777588D+00  0.1000000000D+01
 ****
     38 0
 S   6 1.00       0.000000000000
      0.3047524880D+04  0.1834737132D-02
      0.4573695180D+03  0.1403732281D-01
      0.1039486850D+03  0.6884262226D-01
      0.2921015530D+02  0.2321844432D+00
      0.9286662960D+01  0.4679413484D+00
      0.3163926960D+01  0.3623119853D+00
 SP   3 1.00       0.000000000000
      0.7868272350D+01 -0.1193324198D+00  0.6899906659D-01
      0.1881288540D+01 -0.1608541517D+00  0.3164239610D+00
      0.5442492580D+00  0.1143456438D+01  0.7443082909D+00
 SP   1 1.00       0.000000000000
      0.1687144782D+00  0.1000000000D+01  0.1000000000D+01
 D   1 1.00       0.000000000000
      0.8000000000D+00  0.1000000000D+01
 ****
     39 0
 S   3 1.00       0.000000000000
      0.1873113696D+02  0.3349460434D-01
      0.2825394365D+01  0.2347269535D+00
      0.6401216923D+00  0.8137573261D+00
 S   1 1.00       0.000000000000
      0.1612777588D+00  0.1000000000D+01
 ****
     40 0
 S   6 1.00       0.000000000000
      0.3047524880D+04  0.1834737132D-02
      0.4573695180D+03  0.1403732281D-01
      0.1039486850D+03  0.6884262226D-01
      0.2921015530D+02  0.2321844432D+00
      0.9286662960D+01  0.4679413484D+00
      0.3163926960D+01  0.3623119853D+00
 SP   3 1.00       0.000000000000
      0.7868272350D+01 -0.1193324198D+00  0.6899906659D-01
      0.1881288540D+01 -0.1608541517D+00  0.3164239610D+00
      0.5442492580D+00  0.1143456438D+01  0.7443082909D+00
 SP   1 1.00       0.000000000000
      0.1687144782D+00  0.1000000000D+01  0.1000000000D+01
 D   1 1.00       0.000000000000
      0.8000000000D+00  0.1000000000D+01
 ****
     41 0
 S   3 1.00       0.000000000000
      0.1873113696D+02  0.3349460434D-01
      0.2825394365D+01  0.2347269535D+00
      0.6401216923D+00  0.8137573261D+00
 S   1 1.00       0.000000000000
      0.1612777588D+00  0.1000000000D+01
 ****
     42 0
 S   3 1.00       0.000000000000
      0.1873113696D+02  0.3349460434D-01
      0.2825394365D+01  0.2347269535D+00
      0.6401216923D+00  0.8137573261D+00
 S   1 1.00       0.000000000000
      0.1612777588D+00  0.1000000000D+01
 ****
     43 0
 S   3 1.00       0.000000000000
      0.1873113696D+02  0.3349460434D-01
      0.2825394365D+01  0.2347269535D+00
      0.6401216923D+00  0.8137573261D+00
 S   1 1.00       0.000000000000
      0.1612777588D+00  0.1000000000D+01
 ****
     44 0
 S   6 1.00       0.000000000000
      0.3047524880D+04  0.1834737132D-02
      0.4573695180D+03  0.1403732281D-01
      0.1039486850D+03  0.6884262226D-01
      0.2921015530D+02  0.2321844432D+00
      0.9286662960D+01  0.4679413484D+00
      0.3163926960D+01  0.3623119853D+00
 SP   3 1.00       0.000000000000
      0.7868272350D+01 -0.1193324198D+00  0.6899906659D-01
      0.1881288540D+01 -0.1608541517D+00  0.3164239610D+00
      0.5442492580D+00  0.1143456438D+01  0.7443082909D+00
 SP   1 1.00       0.000000000000
      0.1687144782D+00  0.1000000000D+01  0.1000000000D+01
 D   1 1.00       0.000000000000
      0.8000000000D+00  0.1000000000D+01
 ****
     45 0
 S   3 1.00       0.000000000000
      0.1873113696D+02  0.3349460434D-01
      0.2825394365D+01  0.2347269535D+00
      0.6401216923D+00  0.8137573261D+00
 S   1 1.00       0.000000000000
      0.1612777588D+00  0.1000000000D+01
 ****
     46 0
 S   3 1.00       0.000000000000
      0.1873113696D+02  0.3349460434D-01
      0.2825394365D+01  0.2347269535D+00
      0.6401216923D+00  0.8137573261D+00
 S   1 1.00       0.000000000000
      0.1612777588D+00  0.1000000000D+01
 ****
     47 0
 S   6 1.00       0.000000000000
      0.3047524880D+04  0.1834737132D-02
      0.4573695180D+03  0.1403732281D-01
      0.1039486850D+03  0.6884262226D-01
      0.2921015530D+02  0.2321844432D+00
      0.9286662960D+01  0.4679413484D+00
      0.3163926960D+01  0.3623119853D+00
 SP   3 1.00       0.000000000000
      0.7868272350D+01 -0.1193324198D+00  0.6899906659D-01
      0.1881288540D+01 -0.1608541517D+00  0.3164239610D+00
      0.5442492580D+00  0.1143456438D+01  0.7443082909D+00
 SP   1 1.00       0.000000000000
      0.1687144782D+00  0.1000000000D+01  0.1000000000D+01
 D   1 1.00       0.000000000000
      0.8000000000D+00  0.1000000000D+01
 ****
     48 0
 S   3 1.00       0.000000000000
      0.1873113696D+02  0.3349460434D-01
      0.2825394365D+01  0.2347269535D+00
      0.6401216923D+00  0.8137573261D+00
 S   1 1.00       0.000000000000
      0.1612777588D+00  0.1000000000D+01
 ****
     49 0
 S   3 1.00       0.000000000000
      0.1873113696D+02  0.3349460434D-01
      0.2825394365D+01  0.2347269535D+00
      0.6401216923D+00  0.8137573261D+00
 S   1 1.00       0.000000000000
      0.1612777588D+00  0.1000000000D+01
 ****
     50 0
 S   6 1.00       0.000000000000
      0.3047524880D+04  0.1834737132D-02
      0.4573695180D+03  0.1403732281D-01
      0.1039486850D+03  0.6884262226D-01
      0.2921015530D+02  0.2321844432D+00
      0.9286662960D+01  0.4679413484D+00
      0.3163926960D+01  0.3623119853D+00
 SP   3 1.00       0.000000000000
      0.7868272350D+01 -0.1193324198D+00  0.6899906659D-01
      0.1881288540D+01 -0.1608541517D+00  0.3164239610D+00
      0.5442492580D+00  0.1143456438D+01  0.7443082909D+00
 SP   1 1.00       0.000000000000
      0.1687144782D+00  0.1000000000D+01  0.1000000000D+01
 D   1 1.00       0.000000000000
      0.8000000000D+00  0.1000000000D+01
 ****
     51 0
 S   3 1.00       0.000000000000
      0.1873113696D+02  0.3349460434D-01
      0.2825394365D+01  0.2347269535D+00
      0.6401216923D+00  0.8137573261D+00
 S   1 1.00       0.000000000000
      0.1612777588D+00  0.1000000000D+01
 ****
     52 0
 S   3 1.00       0.000000000000
      0.1873113696D+02  0.3349460434D-01
      0.2825394365D+01  0.2347269535D+00
      0.6401216923D+00  0.8137573261D+00
 S   1 1.00       0.000000000000
      0.1612777588D+00  0.1000000000D+01
 ****
     53 0
 S   6 1.00       0.000000000000
      0.3047524880D+04  0.1834737132D-02
      0.4573695180D+03  0.1403732281D-01
      0.1039486850D+03  0.6884262226D-01
      0.2921015530D+02  0.2321844432D+00
      0.9286662960D+01  0.4679413484D+00
      0.3163926960D+01  0.3623119853D+00
 SP   3 1.00       0.000000000000
      0.7868272350D+01 -0.1193324198D+00  0.6899906659D-01
      0.1881288540D+01 -0.1608541517D+00  0.3164239610D+00
      0.5442492580D+00  0.1143456438D+01  0.7443082909D+00
 SP   1 1.00       0.000000000000
      0.1687144782D+00  0.1000000000D+01  0.1000000000D+01
 D   1 1.00       0.000000000000
      0.8000000000D+00  0.1000000000D+01
 ****
     54 0
 S   3 1.00       0.000000000000
      0.1873113696D+02  0.3349460434D-01
      0.2825394365D+01  0.2347269535D+00
      0.6401216923D+00  0.8137573261D+00
 S   1 1.00       0.000000000000
      0.1612777588D+00  0.1000000000D+01
 ****
     55 0
 S   6 1.00       0.000000000000
      0.3047524880D+04  0.1834737132D-02
      0.4573695180D+03  0.1403732281D-01
      0.1039486850D+03  0.6884262226D-01
      0.2921015530D+02  0.2321844432D+00
      0.9286662960D+01  0.4679413484D+00
      0.3163926960D+01  0.3623119853D+00
 SP   3 1.00       0.000000000000
      0.7868272350D+01 -0.1193324198D+00  0.6899906659D-01
      0.1881288540D+01 -0.1608541517D+00  0.3164239610D+00
      0.5442492580D+00  0.1143456438D+01  0.7443082909D+00
 SP   1 1.00       0.000000000000
      0.1687144782D+00  0.1000000000D+01  0.1000000000D+01
 D   1 1.00       0.000000000000
      0.8000000000D+00  0.1000000000D+01
 ****
     56 0
 S   3 1.00       0.000000000000
      0.1873113696D+02  0.3349460434D-01
      0.2825394365D+01  0.2347269535D+00
      0.6401216923D+00  0.8137573261D+00
 S   1 1.00       0.000000000000
      0.1612777588D+00  0.1000000000D+01
 ****
     57 0
 S   3 1.00       0.000000000000
      0.1873113696D+02  0.3349460434D-01
      0.2825394365D+01  0.2347269535D+00
      0.6401216923D+00  0.8137573261D+00
 S   1 1.00       0.000000000000
      0.1612777588D+00  0.1000000000D+01
 ****
     58 0
 S   3 1.00       0.000000000000
      0.1873113696D+02  0.3349460434D-01
      0.2825394365D+01  0.2347269535D+00
      0.6401216923D+00  0.8137573261D+00
 S   1 1.00       0.000000000000
      0.1612777588D+00  0.1000000000D+01
 ****
     59 0
 S   6 1.00       0.000000000000
      0.3047524880D+04  0.1834737132D-02
      0.4573695180D+03  0.1403732281D-01
      0.1039486850D+03  0.6884262226D-01
      0.2921015530D+02  0.2321844432D+00
      0.9286662960D+01  0.4679413484D+00
      0.3163926960D+01  0.3623119853D+00
 SP   3 1.00       0.000000000000
      0.7868272350D+01 -0.1193324198D+00  0.6899906659D-01
      0.1881288540D+01 -0.1608541517D+00  0.3164239610D+00
      0.5442492580D+00  0.1143456438D+01  0.7443082909D+00
 SP   1 1.00       0.000000000000
      0.1687144782D+00  0.1000000000D+01  0.1000000000D+01
 D   1 1.00       0.000000000000
      0.8000000000D+00  0.1000000000D+01
 ****
     60 0
 S   3 1.00       0.000000000000
      0.1873113696D+02  0.3349460434D-01
      0.2825394365D+01  0.2347269535D+00
      0.6401216923D+00  0.8137573261D+00
 S   1 1.00       0.000000000000
      0.1612777588D+00  0.1000000000D+01
 ****
     61 0
 S   3 1.00       0.000000000000
      0.1873113696D+02  0.3349460434D-01
      0.2825394365D+01  0.2347269535D+00
      0.6401216923D+00  0.8137573261D+00
 S   1 1.00       0.000000000000
      0.1612777588D+00  0.1000000000D+01
 ****
     62 0
 S   6 1.00       0.000000000000
      0.3047524880D+04  0.1834737132D-02
      0.4573695180D+03  0.1403732281D-01
      0.1039486850D+03  0.6884262226D-01
      0.2921015530D+02  0.2321844432D+00
      0.9286662960D+01  0.4679413484D+00
      0.3163926960D+01  0.3623119853D+00
 SP   3 1.00       0.000000000000
      0.7868272350D+01 -0.1193324198D+00  0.6899906659D-01
      0.1881288540D+01 -0.1608541517D+00  0.3164239610D+00
      0.5442492580D+00  0.1143456438D+01  0.7443082909D+00
 SP   1 1.00       0.000000000000
      0.1687144782D+00  0.1000000000D+01  0.1000000000D+01
 D   1 1.00       0.000000000000
      0.8000000000D+00  0.1000000000D+01
 ****
     63 0
 S   3 1.00       0.000000000000
      0.1873113696D+02  0.3349460434D-01
      0.2825394365D+01  0.2347269535D+00
      0.6401216923D+00  0.8137573261D+00
 S   1 1.00       0.000000000000
      0.1612777588D+00  0.1000000000D+01
 ****
     64 0
 S   3 1.00       0.000000000000
      0.1873113696D+02  0.3349460434D-01
      0.2825394365D+01  0.2347269535D+00
      0.6401216923D+00  0.8137573261D+00
 S   1 1.00       0.000000000000
      0.1612777588D+00  0.1000000000D+01
 ****
     65 0
 S   6 1.00       0.000000000000
      0.3047524880D+04  0.1834737132D-02
      0.4573695180D+03  0.1403732281D-01
      0.1039486850D+03  0.6884262226D-01
      0.2921015530D+02  0.2321844432D+00
      0.9286662960D+01  0.4679413484D+00
      0.3163926960D+01  0.3623119853D+00
 SP   3 1.00       0.000000000000
      0.7868272350D+01 -0.1193324198D+00  0.6899906659D-01
      0.1881288540D+01 -0.1608541517D+00  0.3164239610D+00
      0.5442492580D+00  0.1143456438D+01  0.7443082909D+00
 SP   1 1.00       0.000000000000
      0.1687144782D+00  0.1000000000D+01  0.1000000000D+01
 D   1 1.00       0.000000000000
      0.8000000000D+00  0.1000000000D+01
 ****
     66 0
 S   3 1.00       0.000000000000
      0.1873113696D+02  0.3349460434D-01
      0.2825394365D+01  0.2347269535D+00
      0.6401216923D+00  0.8137573261D+00
 S   1 1.00       0.000000000000
      0.1612777588D+00  0.1000000000D+01
 ****
     67 0
 S   6 1.00       0.000000000000
      0.3047524880D+04  0.1834737132D-02
      0.4573695180D+03  0.1403732281D-01
      0.1039486850D+03  0.6884262226D-01
      0.2921015530D+02  0.2321844432D+00
      0.9286662960D+01  0.4679413484D+00
      0.3163926960D+01  0.3623119853D+00
 SP   3 1.00       0.000000000000
      0.7868272350D+01 -0.1193324198D+00  0.6899906659D-01
      0.1881288540D+01 -0.1608541517D+00  0.3164239610D+00
      0.5442492580D+00  0.1143456438D+01  0.7443082909D+00
 SP   1 1.00       0.000000000000
      0.1687144782D+00  0.1000000000D+01  0.1000000000D+01
 D   1 1.00       0.000000000000
      0.8000000000D+00  0.1000000000D+01
 ****
     68 0
 S   3 1.00       0.000000000000
      0.1873113696D+02  0.3349460434D-01
      0.2825394365D+01  0.2347269535D+00
      0.6401216923D+00  0.8137573261D+00
 S   1 1.00       0.000000000000
      0.1612777588D+00  0.1000000000D+01
 ****
     69 0
 S   3 1.00       0.000000000000
      0.1873113696D+02  0.3349460434D-01
      0.2825394365D+01  0.2347269535D+00
      0.6401216923D+00  0.8137573261D+00
 S   1 1.00       0.000000000000
      0.1612777588D+00  0.1000000000D+01
 ****
     70 0
 S   3 1.00       0.000000000000
      0.1873113696D+02  0.3349460434D-01
      0.2825394365D+01  0.2347269535D+00
      0.6401216923D+00  0.8137573261D+00
 S   1 1.00       0.000000000000
      0.1612777588D+00  0.1000000000D+01
 ****
     71 0
 S   6 1.00       0.000000000000
      0.3047524880D+04  0.1834737132D-02
      0.4573695180D+03  0.1403732281D-01
      0.1039486850D+03  0.6884262226D-01
      0.2921015530D+02  0.2321844432D+00
      0.9286662960D+01  0.4679413484D+00
      0.3163926960D+01  0.3623119853D+00
 SP   3 1.00       0.000000000000
      0.7868272350D+01 -0.1193324198D+00  0.6899906659D-01
      0.1881288540D+01 -0.1608541517D+00  0.3164239610D+00
      0.5442492580D+00  0.1143456438D+01  0.7443082909D+00
 SP   1 1.00       0.000000000000
      0.1687144782D+00  0.1000000000D+01  0.1000000000D+01
 D   1 1.00       0.000000000000
      0.8000000000D+00  0.1000000000D+01
 ****
     72 0
 S   3 1.00       0.000000000000
      0.1873113696D+02  0.3349460434D-01
      0.2825394365D+01  0.2347269535D+00
      0.6401216923D+00  0.8137573261D+00
 S   1 1.00       0.000000000000
      0.1612777588D+00  0.1000000000D+01
 ****
     73 0
 S   3 1.00       0.000000000000
      0.1873113696D+02  0.3349460434D-01
      0.2825394365D+01  0.2347269535D+00
      0.6401216923D+00  0.8137573261D+00
 S   1 1.00       0.000000000000
      0.1612777588D+00  0.1000000000D+01
 ****
     74 0
 S   3 1.00       0.000000000000
      0.1873113696D+02  0.3349460434D-01
      0.2825394365D+01  0.2347269535D+00
      0.6401216923D+00  0.8137573261D+00
 S   1 1.00       0.000000000000
      0.1612777588D+00  0.1000000000D+01
 ****

 AO basis set (Overlap normalization):
 Atom O1       Shell     1 S   6     bf    1 -     1          9.446418324250         -0.457553095768        -13.707847734652
      0.5484671660D+04  0.1831074430D-02
      0.8252349460D+03  0.1395017220D-01
      0.1880469580D+03  0.6844507810D-01
      0.5296450000D+02  0.2327143360D+00
      0.1689757040D+02  0.4701928980D+00
      0.5799635340D+01  0.3585208530D+00
 Atom O1       Shell     2 SP   3    bf    2 -     5          9.446418324250         -0.457553095768        -13.707847734652
      0.1553961625D+02 -0.1107775495D+00  0.7087426823D-01
      0.3599933586D+01 -0.1480262627D+00  0.3397528391D+00
      0.1013761750D+01  0.1130767015D+01  0.7271585773D+00
 Atom O1       Shell     3 SP   1    bf    6 -     9          9.446418324250         -0.457553095768        -13.707847734652
      0.2700058226D+00  0.1000000000D+01  0.1000000000D+01
 Atom O1       Shell     4 D   1     bf   10 -    15          9.446418324250         -0.457553095768        -13.707847734652
      0.8000000000D+00  0.1000000000D+01
 Atom H2       Shell     5 S   3     bf   16 -    16         11.244624623677         -0.615061485485        -13.430688802598
      0.1873113696D+02  0.3349460434D-01
      0.2825394365D+01  0.2347269535D+00
      0.6401216923D+00  0.8137573261D+00
 Atom H2       Shell     6 S   1     bf   17 -    17         11.244624623677         -0.615061485485        -13.430688802598
      0.1612777588D+00  0.1000000000D+01
 Atom C3       Shell     7 S   6     bf   18 -    18          0.000000000000          0.000000000000          0.000000000000
      0.3047524880D+04  0.1834737132D-02
      0.4573695180D+03  0.1403732281D-01
      0.1039486850D+03  0.6884262226D-01
      0.2921015530D+02  0.2321844432D+00
      0.9286662960D+01  0.4679413484D+00
      0.3163926960D+01  0.3623119853D+00
 Atom C3       Shell     8 SP   3    bf   19 -    22          0.000000000000          0.000000000000          0.000000000000
      0.7868272350D+01 -0.1193324198D+00  0.6899906659D-01
      0.1881288540D+01 -0.1608541517D+00  0.3164239610D+00
      0.5442492580D+00  0.1143456438D+01  0.7443082909D+00
 Atom C3       Shell     9 SP   1    bf   23 -    26          0.000000000000          0.000000000000          0.000000000000
      0.1687144782D+00  0.1000000000D+01  0.1000000000D+01
 Atom C3       Shell    10 D   1     bf   27 -    32          0.000000000000          0.000000000000          0.000000000000
      0.8000000000D+00  0.1000000000D+01
 Atom C4       Shell    11 S   6     bf   33 -    33          2.937819608940          0.000000000000          0.000000000000
      0.3047524880D+04  0.1834737132D-02
      0.4573695180D+03  0.1403732281D-01
      0.1039486850D+03  0.6884262226D-01
      0.2921015530D+02  0.2321844432D+00
      0.9286662960D+01  0.4679413484D+00
      0.3163926960D+01  0.3623119853D+00
 Atom C4       Shell    12 SP   3    bf   34 -    37          2.937819608940          0.000000000000          0.000000000000
      0.7868272350D+01 -0.1193324198D+00  0.6899906659D-01
      0.1881288540D+01 -0.1608541517D+00  0.3164239610D+00
      0.5442492580D+00  0.1143456438D+01  0.7443082909D+00
 Atom C4       Shell    13 SP   1    bf   38 -    41          2.937819608940          0.000000000000          0.000000000000
      0.1687144782D+00  0.1000000000D+01  0.1000000000D+01
 Atom C4       Shell    14 D   1     bf   42 -    47          2.937819608940          0.000000000000          0.000000000000
      0.8000000000D+00  0.1000000000D+01
 Atom H5       Shell    15 S   3     bf   48 -    48          3.480549729093          2.014223728267          0.000000000000
      0.1873113696D+02  0.3349460434D-01
      0.2825394365D+01  0.2347269535D+00
      0.6401216923D+00  0.8137573261D+00
 Atom H5       Shell    16 S   1     bf   49 -    49          3.480549729093          2.014223728267          0.000000000000
      0.1612777588D+00  0.1000000000D+01
 Atom C6       Shell    17 S   6     bf   50 -    50          4.184534980069         -1.146081256251         -2.353518064995
      0.3047524880D+04  0.1834737132D-02
      0.4573695180D+03  0.1403732281D-01
      0.1039486850D+03  0.6884262226D-01
      0.2921015530D+02  0.2321844432D+00
      0.9286662960D+01  0.4679413484D+00
      0.3163926960D+01  0.3623119853D+00
 Atom C6       Shell    18 SP   3    bf   51 -    54          4.184534980069         -1.146081256251         -2.353518064995
      0.7868272350D+01 -0.1193324198D+00  0.6899906659D-01
      0.1881288540D+01 -0.1608541517D+00  0.3164239610D+00
      0.5442492580D+00  0.1143456438D+01  0.7443082909D+00
 Atom C6       Shell    19 SP   1    bf   55 -    58          4.184534980069         -1.146081256251         -2.353518064995
      0.1687144782D+00  0.1000000000D+01  0.1000000000D+01
 Atom C6       Shell    20 D   1     bf   59 -    64          4.184534980069         -1.146081256251         -2.353518064995
      0.8000000000D+00  0.1000000000D+01
 Atom H7       Shell    21 S   3     bf   65 -    65          3.683739432380         -3.158092512058         -2.480122818398
      0.1873113696D+02  0.3349460434D-01
      0.2825394365D+01  0.2347269535D+00
      0.6401216923D+00  0.8137573261D+00
 Atom H7       Shell    22 S   1     bf   66 -    66          3.683739432380         -3.158092512058         -2.480122818398
      0.1612777588D+00  0.1000000000D+01
 Atom C8       Shell    23 S   6     bf   67 -    67          3.232473946786          0.234081207560         -4.757863394587
      0.3047524880D+04  0.1834737132D-02
      0.4573695180D+03  0.1403732281D-01
      0.1039486850D+03  0.6884262226D-01
      0.2921015530D+02  0.2321844432D+00
      0.9286662960D+01  0.4679413484D+00
      0.3163926960D+01  0.3623119853D+00
 Atom C8       Shell    24 SP   3    bf   68 -    71          3.232473946786          0.234081207560         -4.757863394587
      0.7868272350D+01 -0.1193324198D+00  0.6899906659D-01
      0.1881288540D+01 -0.1608541517D+00  0.3164239610D+00
      0.5442492580D+00  0.1143456438D+01  0.7443082909D+00
 Atom C8       Shell    25 SP   1    bf   72 -    75          3.232473946786          0.234081207560         -4.757863394587
      0.1687144782D+00  0.1000000000D+01  0.1000000000D+01
 Atom C8       Shell    26 D   1     bf   76 -    81          3.232473946786          0.234081207560         -4.757863394587
      0.8000000000D+00  0.1000000000D+01
 Atom H9       Shell    27 S   3     bf   82 -    82          3.994620262714          2.169060612150         -4.626866728678
      0.1873113696D+02  0.3349460434D-01
      0.2825394365D+01  0.2347269535D+00
      0.6401216923D+00  0.8137573261D+00
 Atom H9       Shell    28 S   1     bf   83 -    83          3.994620262714          2.169060612150         -4.626866728678
      0.1612777588D+00  0.1000000000D+01
 Atom C10      Shell    29 S   6     bf   84 -    84         -0.516288202827          1.233569623566          2.645530754679
      0.3047524880D+04  0.1834737132D-02
      0.4573695180D+03  0.1403732281D-01
      0.1039486850D+03  0.6884262226D-01
      0.2921015530D+02  0.2321844432D+00
      0.9286662960D+01  0.4679413484D+00
      0.3163926960D+01  0.3623119853D+00
 Atom C10      Shell    30 SP   3    bf   85 -    88         -0.516288202827          1.233569623566          2.645530754679
      0.7868272350D+01 -0.1193324198D+00  0.6899906659D-01
      0.1881288540D+01 -0.1608541517D+00  0.3164239610D+00
      0.5442492580D+00  0.1143456438D+01  0.7443082909D+00
 Atom C10      Shell    31 SP   1    bf   89 -    92         -0.516288202827          1.233569623566          2.645530754679
      0.1687144782D+00  0.1000000000D+01  0.1000000000D+01
 Atom C10      Shell    32 D   1     bf   93 -    98         -0.516288202827          1.233569623566          2.645530754679
      0.8000000000D+00  0.1000000000D+01
 Atom H11      Shell    33 S   3     bf   99 -    99         -0.082974246221          3.258971063011          2.431882173136
      0.1873113696D+02  0.3349460434D-01
      0.2825394365D+01  0.2347269535D+00
      0.6401216923D+00  0.8137573261D+00
 Atom H11      Shell    34 S   1     bf  100 -   100         -0.082974246221          3.258971063011          2.431882173136
      0.1612777588D+00  0.1000000000D+01
 Atom C12      Shell    35 S   6     bf  101 -   101         -0.823145995196          1.538692307194         -2.335488868262
      0.3047524880D+04  0.1834737132D-02
      0.4573695180D+03  0.1403732281D-01
      0.1039486850D+03  0.6884262226D-01
      0.2921015530D+02  0.2321844432D+00
      0.9286662960D+01  0.4679413484D+00
      0.3163926960D+01  0.3623119853D+00
 Atom C12      Shell    36 SP   3    bf  102 -   105         -0.823145995196          1.538692307194         -2.335488868262
      0.7868272350D+01 -0.1193324198D+00  0.6899906659D-01
      0.1881288540D+01 -0.1608541517D+00  0.3164239610D+00
      0.5442492580D+00  0.1143456438D+01  0.7443082909D+00
 Atom C12      Shell    37 SP   1    bf  106 -   109         -0.823145995196          1.538692307194         -2.335488868262
      0.1687144782D+00  0.1000000000D+01  0.1000000000D+01
 Atom C12      Shell    38 D   1     bf  110 -   115         -0.823145995196          1.538692307194         -2.335488868262
      0.8000000000D+00  0.1000000000D+01
 Atom H13      Shell    39 S   3     bf  116 -   116         -0.209492695831          3.507909202942         -2.081444026916
      0.1873113696D+02  0.3349460434D-01
      0.2825394365D+01  0.2347269535D+00
      0.6401216923D+00  0.8137573261D+00
 Atom H13      Shell    40 S   1     bf  117 -   117         -0.209492695831          3.507909202942         -2.081444026916
      0.1612777588D+00  0.1000000000D+01
 Atom H14      Shell    41 S   3     bf  118 -   118         -2.881220478226          1.587140198721         -2.537032015376
      0.1873113696D+02  0.3349460434D-01
      0.2825394365D+01  0.2347269535D+00
      0.6401216923D+00  0.8137573261D+00
 Atom H14      Shell    42 S   1     bf  119 -   119         -2.881220478226          1.587140198721         -2.537032015376
      0.1612777588D+00  0.1000000000D+01
 Atom C15      Shell    43 S   6     bf  120 -   120          4.359519103529         -0.904132627471         -7.253410686804
      0.3047524880D+04  0.1834737132D-02
      0.4573695180D+03  0.1403732281D-01
      0.1039486850D+03  0.6884262226D-01
      0.2921015530D+02  0.2321844432D+00
      0.9286662960D+01  0.4679413484D+00
      0.3163926960D+01  0.3623119853D+00
 Atom C15      Shell    44 SP   3    bf  121 -   124          4.359519103529         -0.904132627471         -7.253410686804
      0.7868272350D+01 -0.1193324198D+00  0.6899906659D-01
      0.1881288540D+01 -0.1608541517D+00  0.3164239610D+00
      0.5442492580D+00  0.1143456438D+01  0.7443082909D+00
 Atom C15      Shell    45 SP   1    bf  125 -   128          4.359519103529         -0.904132627471         -7.253410686804
      0.1687144782D+00  0.1000000000D+01  0.1000000000D+01
 Atom C15      Shell    46 D   1     bf  129 -   134          4.359519103529         -0.904132627471         -7.253410686804
      0.8000000000D+00  0.1000000000D+01
 Atom C16      Shell    47 S   6     bf  135 -   135          3.653541400907         -1.039605355389          2.613345411615
      0.3047524880D+04  0.1834737132D-02
      0.4573695180D+03  0.1403732281D-01
      0.1039486850D+03  0.6884262226D-01
      0.2921015530D+02  0.2321844432D+00
      0.9286662960D+01  0.4679413484D+00
      0.3163926960D+01  0.3623119853D+00
 Atom C16      Shell    48 SP   3    bf  136 -   139          3.653541400907         -1.039605355389          2.613345411615
      0.7868272350D+01 -0.1193324198D+00  0.6899906659D-01
      0.1881288540D+01 -0.1608541517D+00  0.3164239610D+00
      0.5442492580D+00  0.1143456438D+01  0.7443082909D+00
 Atom C16      Shell    49 SP   1    bf  140 -   143          3.653541400907         -1.039605355389          2.613345411615
      0.1687144782D+00  0.1000000000D+01  0.1000000000D+01
 Atom C16      Shell    50 D   1     bf  144 -   149          3.653541400907         -1.039605355389          2.613345411615
      0.8000000000D+00  0.1000000000D+01
 Atom H17      Shell    51 S   3     bf  150 -   150          5.549880573703         -0.462165274751          3.204072874789
      0.1873113696D+02  0.3349460434D-01
      0.2825394365D+01  0.2347269535D+00
      0.6401216923D+00  0.8137573261D+00
 Atom H17      Shell    52 S   1     bf  151 -   151          5.549880573703         -0.462165274751          3.204072874789
      0.1612777588D+00  0.1000000000D+01
 Atom H18      Shell    53 S   3     bf  152 -   152          3.636455423179         -3.112697491997          2.605775263213
      0.1873113696D+02  0.3349460434D-01
      0.2825394365D+01  0.2347269535D+00
      0.6401216923D+00  0.8137573261D+00
 Atom H18      Shell    54 S   1     bf  153 -   153          3.636455423179         -3.112697491997          2.605775263213
      0.1612777588D+00  0.1000000000D+01
 Atom C19      Shell    55 S   6     bf  154 -   154          0.320772639571          0.475491774618         -4.797422071076
      0.3047524880D+04  0.1834737132D-02
      0.4573695180D+03  0.1403732281D-01
      0.1039486850D+03  0.6884262226D-01
      0.2921015530D+02  0.2321844432D+00
      0.9286662960D+01  0.4679413484D+00
      0.3163926960D+01  0.3623119853D+00
 Atom C19      Shell    56 SP   3    bf  155 -   158          0.320772639571          0.475491774618         -4.797422071076
      0.7868272350D+01 -0.1193324198D+00  0.6899906659D-01
      0.1881288540D+01 -0.1608541517D+00  0.3164239610D+00
      0.5442492580D+00  0.1143456438D+01  0.7443082909D+00
 Atom C19      Shell    57 SP   1    bf  159 -   162          0.320772639571          0.475491774618         -4.797422071076
      0.1687144782D+00  0.1000000000D+01  0.1000000000D+01
 Atom C19      Shell    58 D   1     bf  163 -   168          0.320772639571          0.475491774618         -4.797422071076
      0.8000000000D+00  0.1000000000D+01
 Atom H20      Shell    59 S   3     bf  169 -   169         -0.532339120860         -1.371906987329         -5.175391391661
      0.1873113696D+02  0.3349460434D-01
      0.2825394365D+01  0.2347269535D+00
      0.6401216923D+00  0.8137573261D+00
 Atom H20      Shell    60 S   1     bf  170 -   170         -0.532339120860         -1.371906987329         -5.175391391661
      0.1612777588D+00  0.1000000000D+01
 Atom H21      Shell    61 S   3     bf  171 -   171         -0.255850436871          1.697877545395         -6.366459335950
      0.1873113696D+02  0.3349460434D-01
      0.2825394365D+01  0.2347269535D+00
      0.6401216923D+00  0.8137573261D+00
 Atom H21      Shell    62 S   1     bf  172 -   172         -0.255850436871          1.697877545395         -6.366459335950
      0.1612777588D+00  0.1000000000D+01
 Atom C22      Shell    63 S   6     bf  173 -   173          1.567184804141          0.031875503567          4.378408182343
      0.3047524880D+04  0.1834737132D-02
      0.4573695180D+03  0.1403732281D-01
      0.1039486850D+03  0.6884262226D-01
      0.2921015530D+02  0.2321844432D+00
      0.9286662960D+01  0.4679413484D+00
      0.3163926960D+01  0.3623119853D+00
 Atom C22      Shell    64 SP   3    bf  174 -   177          1.567184804141          0.031875503567          4.378408182343
      0.7868272350D+01 -0.1193324198D+00  0.6899906659D-01
      0.1881288540D+01 -0.1608541517D+00  0.3164239610D+00
      0.5442492580D+00  0.1143456438D+01  0.7443082909D+00
 Atom C22      Shell    65 SP   1    bf  178 -   181          1.567184804141          0.031875503567          4.378408182343
      0.1687144782D+00  0.1000000000D+01  0.1000000000D+01
 Atom C22      Shell    66 D   1     bf  182 -   187          1.567184804141          0.031875503567          4.378408182343
      0.8000000000D+00  0.1000000000D+01
 Atom H23      Shell    67 S   3     bf  188 -   188          0.751774648534         -1.463496268223          5.558189718407
      0.1873113696D+02  0.3349460434D-01
      0.2825394365D+01  0.2347269535D+00
      0.6401216923D+00  0.8137573261D+00
 Atom H23      Shell    68 S   1     bf  189 -   189          0.751774648534         -1.463496268223          5.558189718407
      0.1612777588D+00  0.1000000000D+01
 Atom H24      Shell    69 S   3     bf  190 -   190          2.350096243400          1.434922664230          5.679311412538
      0.1873113696D+02  0.3349460434D-01
      0.2825394365D+01  0.2347269535D+00
      0.6401216923D+00  0.8137573261D+00
 Atom H24      Shell    70 S   1     bf  191 -   191          2.350096243400          1.434922664230          5.679311412538
      0.1612777588D+00  0.1000000000D+01
 Atom C25      Shell    71 S   6     bf  192 -   192          7.079171909126         -0.960175403914         -2.190291779739
      0.3047524880D+04  0.1834737132D-02
      0.4573695180D+03  0.1403732281D-01
      0.1039486850D+03  0.6884262226D-01
      0.2921015530D+02  0.2321844432D+00
      0.9286662960D+01  0.4679413484D+00
      0.3163926960D+01  0.3623119853D+00
 Atom C25      Shell    72 SP   3    bf  193 -   196          7.079171909126         -0.960175403914         -2.190291779739
      0.7868272350D+01 -0.1193324198D+00  0.6899906659D-01
      0.1881288540D+01 -0.1608541517D+00  0.3164239610D+00
      0.5442492580D+00  0.1143456438D+01  0.7443082909D+00
 Atom C25      Shell    73 SP   1    bf  197 -   200          7.079171909126         -0.960175403914         -2.190291779739
      0.1687144782D+00  0.1000000000D+01  0.1000000000D+01
 Atom C25      Shell    74 D   1     bf  201 -   206          7.079171909126         -0.960175403914         -2.190291779739
      0.8000000000D+00  0.1000000000D+01
 Atom H26      Shell    75 S   3     bf  207 -   207          7.805542194468         -2.334467849233         -0.815449764267
      0.1873113696D+02  0.3349460434D-01
      0.2825394365D+01  0.2347269535D+00
      0.6401216923D+00  0.8137573261D+00
 Atom H26      Shell    76 S   1     bf  208 -   208          7.805542194468         -2.334467849233         -0.815449764267
      0.1612777588D+00  0.1000000000D+01
 Atom H27      Shell    77 S   3     bf  209 -   209          7.613175141716          0.907309748429         -1.435014240359
      0.1873113696D+02  0.3349460434D-01
      0.2825394365D+01  0.2347269535D+00
      0.6401216923D+00  0.8137573261D+00
 Atom H27      Shell    78 S   1     bf  210 -   210          7.613175141716          0.907309748429         -1.435014240359
      0.1612777588D+00  0.1000000000D+01
 Atom C28      Shell    79 S   6     bf  211 -   211         -3.189362509578          1.058646651644          3.833057635654
      0.3047524880D+04  0.1834737132D-02
      0.4573695180D+03  0.1403732281D-01
      0.1039486850D+03  0.6884262226D-01
      0.2921015530D+02  0.2321844432D+00
      0.9286662960D+01  0.4679413484D+00
      0.3163926960D+01  0.3623119853D+00
 Atom C28      Shell    80 SP   3    bf  212 -   215         -3.189362509578          1.058646651644          3.833057635654
      0.7868272350D+01 -0.1193324198D+00  0.6899906659D-01
      0.1881288540D+01 -0.1608541517D+00  0.3164239610D+00
      0.5442492580D+00  0.1143456438D+01  0.7443082909D+00
 Atom C28      Shell    81 SP   1    bf  216 -   219         -3.189362509578          1.058646651644          3.833057635654
      0.1687144782D+00  0.1000000000D+01  0.1000000000D+01
 Atom C28      Shell    82 D   1     bf  220 -   225         -3.189362509578          1.058646651644          3.833057635654
      0.8000000000D+00  0.1000000000D+01
 Atom H29      Shell    83 S   3     bf  226 -   226         -3.580741005549         -0.953992881411          4.176269828190
      0.1873113696D+02  0.3349460434D-01
      0.2825394365D+01  0.2347269535D+00
      0.6401216923D+00  0.8137573261D+00
 Atom H29      Shell    84 S   1     bf  227 -   227         -3.580741005549         -0.953992881411          4.176269828190
      0.1612777588D+00  0.1000000000D+01
 Atom C30      Shell    85 S   6     bf  228 -   228         -1.113315257038         -2.700177458147         -0.094694157622
      0.3047524880D+04  0.1834737132D-02
      0.4573695180D+03  0.1403732281D-01
      0.1039486850D+03  0.6884262226D-01
      0.2921015530D+02  0.2321844432D+00
      0.9286662960D+01  0.4679413484D+00
      0.3163926960D+01  0.3623119853D+00
 Atom C30      Shell    86 SP   3    bf  229 -   232         -1.113315257038         -2.700177458147         -0.094694157622
      0.7868272350D+01 -0.1193324198D+00  0.6899906659D-01
      0.1881288540D+01 -0.1608541517D+00  0.3164239610D+00
      0.5442492580D+00  0.1143456438D+01  0.7443082909D+00
 Atom C30      Shell    87 SP   1    bf  233 -   236         -1.113315257038         -2.700177458147         -0.094694157622
      0.1687144782D+00  0.1000000000D+01  0.1000000000D+01
 Atom C30      Shell    88 D   1     bf  237 -   242         -1.113315257038         -2.700177458147         -0.094694157622
      0.8000000000D+00  0.1000000000D+01
 Atom H31      Shell    89 S   3     bf  243 -   243         -3.178527538028         -2.637392913649         -0.203542911999
      0.1873113696D+02  0.3349460434D-01
      0.2825394365D+01  0.2347269535D+00
      0.6401216923D+00  0.8137573261D+00
 Atom H31      Shell    90 S   1     bf  244 -   244         -3.178527538028         -2.637392913649         -0.203542911999
      0.1612777588D+00  0.1000000000D+01
 Atom H32      Shell    91 S   3     bf  245 -   245         -0.450374744285         -3.764810119673         -1.735187183225
      0.1873113696D+02  0.3349460434D-01
      0.2825394365D+01  0.2347269535D+00
      0.6401216923D+00  0.8137573261D+00
 Atom H32      Shell    92 S   1     bf  246 -   246         -0.450374744285         -3.764810119673         -1.735187183225
      0.1612777588D+00  0.1000000000D+01
 Atom H33      Shell    93 S   3     bf  247 -   247         -0.621118870323         -3.800957651520          1.585133819794
      0.1873113696D+02  0.3349460434D-01
      0.2825394365D+01  0.2347269535D+00
      0.6401216923D+00  0.8137573261D+00
 Atom H33      Shell    94 S   1     bf  248 -   248         -0.621118870323         -3.800957651520          1.585133819794
      0.1612777588D+00  0.1000000000D+01
 Atom C34      Shell    95 S   6     bf  249 -   249          7.205652866570         -1.372780399851         -6.942617690942
      0.3047524880D+04  0.1834737132D-02
      0.4573695180D+03  0.1403732281D-01
      0.1039486850D+03  0.6884262226D-01
      0.2921015530D+02  0.2321844432D+00
      0.9286662960D+01  0.4679413484D+00
      0.3163926960D+01  0.3623119853D+00
 Atom C34      Shell    96 SP   3    bf  250 -   253          7.205652866570         -1.372780399851         -6.942617690942
      0.7868272350D+01 -0.1193324198D+00  0.6899906659D-01
      0.1881288540D+01 -0.1608541517D+00  0.3164239610D+00
      0.5442492580D+00  0.1143456438D+01  0.7443082909D+00
 Atom C34      Shell    97 SP   1    bf  254 -   257          7.205652866570         -1.372780399851         -6.942617690942
      0.1687144782D+00  0.1000000000D+01  0.1000000000D+01
 Atom C34      Shell    98 D   1     bf  258 -   263          7.205652866570         -1.372780399851         -6.942617690942
      0.8000000000D+00  0.1000000000D+01
 Atom C35      Shell    99 S   6     bf  264 -   264          3.982880754853          1.048571047643         -9.431202646270
      0.3047524880D+04  0.1834737132D-02
      0.4573695180D+03  0.1403732281D-01
      0.1039486850D+03  0.6884262226D-01
      0.2921015530D+02  0.2321844432D+00
      0.9286662960D+01  0.4679413484D+00
      0.3163926960D+01  0.3623119853D+00
 Atom C35      Shell   100 SP   3    bf  265 -   268          3.982880754853          1.048571047643         -9.431202646270
      0.7868272350D+01 -0.1193324198D+00  0.6899906659D-01
      0.1881288540D+01 -0.1608541517D+00  0.3164239610D+00
      0.5442492580D+00  0.1143456438D+01  0.7443082909D+00
 Atom C35      Shell   101 SP   1    bf  269 -   272          3.982880754853          1.048571047643         -9.431202646270
      0.1687144782D+00  0.1000000000D+01  0.1000000000D+01
 Atom C35      Shell   102 D   1     bf  273 -   278          3.982880754853          1.048571047643         -9.431202646270
      0.8000000000D+00  0.1000000000D+01
 Atom H36      Shell   103 S   3     bf  279 -   279          4.590475100907          2.911247527279         -8.742635897580
      0.1873113696D+02  0.3349460434D-01
      0.2825394365D+01  0.2347269535D+00
      0.6401216923D+00  0.8137573261D+00
 Atom H36      Shell   104 S   1     bf  280 -   280          4.590475100907          2.911247527279         -8.742635897580
      0.1612777588D+00  0.1000000000D+01
 Atom H37      Shell   105 S   3     bf  281 -   281          1.966027623850          1.213557801764         -9.867358977748
      0.1873113696D+02  0.3349460434D-01
      0.2825394365D+01  0.2347269535D+00
      0.6401216923D+00  0.8137573261D+00
 Atom H37      Shell   106 S   1     bf  282 -   282          1.966027623850          1.213557801764         -9.867358977748
      0.1612777588D+00  0.1000000000D+01
 Atom C38      Shell   107 S   6     bf  283 -   283          8.366474988212         -1.356218745536         -4.689666334294
      0.3047524880D+04  0.1834737132D-02
      0.4573695180D+03  0.1403732281D-01
      0.1039486850D+03  0.6884262226D-01
      0.2921015530D+02  0.2321844432D+00
      0.9286662960D+01  0.4679413484D+00
      0.3163926960D+01  0.3623119853D+00
 Atom C38      Shell   108 SP   3    bf  284 -   287          8.366474988212         -1.356218745536         -4.689666334294
      0.7868272350D+01 -0.1193324198D+00  0.6899906659D-01
      0.1881288540D+01 -0.1608541517D+00  0.3164239610D+00
      0.5442492580D+00  0.1143456438D+01  0.7443082909D+00
 Atom C38      Shell   109 SP   1    bf  288 -   291          8.366474988212         -1.356218745536         -4.689666334294
      0.1687144782D+00  0.1000000000D+01  0.1000000000D+01
 Atom C38      Shell   110 D   1     bf  292 -   297          8.366474988212         -1.356218745536         -4.689666334294
      0.8000000000D+00  0.1000000000D+01
 Atom H39      Shell   111 S   3     bf  298 -   298         10.404503728856         -1.657203609235         -4.630547140398
      0.1873113696D+02  0.3349460434D-01
      0.2825394365D+01  0.2347269535D+00
      0.6401216923D+00  0.8137573261D+00
 Atom H39      Shell   112 S   1     bf  299 -   299         10.404503728856         -1.657203609235         -4.630547140398
      0.1612777588D+00  0.1000000000D+01
 Atom C40      Shell   113 S   6     bf  300 -   300          3.060573232765         -3.434105419699         -7.972399701871
      0.3047524880D+04  0.1834737132D-02
      0.4573695180D+03  0.1403732281D-01
      0.1039486850D+03  0.6884262226D-01
      0.2921015530D+02  0.2321844432D+00
      0.9286662960D+01  0.4679413484D+00
      0.3163926960D+01  0.3623119853D+00
 Atom C40      Shell   114 SP   3    bf  301 -   304          3.060573232765         -3.434105419699         -7.972399701871
      0.7868272350D+01 -0.1193324198D+00  0.6899906659D-01
      0.1881288540D+01 -0.1608541517D+00  0.3164239610D+00
      0.5442492580D+00  0.1143456438D+01  0.7443082909D+00
[...]
 1508 Fit      -0.001356
 1509 Fit       0.000666
 1510 Fit       0.002170
 1511 Fit       0.002559
 1512 Fit       0.001697
 1513 Fit      -0.000068
 1514 Fit       0.001743
 1515 Fit       0.002917
 1516 Fit       0.001821
 1517 Fit       0.000162
 1518 Fit      -0.000842
 1519 Fit      -0.002186
 1520 Fit      -0.001689
 1521 Fit       0.000320
 1522 Fit       0.001877
 1523 Fit       0.001139
 1524 Fit      -0.001624
 1525 Fit       0.000563
 1526 Fit       0.002409
 1527 Fit       0.002779
 1528 Fit       0.001559
 1529 Fit      -0.000359
 1530 Fit      -0.002504
 1531 Fit      -0.002678
 1532 Fit      -0.002755
 1533 Fit      -0.002977
 1534 Fit      -0.002450
 1535 Fit      -0.002747
 1536 Fit      -0.002785
 1537 Fit      -0.000913
 1538 Fit      -0.002221
 1539 Fit      -0.002194
 1540 Fit      -0.001471
 1541 Fit      -0.001010
 1542 Fit      -0.001739
 1543 Fit      -0.000607
 1544 Fit       0.000523
 1545 Fit       0.001439
 1546 Fit       0.002744
 1547 Fit      -0.000038
 1548 Fit       0.000848
 1549 Fit       0.002202
 1550 Fit       0.002932
 1551 Fit       0.001968
 1552 Fit       0.001746
 1553 Fit      -0.000071
 1554 Fit       0.002799
 1555 Fit       0.002800
 1556 Fit       0.002046
 1557 Fit       0.000352
 1558 Fit      -0.002041
 1559 Fit       0.000808
 1560 Fit       0.001543
 1561 Fit       0.001385
 1562 Fit      -0.000049
 1563 Fit      -0.002363
 1564 Fit      -0.000621
 1565 Fit      -0.002020
 1566 Fit      -0.001630
 1567 Fit       0.000560
 1568 Fit       0.002276
 1569 Fit       0.003234
 1570 Fit      -0.001623
 1571 Fit       0.000172
 1572 Fit       0.001427
 1573 Fit       0.001867
 1574 Fit      -0.001692
 1575 Fit      -0.000529
 1576 Fit      -0.000119
 1577 Fit      -0.000584
 1578 Fit      -0.002807
 1579 Fit      -0.002373
 1580 Fit      -0.004342
 1581 Fit      -0.012674
 1582 Fit      -0.016218
 1583 Fit      -0.019952
 1584 Fit      -0.018429
 1585 Fit      -0.011876
 1586 Fit      -0.007795
 1587 Fit      -0.015570
 1588 Fit      -0.020932
 1589 Fit      -0.022524
 1590 Fit      -0.024715
 1591 Fit      -0.024410
 1592 Fit      -0.020902
 1593 Fit      -0.013585
 1594 Fit      -0.005585
 1595 Fit      -0.015735
 1596 Fit      -0.020519
 1597 Fit      -0.025228
 1598 Fit      -0.026596
 1599 Fit      -0.025320
 1600 Fit      -0.019567
 1601 Fit      -0.023814
 1602 Fit       0.019629
 1603 Fit       0.017417
 1604 Fit       0.018235
 1605 Fit       0.016490
 1606 Fit       0.011851
 1607 Fit       0.011956
 1608 Fit       0.016843
 1609 Fit       0.014667
 1610 Fit       0.012527
 1611 Fit       0.006696
 1612 Fit      -0.001514
 1613 Fit       0.008053
 1614 Fit       0.013253
 1615 Fit       0.007983
 1616 Fit       0.004438
 1617 Fit      -0.002498
 1618 Fit       0.005801
 1619 Fit      -0.002939
 1620 Fit       0.003358
 1621 Fit       0.003740
 1622 Fit       0.003701
 1623 Fit       0.003802
 1624 Fit       0.003793
 1625 Fit       0.003018
 1626 Fit       0.001997
 1627 Fit       0.000265
 1628 Fit      -0.003592
 1629 Fit       0.002133
 1630 Fit       0.003086
 1631 Fit       0.003236
 1632 Fit       0.001844
 1633 Fit       0.003031
 1634 Fit       0.002610
 1635 Fit       0.002199
 1636 Fit       0.003219
 1637 Fit       0.003028
 1638 Fit       0.002588
 1639 Fit       0.002061
 1640 Fit       0.003668
 1641 Fit       0.003236
 1642 Fit       0.002808
 1643 Fit      -0.000666
 1644 Fit      -0.000024
 1645 Fit       0.003769
 1646 Fit       0.003155
 1647 Fit       0.002276
 1648 Fit       0.003220
 1649 Fit       0.002602
 1650 Fit       0.001614
 1651 Fit       0.000199
 1652 Fit       0.002156
 1653 Fit       0.001300
 1654 Fit      -0.000198
 1655 Fit       0.000743
 1656 Fit       0.000625
 1657 Fit       0.001645
 1658 Fit       0.002380
 1659 Fit       0.002169
 1660 Fit      -0.000188
 1661 Fit      -0.000210
 1662 Fit       0.000154
 1663 Fit       0.001253
 1664 Fit       0.001464
 1665 Fit       0.002612
 1666 Fit       0.003076
 1667 Fit       0.003123
 1668 Fit       0.001414
 1669 Fit       0.003180
 1670 Fit       0.003534
 1671 Fit       0.003518
 1672 Fit       0.003233
 1673 Fit       0.001171
 1674 Fit       0.002497
 1675 Fit       0.002688
 1676 Fit       0.001552
 1677 Fit       0.000308
 1678 Fit       0.003435
 1679 Fit       0.002665
 1680 Fit       0.001874
 1681 Fit       0.001247
 1682 Fit       0.002977
 1683 Fit       0.002745
 1684 Fit       0.002345
 1685 Fit       0.001236
 1686 Fit       0.002262
 1687 Fit       0.001729
 1688 Fit       0.002233
 1689 Fit       0.002596
 1690 Fit       0.002304
 1691 Fit       0.001616
 1692 Fit       0.001804
 1693 Fit       0.001708
 1694 Fit       0.001571
 1695 Fit       0.001349
 1696 Fit       0.002383
 1697 Fit       0.002732
 1698 Fit       0.002468
 1699 Fit       0.002097
 1700 Fit      -0.000294
 1701 Fit      -0.000637
 1702 Fit       0.003231
 1703 Fit       0.000044
 1704 Fit       0.000954
 1705 Fit       0.003059
 1706 Fit       0.001671
 1707 Fit      -0.000149
 1708 Fit       0.004260
 1709 Fit       0.004009
 1710 Fit       0.003013
 1711 Fit       0.001279
 1712 Fit       0.001616
 1713 Fit       0.002909
 1714 Fit      -0.000146
 1715 Fit       0.001871
 1716 Fit       0.003080
 1717 Fit       0.003633
 1718 Fit       0.003160
 1719 Fit       0.003498
 1720 Fit       0.003465
 1721 Fit       0.003233
 1722 Fit       0.003117
 1723 Fit       0.003110
 1724 Fit       0.003104
 1725 Fit       0.002983
 1726 Fit       0.002294
 1727 Fit       0.003190
 1728 Fit       0.002408
 1729 Fit       0.002914
 1730 Fit       0.003332
 1731 Fit       0.003850
 1732 Fit       0.001841
 1733 Fit       0.001934
 1734 Fit       0.002638
 1735 Fit       0.003511
 1736 Fit      -0.000616
 1737 Fit      -0.000888
 1738 Fit       0.000563
 1739 Fit       0.002527
 1740 Fit       0.003117
 1741 Fit       0.003656
 1742 Fit       0.003956
 1743 Fit       0.002662
 1744 Fit       0.002952
 1745 Fit       0.003395
 1746 Fit       0.001249
 1747 Fit       0.001277
 1748 Fit       0.001917
 1749 Fit       0.002980
 1750 Fit       0.002225
 1751 Fit       0.001807
 1752 Fit       0.000739
 1753 Fit      -0.000387
 1754 Fit      -0.000287
 1755 Fit      -0.000480
 1756 Fit      -0.000462
 1757 Fit       0.000460
 1758 Fit       0.000033
 1759 Fit       0.001659
 1760 Fit       0.001002
 1761 Fit       0.002128
 1762 Fit       0.000731
 1763 Fit       0.002359
 1764 Fit       0.000781
 1765 Fit       0.002589
 1766 Fit       0.000954
 1767 Fit       0.002309
 1768 Fit       0.002463
 1769 Fit       0.001055
 1770 Fit       0.002458
 1771 Fit       0.001576
 1772 Fit       0.002359
 1773 Fit       0.004390
 1774 Fit       0.002378
 1775 Fit       0.003148
 1776 Fit       0.003992
 1777 Fit       0.000547
 1778 Fit       0.001428
 1779 Fit       0.002392
 1780 Fit      -0.007888
 1781 Fit      -0.000021
 1782 Fit      -0.000292
 1783 Fit       0.002722
 1784 Fit       0.002523
 1785 Fit       0.002633
 1786 Fit       0.002177
 1787 Fit       0.001476
 1788 Fit       0.002434
 1789 Fit       0.001842
 1790 Fit       0.001239
 1791 Fit       0.000564
 1792 Fit       0.000656
 1793 Fit       0.000381
 1794 Fit       0.001975
 1795 Fit       0.003164
 1796 Fit       0.003350
 1797 Fit       0.003457
 1798 Fit       0.000983
 1799 Fit       0.001786
 1800 Fit       0.001720
 1801 Fit       0.000785
 1802 Fit      -0.000525
 1803 Fit       0.001286
 1804 Fit      -0.000955
 1805 Fit      -0.004717
 1806 Fit      -0.004803
 1807 Fit      -0.002064
 1808 Fit       0.001158
 1809 Fit      -0.002368
 1810 Fit      -0.003610
 1811 Fit      -0.007223
 1812 Fit      -0.003537
 1813 Fit       0.005394
 1814 Fit       0.004396
 1815 Fit       0.002670
 1816 Fit       0.004725
 1817 Fit       0.006546
 1818 Fit       0.005512
 1819 Fit       0.002859
 1820 Fit       0.003296
 1821 Fit       0.005787
 1822 Fit       0.008252
 1823 Fit       0.006986
 1824 Fit       0.003339
 1825 Fit       0.003591
 1826 Fit       0.007075
 1827 Fit       0.001019
 1828 Fit      -0.000115
 1829 Fit      -0.005565
 1830 Fit      -0.001204
 1831 Fit      -0.001646
 1832 Fit      -0.001685
 1833 Fit      -0.001759
 1834 Fit      -0.001673
 1835 Fit       0.002359
 1836 Fit       0.000574
 1837 Fit       0.002939
 1838 Fit       0.002701
 1839 Fit       0.001699
 1840 Fit       0.000003
 1841 Fit       0.002326
 1842 Fit       0.001293
 1843 Fit      -0.000329
 1844 Fit       0.000272
 1845 Fit      -0.001202
 1846 Fit      -0.001949
 1847 Fit      -0.001350
 1848 Fit      -0.000667
 1849 Fit      -0.001527
 1850 Fit      -0.000957
 1851 Fit      -0.000626
 1852 Fit      -0.001611
 1853 Fit      -0.002708
 1854 Fit       0.002930
 1855 Fit       0.001389
 1856 Fit       0.002223
 1857 Fit       0.001515
 1858 Fit       0.001151
 1859 Fit       0.000242
 1860 Fit      -0.002065
 1861 Fit      -0.000832
 1862 Fit      -0.001393
 1863 Fit      -0.004856
 1864 Fit      -0.000978
 1865 Fit       0.001072
 1866 Fit       0.010258
 1867 Fit       0.010560
 1868 Fit       0.008362
 1869 Fit       0.004179
 1870 Fit       0.007912
 1871 Fit       0.014201
 1872 Fit       0.016620
 1873 Fit       0.004990
 1874 Fit       0.009935
 1875 Fit      -0.004969
 1876 Fit      -0.001025
 1877 Fit      -0.001298
 1878 Fit      -0.000821
 1879 Fit      -0.000284
 1880 Fit      -0.001101
 1881 Fit      -0.000847
 1882 Fit      -0.003571
 1883 Fit      -0.004611
 1884 Fit      -0.003905
 1885 Fit      -0.012923
 1886 Fit      -0.002100
 1887 Fit      -0.002678
 1888 Fit      -0.020413
 1889 Fit      -0.001096
 1890 Fit      -0.001392
 1891 Fit      -0.001583
 1892 Fit      -0.004971
 1893 Fit      -0.003968
 1894 Fit      -0.004394
 1895 Fit      -0.007235
 1896 Fit      -0.016652
 1897 Fit      -0.008777
 1898 Fit      -0.010194
 1899 Fit      -0.020672
 1900 Fit      -0.017426
 1901 Fit      -0.000229
 1902 Fit       0.000087
 1903 Fit      -0.006722
 1904 Fit      -0.002740
 1905 Fit      -0.001146
 1906 Fit      -0.000708
 1907 Fit      -0.000808
 1908 Fit      -0.007759
 1909 Fit      -0.003735
 1910 Fit      -0.002663
 1911 Fit      -0.003301
 1912 Fit      -0.012133
 1913 Fit      -0.006772
 1914 Fit      -0.007697
 1915 Fit      -0.013954
 1916 Fit       0.001539
 1917 Fit       0.000372
 1918 Fit       0.000113
 1919 Fit       0.000540
 1920 Fit       0.001436
 1921 Fit       0.001708
 1922 Fit       0.002730
 1923 Fit       0.001510
 1924 Fit       0.002305
 1925 Fit       0.000491
 1926 Fit       0.002238
 1927 Fit       0.000557
 1928 Fit       0.000078
 1929 Fit       0.001049
 1930 Fit       0.001624
 1931 Fit       0.000753
 1932 Fit       0.001559
 1933 Fit       0.002117
 1934 Fit      -0.009726
 1935 Fit       0.003599
 1936 Fit       0.002300
 1937 Fit       0.002157
 1938 Fit       0.012597
 1939 Fit       0.006758
 1940 Fit       0.003793
 1941 Fit       0.002538
 1942 Fit       0.002470
 1943 Fit       0.006911
 1944 Fit       0.002154
 1945 Fit       0.000437
 1946 Fit       0.000125
 1947 Fit      -0.004701
 1948 Fit      -0.005116
 1949 Fit      -0.000753
 1950 Fit      -0.000968
 1951 Fit       0.000976
 1952 Fit       0.001514
 1953 Fit      -0.001346
 1954 Fit      -0.000989
 1955 Fit      -0.000137
 1956 Fit      -0.000909
 1957 Fit      -0.000508
 1958 Fit       0.002560
 1959 Fit       0.002353
 1960 Fit       0.001734
 1961 Fit       0.000572
 1962 Fit       0.002583
 1963 Fit       0.002253
 1964 Fit       0.001528
 1965 Fit       0.000247
 1966 Fit       0.001251
 1967 Fit       0.001005
 1968 Fit      -0.000099
 1969 Fit      -0.000368
 1970 Fit      -0.000516
 1971 Fit      -0.000059
 1972 Fit       0.001744
 1973 Fit       0.001161
 1974 Fit       0.002629
 1975 Fit       0.000416
 1976 Fit       0.001862
 1977 Fit       0.003389
 1978 Fit       0.002781
 1979 Fit      -0.000322
 1980 Fit      -0.000172
 1981 Fit      -0.001025
 1982 Fit      -0.000143
 1983 Fit      -0.000406
 1984 Fit      -0.000603
 1985 Fit       0.000778
 1986 Fit       0.001099
 1987 Fit       0.000556
 1988 Fit       0.001246
 1989 Fit       0.002210
 1990 Fit       0.002488
 1991 Fit       0.001675
 1992 Fit       0.003183
 1993 Fit       0.000655
 1994 Fit       0.000935
 1995 Fit       0.001858
 1996 Fit      -0.000168
 1997 Fit      -0.000106
 1998 Fit       0.000641
 1999 Fit       0.001808
 2000 Fit       0.002810
 2001 Fit      -0.000673
 2002 Fit       0.001629
 2003 Fit       0.001870
 2004 Fit      -0.001652
 2005 Fit      -0.001087
 2006 Fit      -0.000227
 2007 Fit      -0.000014
 2008 Fit       0.001959
 2009 Fit       0.001085
 2010 Fit       0.001854
 2011 Fit       0.001424
 2012 Fit       0.000905
 2013 Fit       0.000728
 2014 Fit       0.000558
 2015 Fit       0.000493
 2016 Fit      -0.001058
 2017 Fit      -0.000815
 2018 Fit      -0.000051
 2019 Fit       0.000372
 2020 Fit       0.001012
 2021 Fit       0.001700
 2022 Fit       0.001747
 2023 Fit       0.001699
 2024 Fit       0.001184
 2025 Fit       0.001031
 2026 Fit       0.001793
 2027 Fit       0.001191
 2028 Fit       0.000451
 2029 Fit      -0.001243
 2030 Fit      -0.001790
 2031 Fit      -0.001943
 2032 Fit      -0.001513
 2033 Fit      -0.001831
 2034 Fit      -0.001719
 2035 Fit      -0.001722
 2036 Fit      -0.000466
 2037 Fit      -0.001210
 2038 Fit      -0.001567
 2039 Fit      -0.000239
 2040 Fit       0.000263
 2041 Fit       0.000291
 2042 Fit      -0.000494
 2043 Fit       0.002279
 2044 Fit       0.001640
 2045 Fit       0.000262
 2046 Fit       0.002526
 2047 Fit       0.001477
 2048 Fit      -0.000067
 2049 Fit       0.001764
 2050 Fit       0.001338
 2051 Fit       0.000005
 2052 Fit       0.000930
 2053 Fit      -0.001395
 2054 Fit      -0.000112
 2055 Fit       0.000298
 2056 Fit      -0.000427
 2057 Fit      -0.000038
 2058 Fit       0.001103
 2059 Fit       0.001579
 2060 Fit       0.001181
 2061 Fit      -0.000255
 2062 Fit       0.000423
 2063 Fit       0.001588
 2064 Fit       0.002239
 2065 Fit       0.002387
 2066 Fit       0.001411
 2067 Fit       0.002377
 2068 Fit       0.000045
 2069 Fit      -0.000519
 2070 Fit      -0.001483
 2071 Fit      -0.001180
 2072 Fit       0.000186
 2073 Fit       0.001266
 2074 Fit       0.000802
 2075 Fit      -0.000987
 2076 Fit       0.000529
 2077 Fit       0.001798
 2078 Fit       0.002074
 2079 Fit       0.001248
 2080 Fit      -0.000033
 2081 Fit      -0.001303
 2082 Fit      -0.001741
 2083 Fit      -0.001673
 2084 Fit      -0.002128
 2085 Fit      -0.002298
 2086 Fit      -0.002197
 2087 Fit      -0.001828
 2088 Fit      -0.001573
 2089 Fit      -0.001681
 2090 Fit      -0.001617
 2091 Fit      -0.001955
 2092 Fit      -0.000635
 2093 Fit      -0.001079
 2094 Fit      -0.001385
 2095 Fit      -0.001422
 2096 Fit      -0.000701
 2097 Fit      -0.000112
 2098 Fit      -0.000908
 2099 Fit      -0.000119
 2100 Fit       0.000742
 2101 Fit       0.001506
 2102 Fit       0.002404
 2103 Fit       0.000150
 2104 Fit       0.000735
 2105 Fit       0.001697
 2106 Fit       0.002127
 2107 Fit       0.001391
 2108 Fit       0.000973
 2109 Fit      -0.000449
 2110 Fit       0.002582
 2111 Fit       0.001830
 2112 Fit       0.000727
 2113 Fit      -0.000836
 2114 Fit       0.001695
 2115 Fit       0.001957
 2116 Fit       0.001647
 2117 Fit       0.000698
 2118 Fit      -0.000813
 2119 Fit       0.000802
 2120 Fit       0.000615
 2121 Fit      -0.000416
 2122 Fit      -0.000725
 2123 Fit       0.000511
 2124 Fit       0.001820
 2125 Fit      -0.000996
 2126 Fit       0.000294
 2127 Fit       0.001266
 2128 Fit       0.001765
 2129 Fit      -0.001407
 2130 Fit      -0.000369
 2131 Fit       0.000344
 2132 Fit       0.000571
 2133 Fit       0.000426
 2134 Fit      -0.001736
 2135 Fit      -0.001107
 2136 Fit      -0.001004
 -----------------------------------------------------------------
 Leave Link  602 at Tue Mar 21 12:09:34 2017, MaxMem=    33554432 cpu:         4.1
 (Enter /home/michal/g09/l9999.exe)

 Test job not archived.
 1\1\GINC-LINUX\SP\RHF\6-31G(d)\C27H46O1\MICHAL\21-Mar-2017\0\\#P HF/6-
 31G* SCF(Conver=6) NoSymm Test Pop=mk IOp(6/33=2) GFInput GFPrint\\MEP
  - Input generated by R.E.D.-III.x MOLECULE\\0,1\O,0,4.99882928,-0.242
 12667,-7.2538806\H,0,5.95039907,-0.32547652,-7.10721441\C,0,0.,0.,0.\C
 ,0,1.55462718,0.,0.\H,0,1.84182759,1.06588129,0.\C,0,2.21436054,-0.606
 48008,-1.24542812\H,0,1.94935095,-1.67119058,-1.31242447\C,0,1.7105515
 4,0.12387044,-2.51775287\H,0,2.113862,1.14781744,-2.44843242\C,0,-0.27
 320795,0.65277693,1.39995458\H,0,-0.04390808,1.72457321,1.28689662\C,0
 ,-0.4355901,0.8142409,-1.23588748\H,0,-0.11085876,1.8563056,-1.1014527
 4\H,0,-1.52467621,0.83987842,-1.34253952\C,0,2.30695815,-0.47844638,-3
 .83833962\C,0,1.93337084,-0.55013546,1.38292283\H,0,2.93687031,-0.2445
 6733,1.69552234\H,0,1.92432933,-1.64716857,1.37891688\C,0,0.16974557,0
 .25161941,-2.53868642\H,0,-0.28170173,-0.72598191,-2.73869917\H,0,-0.1
 3539022,0.8984781,-3.36898518\C,0,0.82931848,0.01686779,2.31695382\H,0
 ,0.39782201,-0.77444887,2.94126732\H,0,1.24361737,0.75932837,3.0053621
 6\C,0,3.74613643,-0.50810294,-1.15905249\H,0,4.13051503,-1.23534718,-0
 .43151743\H,0,4.02871877,0.48012764,-0.75937683\C,0,-1.68773795,0.5602
 1168,2.02836674\H,0,-1.89484653,-0.50483129,2.20998681\C,0,-0.58914106
 ,-1.42887237,-0.05010999\H,0,-1.68200433,-1.39564822,-0.10771027\H,0,-
 0.23832805,-1.99225171,-0.91822151\H,0,-0.32868195,-2.01138016,0.83881
 669\C,0,3.81306727,-0.7264441,-3.67387505\C,0,2.10764972,0.5548799,-4.
 99077749\H,0,2.4291748,1.54056584,-4.62640366\H,0,1.04037701,0.6421871
 3,-5.22158148\C,0,4.42734788,-0.71768005,-2.48166454\H,0,5.50582624,-0
 .87695438,-2.45038001\C,0,1.6195856,-1.81725032,-4.21881222\H,0,0.5797
 9806,-1.66097832,-4.52292503\H,0,2.12789044,-2.30613472,-5.05361465\H,
 0,1.62992821,-2.51938779,-3.37937944\C,0,4.60141766,-0.98775538,-4.943
 84027\H,0,5.67021566,-1.05625124,-4.70330399\H,0,4.31537767,-1.9510208
 3,-5.38950803\C,0,2.8736383,0.23888975,-6.28366995\H,0,2.51008692,-0.6
 8838595,-6.74383448\H,0,2.71418916,1.03675971,-7.0178723\C,0,-1.729917
 28,1.28484615,3.40928482\H,0,-0.71063655,1.49316796,3.75009332\H,0,-2.
 19921078,2.2699126,3.28293423\C,0,4.36484836,0.08942862,-6.01227138\H,
 0,4.7594952,1.05103346,-5.6443878\C,0,-2.79775398,1.10567102,1.1110199
 3\H,0,-2.57317561,2.13202323,0.79506118\H,0,-3.75919281,1.12749347,1.6
 3244682\H,0,-2.93129745,0.50111708,0.2105275\C,0,-2.43024371,0.5086935
 8,4.54423785\H,0,-1.93436794,-0.46672052,4.64539702\H,0,-2.24222349,1.
 03270458,5.49020213\C,0,-3.94309397,0.26065772,4.39594482\H,0,-4.26112
 796,-0.41527295,5.20364079\H,0,-4.1307979,-0.28711897,3.46263182\C,0,-
 4.85490075,1.50623108,4.43277801\H,0,-4.52229781,2.20387186,3.65095402
 \C,0,-4.78406758,2.24578878,5.77874517\H,0,-3.77498008,2.60780732,5.99
 987541\H,0,-5.45281528,3.11402889,5.78292793\H,0,-5.09057626,1.5865189
 5,6.6013732\C,0,-6.30587206,1.11161419,4.11322513\H,0,-6.38225691,0.62
 45771,3.13419089\H,0,-6.96462602,1.98748242,4.10439722\H,0,-6.6942874,
 0.41118274,4.86378859\\Version=EM64L-G09RevD.01\HF=-1124.0737506\RMSD=
 4.522e-07\Dipole=0.2275609,0.0894651,0.6395146\Quadrupole=9.4826493,3.
 3509308,-12.8335801,0.4559569,3.1271895,-1.0974803\PG=C01 [X(C27H46O1)
 ]\\@


 THE VALUE OF PHILOSOPHY IS, IN FACT, TO BE SOUGHT LARGELY IN ITS
 VERY UNCERTAINTY.  THE MAN WHO HAS NO TINCTURE OF PHILOSOPHY GOES
 THROUGH LIFE IMPRISONED IN THE PREJUDICES DERIVED FROM COMMON SENSE,
 FROM THE HABITUAL BELIEFS OF HIS AGE OR HIS NATION, AND FROM
 CONVICTIONS WHICH HAVE GROWN UP IN HIS MIND WITHOUT THE CO-OPERATION
 OR CONSENT OF HIS DELIBERATE REASON.  TO SUCH A MAN THE WORLD TENDS
 TO BE DEFINITE, FINITE, OBVIOUS; COMMON OBJECTS ROUSE NO QUESTIONS,
 AND UNFAMILIAR POSSIBILITIES ARE CONTEMPTUOUSLY REJECTED.

                             -- BERTRAND RUSSELL
 Job cpu time:       0 days  0 hours 10 minutes 31.7 seconds.
 File lengths (MBytes):  RWF=    142 Int=      0 D2E=      0 Chk=     10 Scr=      1
 Normal termination of Gaussian 09 at Tue Mar 21 12:09:34 2017.
