 Entering Gaussian System, Link 0=/home/michal/g09/g09
 Input=JOB2-gau_m1-15-1.com
 Output=JOB2-gau_m1-15-1.log
 Initial command:
 /home/michal/g09/l1.exe "/home/michal/gauss_scratch/Gau-11944.inp" -scrdir="/home/michal/gauss_scratch/"
 Entering Link 1 = /home/michal/g09/l1.exe PID=     11945.
  
 Copyright (c) 1988,1990,1992,1993,1995,1998,2003,2009,2013,
            Gaussian, Inc.  All Rights Reserved.
  
 This is part of the Gaussian(R) 09 program.  It is based on
 the Gaussian(R) 03 system (copyright 2003, Gaussian, Inc.),
 the Gaussian(R) 98 system (copyright 1998, Gaussian, Inc.),
 the Gaussian(R) 94 system (copyright 1995, Gaussian, Inc.),
 the Gaussian 92(TM) system (copyright 1992, Gaussian, Inc.),
 the Gaussian 90(TM) system (copyright 1990, Gaussian, Inc.),
 the Gaussian 88(TM) system (copyright 1988, Gaussian, Inc.),
 the Gaussian 86(TM) system (copyright 1986, Carnegie Mellon
 University), and the Gaussian 82(TM) system (copyright 1983,
 Carnegie Mellon University). Gaussian is a federally registered
 trademark of Gaussian, Inc.
  
 This software contains proprietary and confidential information,
 including trade secrets, belonging to Gaussian, Inc.
  
 This software is provided under written license and may be
 used, copied, transmitted, or stored only in accord with that
 written license.
  
 The following legend is applicable only to US Government
 contracts under FAR:
  
                    RESTRICTED RIGHTS LEGEND
  
 Use, reproduction and disclosure by the US Government is
 subject to restrictions as set forth in subparagraphs (a)
 and (c) of the Commercial Computer Software - Restricted
 Rights clause in FAR 52.227-19.
  
 Gaussian, Inc.
 340 Quinnipiac St., Bldg. 40, Wallingford CT 06492
  
  
 ---------------------------------------------------------------
 Warning -- This program may not be used in any manner that
 competes with the business of Gaussian, Inc. or will provide
 assistance to any competitor of Gaussian, Inc.  The licensee
 of this program is prohibited from giving any competitor of
 Gaussian, Inc. access to this program.  By using this program,
 the user acknowledges that Gaussian, Inc. is engaged in the
 business of creating and licensing software in the field of
 computational chemistry and represents and warrants to the
 licensee that it is not a competitor of Gaussian, Inc. and that
 it will not use this program in any manner prohibited above.
 ---------------------------------------------------------------
  

 Cite this work as:
 Gaussian 09, Revision D.01,
 M. J. Frisch, G. W. Trucks, H. B. Schlegel, G. E. Scuseria, 
 M. A. Robb, J. R. Cheeseman, G. Scalmani, V. Barone, B. Mennucci, 
 G. A. Petersson, H. Nakatsuji, M. Caricato, X. Li, H. P. Hratchian, 
 A. F. Izmaylov, J. Bloino, G. Zheng, J. L. Sonnenberg, M. Hada, 
 M. Ehara, K. Toyota, R. Fukuda, J. Hasegawa, M. Ishida, T. Nakajima, 
 Y. Honda, O. Kitao, H. Nakai, T. Vreven, J. A. Montgomery, Jr., 
 J. E. Peralta, F. Ogliaro, M. Bearpark, J. J. Heyd, E. Brothers, 
 K. N. Kudin, V. N. Staroverov, T. Keith, R. Kobayashi, J. Normand, 
 K. Raghavachari, A. Rendell, J. C. Burant, S. S. Iyengar, J. Tomasi, 
 M. Cossi, N. Rega, J. M. Millam, M. Klene, J. E. Knox, J. B. Cross, 
 V. Bakken, C. Adamo, J. Jaramillo, R. Gomperts, R. E. Stratmann, 
 O. Yazyev, A. J. Austin, R. Cammi, C. Pomelli, J. W. Ochterski, 
 R. L. Martin, K. Morokuma, V. G. Zakrzewski, G. A. Voth, 
 P. Salvador, J. J. Dannenberg, S. Dapprich, A. D. Daniels, 
 O. Farkas, J. B. Foresman, J. V. Ortiz, J. Cioslowski, 
 and D. J. Fox, Gaussian, Inc., Wallingford CT, 2013.
 
 ******************************************
 Gaussian 09:  EM64L-G09RevD.01 24-Apr-2013
                26-Apr-2017 
 ******************************************
 %Mem=256MB
 %NProc=12
 Will use up to   12 processors via shared memory.
 ----------------------------------------------------------------------
 #P HF/6-31G* SCF(Conver=6) NoSymm Test Pop=mk IOp(6/33=2) GFInput GFPr
 int
 ----------------------------------------------------------------------
 1/38=1/1;
 2/12=2,15=1,17=6,18=5,40=1/2;
 3/5=1,6=6,7=1,11=9,16=1,24=110,25=1,30=1/1,2,3;
 4//1;
 5/5=2,6=6,38=5/2;
 6/7=2,8=2,9=2,10=2,15=8,20=1,28=1,33=2/1,2;
 99/5=1,9=1/99;
 Leave Link    1 at Wed Apr 26 14:17:42 2017, MaxMem=    33554432 cpu:         0.8
 (Enter /home/michal/g09/l101.exe)
 ----------------------------------------------
 MEP - Input generated by R.E.D.-III.x MOLECULE
 ----------------------------------------------
 Symbolic Z-matrix:
 Charge =  0 Multiplicity = 1
 C                     1.75597  -1.24462   0.14275 
 H                     1.88491  -1.27651  -0.94579 
 C                     3.14278  -1.2151    0.80581 
 H                     3.72275  -2.08593   0.48495 
 H                     2.99682  -1.31483   1.89284 
 C                     3.89908   0.06294   0.4986 
 C                     3.17122   1.38294   0.77682 
 C                     1.74297   1.28491   0.15617 
 H                     1.8413    1.33371  -0.93666 
 H                     1.15752   2.16077   0.45569 
 C                     0.96596   0.00926   0.51752 
 H                     0.74549  -0.01478   1.59513 
 H                     0.        0.        0. 
 C                     5.14311   0.        0. 
 H                     5.58811  -0.97106  -0.20964 
 C                     5.97267   1.19619  -0.36204 
 H                     7.02757   1.01976  -0.12484 
 C                     5.46768   2.48531   0.31403 
 H                     5.6919    2.36117   1.38376 
 C                     3.93084   2.58275   0.10771 
 H                     3.78036   2.47102  -0.97614 
 C                     3.34912   3.96275   0.49389 
 H                     3.28524   4.05718   1.58251 
 H                     2.31935   4.03659   0.12561 
 C                     4.15063   5.16212  -0.04803 
 H                     4.09584   5.17921  -1.14585 
 H                     3.67449   6.083     0.30341 
 C                     5.63099   5.08541   0.37138 
 C                     6.1839    3.74475  -0.19497 
 H                     5.99973   3.78798  -1.27784 
 C                     7.70443   3.85845   0. 
 H                     8.25587   3.21797  -0.69066 
 H                     7.9879    3.56024   1.01778 
 C                     7.99231   5.3668   -0.23594 
 H                     8.58796   5.7834    0.58513 
 H                     8.57592   5.52231  -1.14866 
 C                     6.60879   6.09176  -0.32739 
 H                     6.30584   6.11484  -1.38436 
 C                     5.76921   5.18638   1.90836 
 H                     5.29879   4.34705   2.4268 
 H                     6.8161    5.21326   2.22465 
 H                     5.29399   6.10092   2.27958 
 C                     6.67671   7.55868   0.16614 
 H                     6.9983    7.5354    1.21776 
 C                     5.32511   8.29651   0.12149 
 H                     4.84384   8.2148   -0.85935 
 H                     5.4644    9.36304   0.33506 
 H                     4.62349   7.90709   0.86349 
 C                     3.05921   1.56222   2.31583 
 H                     2.38711   2.38663   2.57151 
 H                     2.6648    0.66548   2.79981 
 H                     4.03641   1.7663    2.76409 
 O                     5.87267   1.23857  -1.81734 
 O                     7.10728   1.7947   -2.37814 
 H                     7.37535   1.05313  -2.94429 
 O                     1.04996  -2.45028   0.44737 
 H                     0.86959  -2.47213   1.39771 
 C                     7.76572   8.37745  -0.58018 
 H                     7.80972   9.37177  -0.11191 
 H                     8.74424   7.91935  -0.39768 
 C                     7.56234   8.56415  -2.09355 
 H                     7.61833   7.59485  -2.604 
 H                     6.54966   8.94236  -2.28132 
 C                     8.5531    9.5505   -2.74123 
 H                     8.44286   10.52685  -2.2472 
 H                     8.25849   9.70716  -3.78967 
 C                     10.04614   9.15906  -2.7175 
 H                     10.34525   8.9987   -1.67183 
 C                     10.32378   7.86121  -3.49259 
 H                     10.02479   7.96471  -4.54389 
 H                     11.39158   7.61482  -3.47409 
 H                     9.78199   7.00638  -3.07548 
 C                     10.90404   10.30889  -3.26977 
 H                     10.65082   10.51733  -4.31735 
 H                     11.97177   10.06471  -3.22884 
 H                     10.74893   11.23251  -2.70028 
 
 NAtoms=     76 NQM=       76 NQMF=       0 NMMI=      0 NMMIF=      0
                NMic=       0 NMicF=      0.
                    Isotopes and Nuclear Properties:
 (Nuclear quadrupole moments (NQMom) in fm**2, nuclear magnetic moments (NMagM)
  in nuclear magnetons)

  Atom         1           2           3           4           5           6           7           8           9          10
 IAtWgt=          12           1          12           1           1          12          12          12           1           1
 AtmWgt=  12.0000000   1.0078250  12.0000000   1.0078250   1.0078250  12.0000000  12.0000000  12.0000000   1.0078250   1.0078250
 NucSpn=           0           1           0           1           1           0           0           0           1           1
 AtZEff=   0.0000000   0.0000000   0.0000000   0.0000000   0.0000000   0.0000000   0.0000000   0.0000000   0.0000000   0.0000000
 NQMom=    0.0000000   0.0000000   0.0000000   0.0000000   0.0000000   0.0000000   0.0000000   0.0000000   0.0000000   0.0000000
 NMagM=    0.0000000   2.7928460   0.0000000   2.7928460   2.7928460   0.0000000   0.0000000   0.0000000   2.7928460   2.7928460
 AtZNuc=   6.0000000   1.0000000   6.0000000   1.0000000   1.0000000   6.0000000   6.0000000   6.0000000   1.0000000   1.0000000

  Atom        11          12          13          14          15          16          17          18          19          20
 IAtWgt=          12           1           1          12           1          12           1          12           1          12
 AtmWgt=  12.0000000   1.0078250   1.0078250  12.0000000   1.0078250  12.0000000   1.0078250  12.0000000   1.0078250  12.0000000
 NucSpn=           0           1           1           0           1           0           1           0           1           0
 AtZEff=   0.0000000   0.0000000   0.0000000   0.0000000   0.0000000   0.0000000   0.0000000   0.0000000   0.0000000   0.0000000
 NQMom=    0.0000000   0.0000000   0.0000000   0.0000000   0.0000000   0.0000000   0.0000000   0.0000000   0.0000000   0.0000000
 NMagM=    0.0000000   2.7928460   2.7928460   0.0000000   2.7928460   0.0000000   2.7928460   0.0000000   2.7928460   0.0000000
 AtZNuc=   6.0000000   1.0000000   1.0000000   6.0000000   1.0000000   6.0000000   1.0000000   6.0000000   1.0000000   6.0000000

  Atom        21          22          23          24          25          26          27          28          29          30
 IAtWgt=           1          12           1           1          12           1           1          12          12           1
 AtmWgt=   1.0078250  12.0000000   1.0078250   1.0078250  12.0000000   1.0078250   1.0078250  12.0000000  12.0000000   1.0078250
 NucSpn=           1           0           1           1           0           1           1           0           0           1
 AtZEff=   0.0000000   0.0000000   0.0000000   0.0000000   0.0000000   0.0000000   0.0000000   0.0000000   0.0000000   0.0000000
 NQMom=    0.0000000   0.0000000   0.0000000   0.0000000   0.0000000   0.0000000   0.0000000   0.0000000   0.0000000   0.0000000
 NMagM=    2.7928460   0.0000000   2.7928460   2.7928460   0.0000000   2.7928460   2.7928460   0.0000000   0.0000000   2.7928460
 AtZNuc=   1.0000000   6.0000000   1.0000000   1.0000000   6.0000000   1.0000000   1.0000000   6.0000000   6.0000000   1.0000000

  Atom        31          32          33          34          35          36          37          38          39          40
 IAtWgt=          12           1           1          12           1           1          12           1          12           1
 AtmWgt=  12.0000000   1.0078250   1.0078250  12.0000000   1.0078250   1.0078250  12.0000000   1.0078250  12.0000000   1.0078250
 NucSpn=           0           1           1           0           1           1           0           1           0           1
 AtZEff=   0.0000000   0.0000000   0.0000000   0.0000000   0.0000000   0.0000000   0.0000000   0.0000000   0.0000000   0.0000000
 NQMom=    0.0000000   0.0000000   0.0000000   0.0000000   0.0000000   0.0000000   0.0000000   0.0000000   0.0000000   0.0000000
 NMagM=    0.0000000   2.7928460   2.7928460   0.0000000   2.7928460   2.7928460   0.0000000   2.7928460   0.0000000   2.7928460
 AtZNuc=   6.0000000   1.0000000   1.0000000   6.0000000   1.0000000   1.0000000   6.0000000   1.0000000   6.0000000   1.0000000

  Atom        41          42          43          44          45          46          47          48          49          50
 IAtWgt=           1           1          12           1          12           1           1           1          12           1
 AtmWgt=   1.0078250   1.0078250  12.0000000   1.0078250  12.0000000   1.0078250   1.0078250   1.0078250  12.0000000   1.0078250
 NucSpn=           1           1           0           1           0           1           1           1           0           1
 AtZEff=   0.0000000   0.0000000   0.0000000   0.0000000   0.0000000   0.0000000   0.0000000   0.0000000   0.0000000   0.0000000
 NQMom=    0.0000000   0.0000000   0.0000000   0.0000000   0.0000000   0.0000000   0.0000000   0.0000000   0.0000000   0.0000000
 NMagM=    2.7928460   2.7928460   0.0000000   2.7928460   0.0000000   2.7928460   2.7928460   2.7928460   0.0000000   2.7928460
 AtZNuc=   1.0000000   1.0000000   6.0000000   1.0000000   6.0000000   1.0000000   1.0000000   1.0000000   6.0000000   1.0000000

  Atom        51          52          53          54          55          56          57          58          59          60
 IAtWgt=           1           1          16          16           1          16           1          12           1           1
 AtmWgt=   1.0078250   1.0078250  15.9949146  15.9949146   1.0078250  15.9949146   1.0078250  12.0000000   1.0078250   1.0078250
 NucSpn=           1           1           0           0           1           0           1           0           1           1
 AtZEff=   0.0000000   0.0000000   0.0000000   0.0000000   0.0000000   0.0000000   0.0000000   0.0000000   0.0000000   0.0000000
 NQMom=    0.0000000   0.0000000   0.0000000   0.0000000   0.0000000   0.0000000   0.0000000   0.0000000   0.0000000   0.0000000
 NMagM=    2.7928460   2.7928460   0.0000000   0.0000000   2.7928460   0.0000000   2.7928460   0.0000000   2.7928460   2.7928460
 AtZNuc=   1.0000000   1.0000000   8.0000000   8.0000000   1.0000000   8.0000000   1.0000000   6.0000000   1.0000000   1.0000000

  Atom        61          62          63          64          65          66          67          68          69          70
 IAtWgt=          12           1           1          12           1           1          12           1          12           1
 AtmWgt=  12.0000000   1.0078250   1.0078250  12.0000000   1.0078250   1.0078250  12.0000000   1.0078250  12.0000000   1.0078250
 NucSpn=           0           1           1           0           1           1           0           1           0           1
 AtZEff=   0.0000000   0.0000000   0.0000000   0.0000000   0.0000000   0.0000000   0.0000000   0.0000000   0.0000000   0.0000000
 NQMom=    0.0000000   0.0000000   0.0000000   0.0000000   0.0000000   0.0000000   0.0000000   0.0000000   0.0000000   0.0000000
 NMagM=    0.0000000   2.7928460   2.7928460   0.0000000   2.7928460   2.7928460   0.0000000   2.7928460   0.0000000   2.7928460
 AtZNuc=   6.0000000   1.0000000   1.0000000   6.0000000   1.0000000   1.0000000   6.0000000   1.0000000   6.0000000   1.0000000

  Atom        71          72          73          74          75          76
 IAtWgt=           1           1          12           1           1           1
 AtmWgt=   1.0078250   1.0078250  12.0000000   1.0078250   1.0078250   1.0078250
 NucSpn=           1           1           0           1           1           1
 AtZEff=   0.0000000   0.0000000   0.0000000   0.0000000   0.0000000   0.0000000
 NQMom=    0.0000000   0.0000000   0.0000000   0.0000000   0.0000000   0.0000000
 NMagM=    2.7928460   2.7928460   0.0000000   2.7928460   2.7928460   2.7928460
 AtZNuc=   1.0000000   1.0000000   6.0000000   1.0000000   1.0000000   1.0000000
 Leave Link  101 at Wed Apr 26 14:17:42 2017, MaxMem=    33554432 cpu:         1.0
 (Enter /home/michal/g09/l202.exe)
 Symmetry turned off by external request.
 Stoichiometry    C27H46O3
 Framework group  C1[X(C27H46O3)]
 Deg. of freedom   222
 Full point group                 C1      NOp   1
                          Input orientation:                          
 ---------------------------------------------------------------------
 Center     Atomic      Atomic             Coordinates (Angstroms)
 Number     Number       Type             X           Y           Z
 ---------------------------------------------------------------------
      1          6           0        1.755970   -1.244618    0.142753
      2          1           0        1.884906   -1.276513   -0.945791
      3          6           0        3.142779   -1.215105    0.805812
      4          1           0        3.722752   -2.085933    0.484945
      5          1           0        2.996821   -1.314826    1.892838
      6          6           0        3.899084    0.062939    0.498604
      7          6           0        3.171219    1.382941    0.776818
      8          6           0        1.742967    1.284911    0.156168
      9          1           0        1.841301    1.333710   -0.936664
     10          1           0        1.157518    2.160770    0.455695
     11          6           0        0.965957    0.009256    0.517515
     12          1           0        0.745488   -0.014785    1.595126
     13          1           0        0.000000    0.000000    0.000000
     14          6           0        5.143114    0.000000    0.000000
     15          1           0        5.588110   -0.971057   -0.209638
     16          6           0        5.972668    1.196186   -0.362037
     17          1           0        7.027571    1.019764   -0.124840
     18          6           0        5.467676    2.485315    0.314033
     19          1           0        5.691903    2.361173    1.383764
     20          6           0        3.930843    2.582752    0.107705
     21          1           0        3.780364    2.471023   -0.976143
     22          6           0        3.349117    3.962750    0.493889
     23          1           0        3.285241    4.057176    1.582506
     24          1           0        2.319350    4.036590    0.125605
     25          6           0        4.150625    5.162122   -0.048029
     26          1           0        4.095838    5.179214   -1.145854
     27          1           0        3.674494    6.083004    0.303410
     28          6           0        5.630993    5.085414    0.371378
     29          6           0        6.183901    3.744752   -0.194974
     30          1           0        5.999728    3.787978   -1.277842
     31          6           0        7.704429    3.858452    0.000000
     32          1           0        8.255869    3.217974   -0.690661
     33          1           0        7.987905    3.560238    1.017776
     34          6           0        7.992308    5.366804   -0.235943
     35          1           0        8.587956    5.783400    0.585126
     36          1           0        8.575921    5.522312   -1.148664
     37          6           0        6.608789    6.091757   -0.327386
     38          1           0        6.305837    6.114844   -1.384359
     39          6           0        5.769213    5.186381    1.908357
     40          1           0        5.298793    4.347049    2.426804
     41          1           0        6.816102    5.213255    2.224654
     42          1           0        5.293989    6.100915    2.279576
     43          6           0        6.676713    7.558677    0.166144
     44          1           0        6.998298    7.535396    1.217760
     45          6           0        5.325114    8.296510    0.121491
     46          1           0        4.843843    8.214798   -0.859353
     47          1           0        5.464399    9.363035    0.335064
     48          1           0        4.623492    7.907089    0.863493
     49          6           0        3.059207    1.562218    2.315833
     50          1           0        2.387107    2.386630    2.571513
     51          1           0        2.664802    0.665482    2.799808
     52          1           0        4.036410    1.766303    2.764086
     53          8           0        5.872668    1.238572   -1.817342
     54          8           0        7.107278    1.794696   -2.378139
     55          1           0        7.375351    1.053134   -2.944289
     56          8           0        1.049959   -2.450285    0.447368
     57          1           0        0.869585   -2.472127    1.397708
     58          6           0        7.765725    8.377447   -0.580179
     59          1           0        7.809724    9.371767   -0.111911
     60          1           0        8.744239    7.919354   -0.397680
     61          6           0        7.562335    8.564155   -2.093552
     62          1           0        7.618334    7.594851   -2.604002
     63          1           0        6.549662    8.942358   -2.281324
     64          6           0        8.553101    9.550501   -2.741229
     65          1           0        8.442857   10.526847   -2.247202
     66          1           0        8.258492    9.707162   -3.789672
     67          6           0       10.046135    9.159063   -2.717499
     68          1           0       10.345251    8.998695   -1.671833
     69          6           0       10.323782    7.861214   -3.492592
     70          1           0       10.024786    7.964712   -4.543891
     71          1           0       11.391584    7.614815   -3.474089
     72          1           0        9.781990    7.006381   -3.075482
     73          6           0       10.904037   10.308885   -3.269767
     74          1           0       10.650823   10.517334   -4.317348
     75          1           0       11.971770   10.064705   -3.228843
     76          1           0       10.748930   11.232514   -2.700281
 ---------------------------------------------------------------------
 Rotational constants (GHZ):      0.3737590      0.0601282      0.0556076
 Leave Link  202 at Wed Apr 26 14:17:42 2017, MaxMem=    33554432 cpu:         0.5
 (Enter /home/michal/g09/l301.exe)
 Standard basis: 6-31G(d) (6D, 7F)
 Ernie: Thresh=  0.10000D-02 Tol=  0.10000D-05 Strict=F.
 AO basis set in the form of general basis input (Overlap normalization):
      1 0
 S   6 1.00       0.000000000000
      0.3047524880D+04  0.1834737132D-02
      0.4573695180D+03  0.1403732281D-01
      0.1039486850D+03  0.6884262226D-01
      0.2921015530D+02  0.2321844432D+00
      0.9286662960D+01  0.4679413484D+00
      0.3163926960D+01  0.3623119853D+00
 SP   3 1.00       0.000000000000
      0.7868272350D+01 -0.1193324198D+00  0.6899906659D-01
      0.1881288540D+01 -0.1608541517D+00  0.3164239610D+00
      0.5442492580D+00  0.1143456438D+01  0.7443082909D+00
 SP   1 1.00       0.000000000000
      0.1687144782D+00  0.1000000000D+01  0.1000000000D+01
 D   1 1.00       0.000000000000
      0.8000000000D+00  0.1000000000D+01
 ****
      2 0
 S   3 1.00       0.000000000000
      0.1873113696D+02  0.3349460434D-01
      0.2825394365D+01  0.2347269535D+00
      0.6401216923D+00  0.8137573261D+00
 S   1 1.00       0.000000000000
      0.1612777588D+00  0.1000000000D+01
 ****
      3 0
 S   6 1.00       0.000000000000
      0.3047524880D+04  0.1834737132D-02
      0.4573695180D+03  0.1403732281D-01
      0.1039486850D+03  0.6884262226D-01
      0.2921015530D+02  0.2321844432D+00
      0.9286662960D+01  0.4679413484D+00
      0.3163926960D+01  0.3623119853D+00
 SP   3 1.00       0.000000000000
      0.7868272350D+01 -0.1193324198D+00  0.6899906659D-01
      0.1881288540D+01 -0.1608541517D+00  0.3164239610D+00
      0.5442492580D+00  0.1143456438D+01  0.7443082909D+00
 SP   1 1.00       0.000000000000
      0.1687144782D+00  0.1000000000D+01  0.1000000000D+01
 D   1 1.00       0.000000000000
      0.8000000000D+00  0.1000000000D+01
 ****
      4 0
 S   3 1.00       0.000000000000
      0.1873113696D+02  0.3349460434D-01
      0.2825394365D+01  0.2347269535D+00
      0.6401216923D+00  0.8137573261D+00
 S   1 1.00       0.000000000000
      0.1612777588D+00  0.1000000000D+01
 ****
      5 0
 S   3 1.00       0.000000000000
      0.1873113696D+02  0.3349460434D-01
      0.2825394365D+01  0.2347269535D+00
      0.6401216923D+00  0.8137573261D+00
 S   1 1.00       0.000000000000
      0.1612777588D+00  0.1000000000D+01
 ****
      6 0
 S   6 1.00       0.000000000000
      0.3047524880D+04  0.1834737132D-02
      0.4573695180D+03  0.1403732281D-01
      0.1039486850D+03  0.6884262226D-01
      0.2921015530D+02  0.2321844432D+00
      0.9286662960D+01  0.4679413484D+00
      0.3163926960D+01  0.3623119853D+00
 SP   3 1.00       0.000000000000
      0.7868272350D+01 -0.1193324198D+00  0.6899906659D-01
      0.1881288540D+01 -0.1608541517D+00  0.3164239610D+00
      0.5442492580D+00  0.1143456438D+01  0.7443082909D+00
 SP   1 1.00       0.000000000000
      0.1687144782D+00  0.1000000000D+01  0.1000000000D+01
 D   1 1.00       0.000000000000
      0.8000000000D+00  0.1000000000D+01
 ****
      7 0
 S   6 1.00       0.000000000000
      0.3047524880D+04  0.1834737132D-02
      0.4573695180D+03  0.1403732281D-01
      0.1039486850D+03  0.6884262226D-01
      0.2921015530D+02  0.2321844432D+00
      0.9286662960D+01  0.4679413484D+00
      0.3163926960D+01  0.3623119853D+00
 SP   3 1.00       0.000000000000
      0.7868272350D+01 -0.1193324198D+00  0.6899906659D-01
      0.1881288540D+01 -0.1608541517D+00  0.3164239610D+00
      0.5442492580D+00  0.1143456438D+01  0.7443082909D+00
 SP   1 1.00       0.000000000000
      0.1687144782D+00  0.1000000000D+01  0.1000000000D+01
 D   1 1.00       0.000000000000
      0.8000000000D+00  0.1000000000D+01
 ****
      8 0
 S   6 1.00       0.000000000000
      0.3047524880D+04  0.1834737132D-02
      0.4573695180D+03  0.1403732281D-01
      0.1039486850D+03  0.6884262226D-01
      0.2921015530D+02  0.2321844432D+00
      0.9286662960D+01  0.4679413484D+00
      0.3163926960D+01  0.3623119853D+00
 SP   3 1.00       0.000000000000
      0.7868272350D+01 -0.1193324198D+00  0.6899906659D-01
      0.1881288540D+01 -0.1608541517D+00  0.3164239610D+00
      0.5442492580D+00  0.1143456438D+01  0.7443082909D+00
 SP   1 1.00       0.000000000000
      0.1687144782D+00  0.1000000000D+01  0.1000000000D+01
 D   1 1.00       0.000000000000
      0.8000000000D+00  0.1000000000D+01
 ****
      9 0
 S   3 1.00       0.000000000000
      0.1873113696D+02  0.3349460434D-01
      0.2825394365D+01  0.2347269535D+00
      0.6401216923D+00  0.8137573261D+00
 S   1 1.00       0.000000000000
      0.1612777588D+00  0.1000000000D+01
 ****
     10 0
 S   3 1.00       0.000000000000
      0.1873113696D+02  0.3349460434D-01
      0.2825394365D+01  0.2347269535D+00
      0.6401216923D+00  0.8137573261D+00
 S   1 1.00       0.000000000000
      0.1612777588D+00  0.1000000000D+01
 ****
     11 0
 S   6 1.00       0.000000000000
      0.3047524880D+04  0.1834737132D-02
      0.4573695180D+03  0.1403732281D-01
      0.1039486850D+03  0.6884262226D-01
      0.2921015530D+02  0.2321844432D+00
      0.9286662960D+01  0.4679413484D+00
      0.3163926960D+01  0.3623119853D+00
 SP   3 1.00       0.000000000000
      0.7868272350D+01 -0.1193324198D+00  0.6899906659D-01
      0.1881288540D+01 -0.1608541517D+00  0.3164239610D+00
      0.5442492580D+00  0.1143456438D+01  0.7443082909D+00
 SP   1 1.00       0.000000000000
      0.1687144782D+00  0.1000000000D+01  0.1000000000D+01
 D   1 1.00       0.000000000000
      0.8000000000D+00  0.1000000000D+01
 ****
     12 0
 S   3 1.00       0.000000000000
      0.1873113696D+02  0.3349460434D-01
      0.2825394365D+01  0.2347269535D+00
      0.6401216923D+00  0.8137573261D+00
 S   1 1.00       0.000000000000
      0.1612777588D+00  0.1000000000D+01
 ****
     13 0
 S   3 1.00       0.000000000000
      0.1873113696D+02  0.3349460434D-01
      0.2825394365D+01  0.2347269535D+00
      0.6401216923D+00  0.8137573261D+00
 S   1 1.00       0.000000000000
      0.1612777588D+00  0.1000000000D+01
 ****
     14 0
 S   6 1.00       0.000000000000
      0.3047524880D+04  0.1834737132D-02
      0.4573695180D+03  0.1403732281D-01
      0.1039486850D+03  0.6884262226D-01
      0.2921015530D+02  0.2321844432D+00
      0.9286662960D+01  0.4679413484D+00
      0.3163926960D+01  0.3623119853D+00
 SP   3 1.00       0.000000000000
      0.7868272350D+01 -0.1193324198D+00  0.6899906659D-01
      0.1881288540D+01 -0.1608541517D+00  0.3164239610D+00
      0.5442492580D+00  0.1143456438D+01  0.7443082909D+00
 SP   1 1.00       0.000000000000
      0.1687144782D+00  0.1000000000D+01  0.1000000000D+01
 D   1 1.00       0.000000000000
      0.8000000000D+00  0.1000000000D+01
 ****
     15 0
 S   3 1.00       0.000000000000
      0.1873113696D+02  0.3349460434D-01
      0.2825394365D+01  0.2347269535D+00
      0.6401216923D+00  0.8137573261D+00
 S   1 1.00       0.000000000000
      0.1612777588D+00  0.1000000000D+01
 ****
     16 0
 S   6 1.00       0.000000000000
      0.3047524880D+04  0.1834737132D-02
      0.4573695180D+03  0.1403732281D-01
      0.1039486850D+03  0.6884262226D-01
      0.2921015530D+02  0.2321844432D+00
      0.9286662960D+01  0.4679413484D+00
      0.3163926960D+01  0.3623119853D+00
 SP   3 1.00       0.000000000000
      0.7868272350D+01 -0.1193324198D+00  0.6899906659D-01
      0.1881288540D+01 -0.1608541517D+00  0.3164239610D+00
      0.5442492580D+00  0.1143456438D+01  0.7443082909D+00
 SP   1 1.00       0.000000000000
      0.1687144782D+00  0.1000000000D+01  0.1000000000D+01
 D   1 1.00       0.000000000000
      0.8000000000D+00  0.1000000000D+01
 ****
     17 0
 S   3 1.00       0.000000000000
      0.1873113696D+02  0.3349460434D-01
      0.2825394365D+01  0.2347269535D+00
      0.6401216923D+00  0.8137573261D+00
 S   1 1.00       0.000000000000
      0.1612777588D+00  0.1000000000D+01
 ****
     18 0
 S   6 1.00       0.000000000000
      0.3047524880D+04  0.1834737132D-02
      0.4573695180D+03  0.1403732281D-01
      0.1039486850D+03  0.6884262226D-01
      0.2921015530D+02  0.2321844432D+00
      0.9286662960D+01  0.4679413484D+00
      0.3163926960D+01  0.3623119853D+00
 SP   3 1.00       0.000000000000
      0.7868272350D+01 -0.1193324198D+00  0.6899906659D-01
      0.1881288540D+01 -0.1608541517D+00  0.3164239610D+00
      0.5442492580D+00  0.1143456438D+01  0.7443082909D+00
 SP   1 1.00       0.000000000000
      0.1687144782D+00  0.1000000000D+01  0.1000000000D+01
 D   1 1.00       0.000000000000
      0.8000000000D+00  0.1000000000D+01
 ****
     19 0
 S   3 1.00       0.000000000000
      0.1873113696D+02  0.3349460434D-01
      0.2825394365D+01  0.2347269535D+00
      0.6401216923D+00  0.8137573261D+00
 S   1 1.00       0.000000000000
      0.1612777588D+00  0.1000000000D+01
 ****
     20 0
 S   6 1.00       0.000000000000
      0.3047524880D+04  0.1834737132D-02
      0.4573695180D+03  0.1403732281D-01
      0.1039486850D+03  0.6884262226D-01
      0.2921015530D+02  0.2321844432D+00
      0.9286662960D+01  0.4679413484D+00
      0.3163926960D+01  0.3623119853D+00
 SP   3 1.00       0.000000000000
      0.7868272350D+01 -0.1193324198D+00  0.6899906659D-01
      0.1881288540D+01 -0.1608541517D+00  0.3164239610D+00
      0.5442492580D+00  0.1143456438D+01  0.7443082909D+00
 SP   1 1.00       0.000000000000
      0.1687144782D+00  0.1000000000D+01  0.1000000000D+01
 D   1 1.00       0.000000000000
      0.8000000000D+00  0.1000000000D+01
 ****
     21 0
 S   3 1.00       0.000000000000
      0.1873113696D+02  0.3349460434D-01
      0.2825394365D+01  0.2347269535D+00
      0.6401216923D+00  0.8137573261D+00
 S   1 1.00       0.000000000000
      0.1612777588D+00  0.1000000000D+01
 ****
     22 0
 S   6 1.00       0.000000000000
      0.3047524880D+04  0.1834737132D-02
      0.4573695180D+03  0.1403732281D-01
      0.1039486850D+03  0.6884262226D-01
      0.2921015530D+02  0.2321844432D+00
      0.9286662960D+01  0.4679413484D+00
      0.3163926960D+01  0.3623119853D+00
 SP   3 1.00       0.000000000000
      0.7868272350D+01 -0.1193324198D+00  0.6899906659D-01
      0.1881288540D+01 -0.1608541517D+00  0.3164239610D+00
      0.5442492580D+00  0.1143456438D+01  0.7443082909D+00
 SP   1 1.00       0.000000000000
      0.1687144782D+00  0.1000000000D+01  0.1000000000D+01
 D   1 1.00       0.000000000000
      0.8000000000D+00  0.1000000000D+01
 ****
     23 0
 S   3 1.00       0.000000000000
      0.1873113696D+02  0.3349460434D-01
      0.2825394365D+01  0.2347269535D+00
      0.6401216923D+00  0.8137573261D+00
 S   1 1.00       0.000000000000
      0.1612777588D+00  0.1000000000D+01
 ****
     24 0
 S   3 1.00       0.000000000000
      0.1873113696D+02  0.3349460434D-01
      0.2825394365D+01  0.2347269535D+00
      0.6401216923D+00  0.8137573261D+00
 S   1 1.00       0.000000000000
      0.1612777588D+00  0.1000000000D+01
 ****
     25 0
 S   6 1.00       0.000000000000
      0.3047524880D+04  0.1834737132D-02
      0.4573695180D+03  0.1403732281D-01
      0.1039486850D+03  0.6884262226D-01
      0.2921015530D+02  0.2321844432D+00
      0.9286662960D+01  0.4679413484D+00
      0.3163926960D+01  0.3623119853D+00
 SP   3 1.00       0.000000000000
      0.7868272350D+01 -0.1193324198D+00  0.6899906659D-01
      0.1881288540D+01 -0.1608541517D+00  0.3164239610D+00
      0.5442492580D+00  0.1143456438D+01  0.7443082909D+00
 SP   1 1.00       0.000000000000
      0.1687144782D+00  0.1000000000D+01  0.1000000000D+01
 D   1 1.00       0.000000000000
      0.8000000000D+00  0.1000000000D+01
 ****
     26 0
 S   3 1.00       0.000000000000
      0.1873113696D+02  0.3349460434D-01
      0.2825394365D+01  0.2347269535D+00
      0.6401216923D+00  0.8137573261D+00
 S   1 1.00       0.000000000000
      0.1612777588D+00  0.1000000000D+01
 ****
     27 0
 S   3 1.00       0.000000000000
      0.1873113696D+02  0.3349460434D-01
      0.2825394365D+01  0.2347269535D+00
      0.6401216923D+00  0.8137573261D+00
 S   1 1.00       0.000000000000
      0.1612777588D+00  0.1000000000D+01
 ****
     28 0
 S   6 1.00       0.000000000000
      0.3047524880D+04  0.1834737132D-02
      0.4573695180D+03  0.1403732281D-01
      0.1039486850D+03  0.6884262226D-01
      0.2921015530D+02  0.2321844432D+00
      0.9286662960D+01  0.4679413484D+00
      0.3163926960D+01  0.3623119853D+00
 SP   3 1.00       0.000000000000
      0.7868272350D+01 -0.1193324198D+00  0.6899906659D-01
      0.1881288540D+01 -0.1608541517D+00  0.3164239610D+00
      0.5442492580D+00  0.1143456438D+01  0.7443082909D+00
 SP   1 1.00       0.000000000000
      0.1687144782D+00  0.1000000000D+01  0.1000000000D+01
 D   1 1.00       0.000000000000
      0.8000000000D+00  0.1000000000D+01
 ****
     29 0
 S   6 1.00       0.000000000000
      0.3047524880D+04  0.1834737132D-02
      0.4573695180D+03  0.1403732281D-01
      0.1039486850D+03  0.6884262226D-01
      0.2921015530D+02  0.2321844432D+00
      0.9286662960D+01  0.4679413484D+00
      0.3163926960D+01  0.3623119853D+00
 SP   3 1.00       0.000000000000
      0.7868272350D+01 -0.1193324198D+00  0.6899906659D-01
      0.1881288540D+01 -0.1608541517D+00  0.3164239610D+00
      0.5442492580D+00  0.1143456438D+01  0.7443082909D+00
 SP   1 1.00       0.000000000000
      0.1687144782D+00  0.1000000000D+01  0.1000000000D+01
 D   1 1.00       0.000000000000
      0.8000000000D+00  0.1000000000D+01
 ****
     30 0
 S   3 1.00       0.000000000000
      0.1873113696D+02  0.3349460434D-01
      0.2825394365D+01  0.2347269535D+00
      0.6401216923D+00  0.8137573261D+00
 S   1 1.00       0.000000000000
      0.1612777588D+00  0.1000000000D+01
 ****
     31 0
 S   6 1.00       0.000000000000
      0.3047524880D+04  0.1834737132D-02
      0.4573695180D+03  0.1403732281D-01
      0.1039486850D+03  0.6884262226D-01
      0.2921015530D+02  0.2321844432D+00
      0.9286662960D+01  0.4679413484D+00
      0.3163926960D+01  0.3623119853D+00
 SP   3 1.00       0.000000000000
      0.7868272350D+01 -0.1193324198D+00  0.6899906659D-01
      0.1881288540D+01 -0.1608541517D+00  0.3164239610D+00
      0.5442492580D+00  0.1143456438D+01  0.7443082909D+00
 SP   1 1.00       0.000000000000
      0.1687144782D+00  0.1000000000D+01  0.1000000000D+01
 D   1 1.00       0.000000000000
      0.8000000000D+00  0.1000000000D+01
 ****
     32 0
 S   3 1.00       0.000000000000
      0.1873113696D+02  0.3349460434D-01
      0.2825394365D+01  0.2347269535D+00
      0.6401216923D+00  0.8137573261D+00
 S   1 1.00       0.000000000000
      0.1612777588D+00  0.1000000000D+01
 ****
     33 0
 S   3 1.00       0.000000000000
      0.1873113696D+02  0.3349460434D-01
      0.2825394365D+01  0.2347269535D+00
      0.6401216923D+00  0.8137573261D+00
 S   1 1.00       0.000000000000
      0.1612777588D+00  0.1000000000D+01
 ****
     34 0
 S   6 1.00       0.000000000000
      0.3047524880D+04  0.1834737132D-02
      0.4573695180D+03  0.1403732281D-01
      0.1039486850D+03  0.6884262226D-01
      0.2921015530D+02  0.2321844432D+00
      0.9286662960D+01  0.4679413484D+00
      0.3163926960D+01  0.3623119853D+00
 SP   3 1.00       0.000000000000
      0.7868272350D+01 -0.1193324198D+00  0.6899906659D-01
      0.1881288540D+01 -0.1608541517D+00  0.3164239610D+00
      0.5442492580D+00  0.1143456438D+01  0.7443082909D+00
 SP   1 1.00       0.000000000000
      0.1687144782D+00  0.1000000000D+01  0.1000000000D+01
 D   1 1.00       0.000000000000
      0.8000000000D+00  0.1000000000D+01
 ****
     35 0
 S   3 1.00       0.000000000000
      0.1873113696D+02  0.3349460434D-01
      0.2825394365D+01  0.2347269535D+00
      0.6401216923D+00  0.8137573261D+00
 S   1 1.00       0.000000000000
      0.1612777588D+00  0.1000000000D+01
 ****
     36 0
 S   3 1.00       0.000000000000
      0.1873113696D+02  0.3349460434D-01
      0.2825394365D+01  0.2347269535D+00
      0.6401216923D+00  0.8137573261D+00
 S   1 1.00       0.000000000000
      0.1612777588D+00  0.1000000000D+01
 ****
     37 0
 S   6 1.00       0.000000000000
      0.3047524880D+04  0.1834737132D-02
      0.4573695180D+03  0.1403732281D-01
      0.1039486850D+03  0.6884262226D-01
      0.2921015530D+02  0.2321844432D+00
      0.9286662960D+01  0.4679413484D+00
      0.3163926960D+01  0.3623119853D+00
 SP   3 1.00       0.000000000000
      0.7868272350D+01 -0.1193324198D+00  0.6899906659D-01
      0.1881288540D+01 -0.1608541517D+00  0.3164239610D+00
      0.5442492580D+00  0.1143456438D+01  0.7443082909D+00
 SP   1 1.00       0.000000000000
      0.1687144782D+00  0.1000000000D+01  0.1000000000D+01
 D   1 1.00       0.000000000000
      0.8000000000D+00  0.1000000000D+01
 ****
     38 0
 S   3 1.00       0.000000000000
      0.1873113696D+02  0.3349460434D-01
      0.2825394365D+01  0.2347269535D+00
      0.6401216923D+00  0.8137573261D+00
 S   1 1.00       0.000000000000
      0.1612777588D+00  0.1000000000D+01
 ****
     39 0
 S   6 1.00       0.000000000000
      0.3047524880D+04  0.1834737132D-02
      0.4573695180D+03  0.1403732281D-01
      0.1039486850D+03  0.6884262226D-01
      0.2921015530D+02  0.2321844432D+00
      0.9286662960D+01  0.4679413484D+00
      0.3163926960D+01  0.3623119853D+00
 SP   3 1.00       0.000000000000
      0.7868272350D+01 -0.1193324198D+00  0.6899906659D-01
      0.1881288540D+01 -0.1608541517D+00  0.3164239610D+00
      0.5442492580D+00  0.1143456438D+01  0.7443082909D+00
 SP   1 1.00       0.000000000000
      0.1687144782D+00  0.1000000000D+01  0.1000000000D+01
 D   1 1.00       0.000000000000
      0.8000000000D+00  0.1000000000D+01
 ****
     40 0
 S   3 1.00       0.000000000000
      0.1873113696D+02  0.3349460434D-01
      0.2825394365D+01  0.2347269535D+00
      0.6401216923D+00  0.8137573261D+00
 S   1 1.00       0.000000000000
      0.1612777588D+00  0.1000000000D+01
 ****
     41 0
 S   3 1.00       0.000000000000
      0.1873113696D+02  0.3349460434D-01
      0.2825394365D+01  0.2347269535D+00
      0.6401216923D+00  0.8137573261D+00
 S   1 1.00       0.000000000000
      0.1612777588D+00  0.1000000000D+01
 ****
     42 0
 S   3 1.00       0.000000000000
      0.1873113696D+02  0.3349460434D-01
      0.2825394365D+01  0.2347269535D+00
      0.6401216923D+00  0.8137573261D+00
 S   1 1.00       0.000000000000
      0.1612777588D+00  0.1000000000D+01
 ****
     43 0
 S   6 1.00       0.000000000000
      0.3047524880D+04  0.1834737132D-02
      0.4573695180D+03  0.1403732281D-01
      0.1039486850D+03  0.6884262226D-01
      0.2921015530D+02  0.2321844432D+00
      0.9286662960D+01  0.4679413484D+00
      0.3163926960D+01  0.3623119853D+00
 SP   3 1.00       0.000000000000
      0.7868272350D+01 -0.1193324198D+00  0.6899906659D-01
      0.1881288540D+01 -0.1608541517D+00  0.3164239610D+00
      0.5442492580D+00  0.1143456438D+01  0.7443082909D+00
 SP   1 1.00       0.000000000000
      0.1687144782D+00  0.1000000000D+01  0.1000000000D+01
 D   1 1.00       0.000000000000
      0.8000000000D+00  0.1000000000D+01
 ****
     44 0
 S   3 1.00       0.000000000000
      0.1873113696D+02  0.3349460434D-01
      0.2825394365D+01  0.2347269535D+00
      0.6401216923D+00  0.8137573261D+00
 S   1 1.00       0.000000000000
      0.1612777588D+00  0.1000000000D+01
 ****
     45 0
 S   6 1.00       0.000000000000
      0.3047524880D+04  0.1834737132D-02
      0.4573695180D+03  0.1403732281D-01
      0.1039486850D+03  0.6884262226D-01
      0.2921015530D+02  0.2321844432D+00
      0.9286662960D+01  0.4679413484D+00
      0.3163926960D+01  0.3623119853D+00
 SP   3 1.00       0.000000000000
      0.7868272350D+01 -0.1193324198D+00  0.6899906659D-01
      0.1881288540D+01 -0.1608541517D+00  0.3164239610D+00
      0.5442492580D+00  0.1143456438D+01  0.7443082909D+00
 SP   1 1.00       0.000000000000
      0.1687144782D+00  0.1000000000D+01  0.1000000000D+01
 D   1 1.00       0.000000000000
      0.8000000000D+00  0.1000000000D+01
 ****
     46 0
 S   3 1.00       0.000000000000
      0.1873113696D+02  0.3349460434D-01
      0.2825394365D+01  0.2347269535D+00
      0.6401216923D+00  0.8137573261D+00
 S   1 1.00       0.000000000000
      0.1612777588D+00  0.1000000000D+01
 ****
     47 0
 S   3 1.00       0.000000000000
      0.1873113696D+02  0.3349460434D-01
      0.2825394365D+01  0.2347269535D+00
      0.6401216923D+00  0.8137573261D+00
 S   1 1.00       0.000000000000
      0.1612777588D+00  0.1000000000D+01
 ****
     48 0
 S   3 1.00       0.000000000000
      0.1873113696D+02  0.3349460434D-01
      0.2825394365D+01  0.2347269535D+00
      0.6401216923D+00  0.8137573261D+00
 S   1 1.00       0.000000000000
      0.1612777588D+00  0.1000000000D+01
 ****
     49 0
 S   6 1.00       0.000000000000
      0.3047524880D+04  0.1834737132D-02
      0.4573695180D+03  0.1403732281D-01
      0.1039486850D+03  0.6884262226D-01
      0.2921015530D+02  0.2321844432D+00
      0.9286662960D+01  0.4679413484D+00
      0.3163926960D+01  0.3623119853D+00
 SP   3 1.00       0.000000000000
      0.7868272350D+01 -0.1193324198D+00  0.6899906659D-01
      0.1881288540D+01 -0.1608541517D+00  0.3164239610D+00
      0.5442492580D+00  0.1143456438D+01  0.7443082909D+00
 SP   1 1.00       0.000000000000
      0.1687144782D+00  0.1000000000D+01  0.1000000000D+01
 D   1 1.00       0.000000000000
      0.8000000000D+00  0.1000000000D+01
 ****
     50 0
 S   3 1.00       0.000000000000
      0.1873113696D+02  0.3349460434D-01
      0.2825394365D+01  0.2347269535D+00
      0.6401216923D+00  0.8137573261D+00
 S   1 1.00       0.000000000000
      0.1612777588D+00  0.1000000000D+01
 ****
     51 0
 S   3 1.00       0.000000000000
      0.1873113696D+02  0.3349460434D-01
      0.2825394365D+01  0.2347269535D+00
      0.6401216923D+00  0.8137573261D+00
 S   1 1.00       0.000000000000
      0.1612777588D+00  0.1000000000D+01
 ****
     52 0
 S   3 1.00       0.000000000000
      0.1873113696D+02  0.3349460434D-01
      0.2825394365D+01  0.2347269535D+00
      0.6401216923D+00  0.8137573261D+00
 S   1 1.00       0.000000000000
      0.1612777588D+00  0.1000000000D+01
 ****
     53 0
 S   6 1.00       0.000000000000
      0.5484671660D+04  0.1831074430D-02
      0.8252349460D+03  0.1395017220D-01
      0.1880469580D+03  0.6844507810D-01
      0.5296450000D+02  0.2327143360D+00
      0.1689757040D+02  0.4701928980D+00
      0.5799635340D+01  0.3585208530D+00
 SP   3 1.00       0.000000000000
      0.1553961625D+02 -0.1107775495D+00  0.7087426823D-01
      0.3599933586D+01 -0.1480262627D+00  0.3397528391D+00
      0.1013761750D+01  0.1130767015D+01  0.7271585773D+00
 SP   1 1.00       0.000000000000
      0.2700058226D+00  0.1000000000D+01  0.1000000000D+01
 D   1 1.00       0.000000000000
      0.8000000000D+00  0.1000000000D+01
 ****
     54 0
 S   6 1.00       0.000000000000
      0.5484671660D+04  0.1831074430D-02
      0.8252349460D+03  0.1395017220D-01
      0.1880469580D+03  0.6844507810D-01
      0.5296450000D+02  0.2327143360D+00
      0.1689757040D+02  0.4701928980D+00
      0.5799635340D+01  0.3585208530D+00
 SP   3 1.00       0.000000000000
      0.1553961625D+02 -0.1107775495D+00  0.7087426823D-01
      0.3599933586D+01 -0.1480262627D+00  0.3397528391D+00
      0.1013761750D+01  0.1130767015D+01  0.7271585773D+00
 SP   1 1.00       0.000000000000
      0.2700058226D+00  0.1000000000D+01  0.1000000000D+01
 D   1 1.00       0.000000000000
      0.8000000000D+00  0.1000000000D+01
 ****
     55 0
 S   3 1.00       0.000000000000
      0.1873113696D+02  0.3349460434D-01
      0.2825394365D+01  0.2347269535D+00
      0.6401216923D+00  0.8137573261D+00
 S   1 1.00       0.000000000000
      0.1612777588D+00  0.1000000000D+01
 ****
     56 0
 S   6 1.00       0.000000000000
      0.5484671660D+04  0.1831074430D-02
      0.8252349460D+03  0.1395017220D-01
      0.1880469580D+03  0.6844507810D-01
      0.5296450000D+02  0.2327143360D+00
      0.1689757040D+02  0.4701928980D+00
      0.5799635340D+01  0.3585208530D+00
 SP   3 1.00       0.000000000000
      0.1553961625D+02 -0.1107775495D+00  0.7087426823D-01
      0.3599933586D+01 -0.1480262627D+00  0.3397528391D+00
      0.1013761750D+01  0.1130767015D+01  0.7271585773D+00
 SP   1 1.00       0.000000000000
      0.2700058226D+00  0.1000000000D+01  0.1000000000D+01
 D   1 1.00       0.000000000000
      0.8000000000D+00  0.1000000000D+01
 ****
     57 0
 S   3 1.00       0.000000000000
      0.1873113696D+02  0.3349460434D-01
      0.2825394365D+01  0.2347269535D+00
      0.6401216923D+00  0.8137573261D+00
 S   1 1.00       0.000000000000
      0.1612777588D+00  0.1000000000D+01
 ****
     58 0
 S   6 1.00       0.000000000000
      0.3047524880D+04  0.1834737132D-02
      0.4573695180D+03  0.1403732281D-01
      0.1039486850D+03  0.6884262226D-01
      0.2921015530D+02  0.2321844432D+00
      0.9286662960D+01  0.4679413484D+00
      0.3163926960D+01  0.3623119853D+00
 SP   3 1.00       0.000000000000
      0.7868272350D+01 -0.1193324198D+00  0.6899906659D-01
      0.1881288540D+01 -0.1608541517D+00  0.3164239610D+00
      0.5442492580D+00  0.1143456438D+01  0.7443082909D+00
 SP   1 1.00       0.000000000000
      0.1687144782D+00  0.1000000000D+01  0.1000000000D+01
 D   1 1.00       0.000000000000
      0.8000000000D+00  0.1000000000D+01
 ****
     59 0
 S   3 1.00       0.000000000000
      0.1873113696D+02  0.3349460434D-01
      0.2825394365D+01  0.2347269535D+00
      0.6401216923D+00  0.8137573261D+00
 S   1 1.00       0.000000000000
      0.1612777588D+00  0.1000000000D+01
 ****
     60 0
 S   3 1.00       0.000000000000
      0.1873113696D+02  0.3349460434D-01
      0.2825394365D+01  0.2347269535D+00
      0.6401216923D+00  0.8137573261D+00
 S   1 1.00       0.000000000000
      0.1612777588D+00  0.1000000000D+01
 ****
     61 0
 S   6 1.00       0.000000000000
      0.3047524880D+04  0.1834737132D-02
      0.4573695180D+03  0.1403732281D-01
      0.1039486850D+03  0.6884262226D-01
      0.2921015530D+02  0.2321844432D+00
      0.9286662960D+01  0.4679413484D+00
      0.3163926960D+01  0.3623119853D+00
 SP   3 1.00       0.000000000000
      0.7868272350D+01 -0.1193324198D+00  0.6899906659D-01
      0.1881288540D+01 -0.1608541517D+00  0.3164239610D+00
      0.5442492580D+00  0.1143456438D+01  0.7443082909D+00
 SP   1 1.00       0.000000000000
      0.1687144782D+00  0.1000000000D+01  0.1000000000D+01
 D   1 1.00       0.000000000000
      0.8000000000D+00  0.1000000000D+01
 ****
     62 0
 S   3 1.00       0.000000000000
      0.1873113696D+02  0.3349460434D-01
      0.2825394365D+01  0.2347269535D+00
      0.6401216923D+00  0.8137573261D+00
 S   1 1.00       0.000000000000
      0.1612777588D+00  0.1000000000D+01
 ****
     63 0
 S   3 1.00       0.000000000000
      0.1873113696D+02  0.3349460434D-01
      0.2825394365D+01  0.2347269535D+00
      0.6401216923D+00  0.8137573261D+00
 S   1 1.00       0.000000000000
      0.1612777588D+00  0.1000000000D+01
 ****
     64 0
 S   6 1.00       0.000000000000
      0.3047524880D+04  0.1834737132D-02
      0.4573695180D+03  0.1403732281D-01
      0.1039486850D+03  0.6884262226D-01
      0.2921015530D+02  0.2321844432D+00
      0.9286662960D+01  0.4679413484D+00
      0.3163926960D+01  0.3623119853D+00
 SP   3 1.00       0.000000000000
      0.7868272350D+01 -0.1193324198D+00  0.6899906659D-01
      0.1881288540D+01 -0.1608541517D+00  0.3164239610D+00
      0.5442492580D+00  0.1143456438D+01  0.7443082909D+00
 SP   1 1.00       0.000000000000
      0.1687144782D+00  0.1000000000D+01  0.1000000000D+01
 D   1 1.00       0.000000000000
      0.8000000000D+00  0.1000000000D+01
 ****
     65 0
 S   3 1.00       0.000000000000
      0.1873113696D+02  0.3349460434D-01
      0.2825394365D+01  0.2347269535D+00
      0.6401216923D+00  0.8137573261D+00
 S   1 1.00       0.000000000000
      0.1612777588D+00  0.1000000000D+01
 ****
     66 0
 S   3 1.00       0.000000000000
      0.1873113696D+02  0.3349460434D-01
      0.2825394365D+01  0.2347269535D+00
      0.6401216923D+00  0.8137573261D+00
 S   1 1.00       0.000000000000
      0.1612777588D+00  0.1000000000D+01
 ****
     67 0
 S   6 1.00       0.000000000000
      0.3047524880D+04  0.1834737132D-02
      0.4573695180D+03  0.1403732281D-01
      0.1039486850D+03  0.6884262226D-01
      0.2921015530D+02  0.2321844432D+00
      0.9286662960D+01  0.4679413484D+00
      0.3163926960D+01  0.3623119853D+00
 SP   3 1.00       0.000000000000
      0.7868272350D+01 -0.1193324198D+00  0.6899906659D-01
      0.1881288540D+01 -0.1608541517D+00  0.3164239610D+00
      0.5442492580D+00  0.1143456438D+01  0.7443082909D+00
 SP   1 1.00       0.000000000000
      0.1687144782D+00  0.1000000000D+01  0.1000000000D+01
 D   1 1.00       0.000000000000
      0.8000000000D+00  0.1000000000D+01
 ****
     68 0
 S   3 1.00       0.000000000000
      0.1873113696D+02  0.3349460434D-01
      0.2825394365D+01  0.2347269535D+00
      0.6401216923D+00  0.8137573261D+00
 S   1 1.00       0.000000000000
      0.1612777588D+00  0.1000000000D+01
 ****
     69 0
 S   6 1.00       0.000000000000
      0.3047524880D+04  0.1834737132D-02
      0.4573695180D+03  0.1403732281D-01
      0.1039486850D+03  0.6884262226D-01
      0.2921015530D+02  0.2321844432D+00
      0.9286662960D+01  0.4679413484D+00
      0.3163926960D+01  0.3623119853D+00
 SP   3 1.00       0.000000000000
      0.7868272350D+01 -0.1193324198D+00  0.6899906659D-01
      0.1881288540D+01 -0.1608541517D+00  0.3164239610D+00
      0.5442492580D+00  0.1143456438D+01  0.7443082909D+00
 SP   1 1.00       0.000000000000
      0.1687144782D+00  0.1000000000D+01  0.1000000000D+01
 D   1 1.00       0.000000000000
      0.8000000000D+00  0.1000000000D+01
 ****
     70 0
 S   3 1.00       0.000000000000
      0.1873113696D+02  0.3349460434D-01
      0.2825394365D+01  0.2347269535D+00
      0.6401216923D+00  0.8137573261D+00
 S   1 1.00       0.000000000000
      0.1612777588D+00  0.1000000000D+01
 ****
     71 0
 S   3 1.00       0.000000000000
      0.1873113696D+02  0.3349460434D-01
      0.2825394365D+01  0.2347269535D+00
      0.6401216923D+00  0.8137573261D+00
 S   1 1.00       0.000000000000
      0.1612777588D+00  0.1000000000D+01
 ****
     72 0
 S   3 1.00       0.000000000000
      0.1873113696D+02  0.3349460434D-01
      0.2825394365D+01  0.2347269535D+00
      0.6401216923D+00  0.8137573261D+00
 S   1 1.00       0.000000000000
      0.1612777588D+00  0.1000000000D+01
 ****
     73 0
 S   6 1.00       0.000000000000
      0.3047524880D+04  0.1834737132D-02
      0.4573695180D+03  0.1403732281D-01
      0.1039486850D+03  0.6884262226D-01
      0.2921015530D+02  0.2321844432D+00
      0.9286662960D+01  0.4679413484D+00
      0.3163926960D+01  0.3623119853D+00
 SP   3 1.00       0.000000000000
      0.7868272350D+01 -0.1193324198D+00  0.6899906659D-01
      0.1881288540D+01 -0.1608541517D+00  0.3164239610D+00
      0.5442492580D+00  0.1143456438D+01  0.7443082909D+00
 SP   1 1.00       0.000000000000
      0.1687144782D+00  0.1000000000D+01  0.1000000000D+01
 D   1 1.00       0.000000000000
      0.8000000000D+00  0.1000000000D+01
 ****
     74 0
 S   3 1.00       0.000000000000
      0.1873113696D+02  0.3349460434D-01
      0.2825394365D+01  0.2347269535D+00
      0.6401216923D+00  0.8137573261D+00
 S   1 1.00       0.000000000000
      0.1612777588D+00  0.1000000000D+01
 ****
     75 0
 S   3 1.00       0.000000000000
      0.1873113696D+02  0.3349460434D-01
      0.2825394365D+01  0.2347269535D+00
      0.6401216923D+00  0.8137573261D+00
 S   1 1.00       0.000000000000
      0.1612777588D+00  0.1000000000D+01
 ****
     76 0
 S   3 1.00       0.000000000000
      0.1873113696D+02  0.3349460434D-01
      0.2825394365D+01  0.2347269535D+00
      0.6401216923D+00  0.8137573261D+00
 S   1 1.00       0.000000000000
      0.1612777588D+00  0.1000000000D+01
 ****

 AO basis set (Overlap normalization):
 Atom C1       Shell     1 S   6     bf    1 -     1          3.318302681022         -2.351987726978          0.269764244723
      0.3047524880D+04  0.1834737132D-02
      0.4573695180D+03  0.1403732281D-01
      0.1039486850D+03  0.6884262226D-01
      0.2921015530D+02  0.2321844432D+00
      0.9286662960D+01  0.4679413484D+00
      0.3163926960D+01  0.3623119853D+00
 Atom C1       Shell     2 SP   3    bf    2 -     5          3.318302681022         -2.351987726978          0.269764244723
      0.7868272350D+01 -0.1193324198D+00  0.6899906659D-01
      0.1881288540D+01 -0.1608541517D+00  0.3164239610D+00
      0.5442492580D+00  0.1143456438D+01  0.7443082909D+00
 Atom C1       Shell     3 SP   1    bf    6 -     9          3.318302681022         -2.351987726978          0.269764244723
      0.1687144782D+00  0.1000000000D+01  0.1000000000D+01
 Atom C1       Shell     4 D   1     bf   10 -    15          3.318302681022         -2.351987726978          0.269764244723
      0.8000000000D+00  0.1000000000D+01
 Atom H2       Shell     5 S   3     bf   16 -    16          3.561956541973         -2.412259993966         -1.787285080777
      0.1873113696D+02  0.3349460434D-01
      0.2825394365D+01  0.2347269535D+00
      0.6401216923D+00  0.8137573261D+00
 Atom H2       Shell     6 S   1     bf   17 -    17          3.561956541973         -2.412259993966         -1.787285080777
      0.1612777588D+00  0.1000000000D+01
 Atom C3       Shell     7 S   6     bf   18 -    18          5.938991549492         -2.296214727837          1.522763635545
      0.3047524880D+04  0.1834737132D-02
      0.4573695180D+03  0.1403732281D-01
      0.1039486850D+03  0.6884262226D-01
      0.2921015530D+02  0.2321844432D+00
      0.9286662960D+01  0.4679413484D+00
      0.3163926960D+01  0.3623119853D+00
 Atom C3       Shell     8 SP   3    bf   19 -    22          5.938991549492         -2.296214727837          1.522763635545
      0.7868272350D+01 -0.1193324198D+00  0.6899906659D-01
      0.1881288540D+01 -0.1608541517D+00  0.3164239610D+00
      0.5442492580D+00  0.1143456438D+01  0.7443082909D+00
 Atom C3       Shell     9 SP   1    bf   23 -    26          5.938991549492         -2.296214727837          1.522763635545
      0.1687144782D+00  0.1000000000D+01  0.1000000000D+01
 Atom C3       Shell    10 D   1     bf   27 -    32          5.938991549492         -2.296214727837          1.522763635545
      0.8000000000D+00  0.1000000000D+01
 Atom H4       Shell    11 S   3     bf   33 -    33          7.034981740652         -3.941842158240          0.916413428485
      0.1873113696D+02  0.3349460434D-01
      0.2825394365D+01  0.2347269535D+00
      0.6401216923D+00  0.8137573261D+00
 Atom H4       Shell    12 S   1     bf   34 -    34          7.034981740652         -3.941842158240          0.916413428485
      0.1612777588D+00  0.1000000000D+01
 Atom H5       Shell    13 S   3     bf   35 -    35          5.663170543541         -2.484661411445          3.576944904796
      0.1873113696D+02  0.3349460434D-01
      0.2825394365D+01  0.2347269535D+00
      0.6401216923D+00  0.8137573261D+00
 Atom H5       Shell    14 S   1     bf   36 -    36          5.663170543541         -2.484661411445          3.576944904796
      0.1612777588D+00  0.1000000000D+01
 Atom C6       Shell    15 S   6     bf   37 -    37          7.368200872425          0.118936622701          0.942224914275
      0.3047524880D+04  0.1834737132D-02
      0.4573695180D+03  0.1403732281D-01
      0.1039486850D+03  0.6884262226D-01
      0.2921015530D+02  0.2321844432D+00
      0.9286662960D+01  0.4679413484D+00
      0.3163926960D+01  0.3623119853D+00
 Atom C6       Shell    16 SP   3    bf   38 -    41          7.368200872425          0.118936622701          0.942224914275
      0.7868272350D+01 -0.1193324198D+00  0.6899906659D-01
      0.1881288540D+01 -0.1608541517D+00  0.3164239610D+00
      0.5442492580D+00  0.1143456438D+01  0.7443082909D+00
 Atom C6       Shell    17 SP   1    bf   42 -    45          7.368200872425          0.118936622701          0.942224914275
      0.1687144782D+00  0.1000000000D+01  0.1000000000D+01
 Atom C6       Shell    18 D   1     bf   46 -    51          7.368200872425          0.118936622701          0.942224914275
      0.8000000000D+00  0.1000000000D+01
 Atom C7       Shell    19 S   6     bf   52 -    52          5.992735908732          2.613380409343          1.467972405822
      0.3047524880D+04  0.1834737132D-02
      0.4573695180D+03  0.1403732281D-01
      0.1039486850D+03  0.6884262226D-01
      0.2921015530D+02  0.2321844432D+00
      0.9286662960D+01  0.4679413484D+00
      0.3163926960D+01  0.3623119853D+00
 Atom C7       Shell    20 SP   3    bf   53 -    56          5.992735908732          2.613380409343          1.467972405822
      0.7868272350D+01 -0.1193324198D+00  0.6899906659D-01
      0.1881288540D+01 -0.1608541517D+00  0.3164239610D+00
      0.5442492580D+00  0.1143456438D+01  0.7443082909D+00
 Atom C7       Shell    21 SP   1    bf   57 -    60          5.992735908732          2.613380409343          1.467972405822
      0.1687144782D+00  0.1000000000D+01  0.1000000000D+01
 Atom C7       Shell    22 D   1     bf   61 -    66          5.992735908732          2.613380409343          1.467972405822
      0.8000000000D+00  0.1000000000D+01
 Atom C8       Shell    23 S   6     bf   67 -    67          3.293730402041          2.428130499845          0.295115676686
      0.3047524880D+04  0.1834737132D-02
      0.4573695180D+03  0.1403732281D-01
      0.1039486850D+03  0.6884262226D-01
      0.2921015530D+02  0.2321844432D+00
      0.9286662960D+01  0.4679413484D+00
      0.3163926960D+01  0.3623119853D+00
 Atom C8       Shell    24 SP   3    bf   68 -    71          3.293730402041          2.428130499845          0.295115676686
      0.7868272350D+01 -0.1193324198D+00  0.6899906659D-01
      0.1881288540D+01 -0.1608541517D+00  0.3164239610D+00
      0.5442492580D+00  0.1143456438D+01  0.7443082909D+00
 Atom C8       Shell    25 SP   1    bf   72 -    75          3.293730402041          2.428130499845          0.295115676686
      0.1687144782D+00  0.1000000000D+01  0.1000000000D+01
 Atom C8       Shell    26 D   1     bf   76 -    81          3.293730402041          2.428130499845          0.295115676686
      0.8000000000D+00  0.1000000000D+01
 Atom H9       Shell    27 S   3     bf   82 -    82          3.479554221366          2.520347132020         -1.770038892067
      0.1873113696D+02  0.3349460434D-01
      0.2825394365D+01  0.2347269535D+00
      0.6401216923D+00  0.8137573261D+00
 Atom H9       Shell    28 S   1     bf   83 -    83          3.479554221366          2.520347132020         -1.770038892067
      0.1612777588D+00  0.1000000000D+01
 Atom H10      Shell    29 S   3     bf   84 -    84          2.187391919399          4.083262610190          0.861138088721
      0.1873113696D+02  0.3349460434D-01
      0.2825394365D+01  0.2347269535D+00
      0.6401216923D+00  0.8137573261D+00
 Atom H10      Shell    30 S   1     bf   85 -    85          2.187391919399          4.083262610190          0.861138088721
      0.1612777588D+00  0.1000000000D+01
 Atom C11      Shell    31 S   6     bf   86 -    86          1.825394658575          0.017490870449          0.977962129886
      0.3047524880D+04  0.1834737132D-02
      0.4573695180D+03  0.1403732281D-01
      0.1039486850D+03  0.6884262226D-01
      0.2921015530D+02  0.2321844432D+00
      0.9286662960D+01  0.4679413484D+00
      0.3163926960D+01  0.3623119853D+00
 Atom C11      Shell    32 SP   3    bf   87 -    90          1.825394658575          0.017490870449          0.977962129886
      0.7868272350D+01 -0.1193324198D+00  0.6899906659D-01
      0.1881288540D+01 -0.1608541517D+00  0.3164239610D+00
      0.5442492580D+00  0.1143456438D+01  0.7443082909D+00
 Atom C11      Shell    33 SP   1    bf   91 -    94          1.825394658575          0.017490870449          0.977962129886
      0.1687144782D+00  0.1000000000D+01  0.1000000000D+01
 Atom C11      Shell    34 D   1     bf   95 -   100          1.825394658575          0.017490870449          0.977962129886
      0.8000000000D+00  0.1000000000D+01
 Atom H12      Shell    35 S   3     bf  101 -   101          1.408767815202         -0.027938863882          3.014350361480
      0.1873113696D+02  0.3349460434D-01
      0.2825394365D+01  0.2347269535D+00
      0.6401216923D+00  0.8137573261D+00
 Atom H12      Shell    36 S   1     bf  102 -   102          1.408767815202         -0.027938863882          3.014350361480
      0.1612777588D+00  0.1000000000D+01
 Atom H13      Shell    37 S   3     bf  103 -   103          0.000000000000          0.000000000000          0.000000000000
      0.1873113696D+02  0.3349460434D-01
      0.2825394365D+01  0.2347269535D+00
      0.6401216923D+00  0.8137573261D+00
 Atom H13      Shell    38 S   1     bf  104 -   104          0.000000000000          0.000000000000          0.000000000000
      0.1612777588D+00  0.1000000000D+01
 Atom C14      Shell    39 S   6     bf  105 -   105          9.719077761690          0.000000000000          0.000000000000
      0.3047524880D+04  0.1834737132D-02
      0.4573695180D+03  0.1403732281D-01
      0.1039486850D+03  0.6884262226D-01
      0.2921015530D+02  0.2321844432D+00
      0.9286662960D+01  0.4679413484D+00
      0.3163926960D+01  0.3623119853D+00
 Atom C14      Shell    40 SP   3    bf  106 -   109          9.719077761690          0.000000000000          0.000000000000
      0.7868272350D+01 -0.1193324198D+00  0.6899906659D-01
      0.1881288540D+01 -0.1608541517D+00  0.3164239610D+00
      0.5442492580D+00  0.1143456438D+01  0.7443082909D+00
 Atom C14      Shell    41 SP   1    bf  110 -   113          9.719077761690          0.000000000000          0.000000000000
      0.1687144782D+00  0.1000000000D+01  0.1000000000D+01
 Atom C14      Shell    42 D   1     bf  114 -   119          9.719077761690          0.000000000000          0.000000000000
      0.8000000000D+00  0.1000000000D+01
 Atom H15      Shell    43 S   3     bf  120 -   120         10.559998237433         -1.835032148470         -0.396157537772
      0.1873113696D+02  0.3349460434D-01
      0.2825394365D+01  0.2347269535D+00
      0.6401216923D+00  0.8137573261D+00
 Atom H15      Shell    44 S   1     bf  121 -   121         10.559998237433         -1.835032148470         -0.396157537772
      0.1612777588D+00  0.1000000000D+01
 Atom C16      Shell    45 S   6     bf  122 -   122         11.286707407362          2.260464737677         -0.684150874458
      0.3047524880D+04  0.1834737132D-02
      0.4573695180D+03  0.1403732281D-01
      0.1039486850D+03  0.6884262226D-01
      0.2921015530D+02  0.2321844432D+00
      0.9286662960D+01  0.4679413484D+00
      0.3163926960D+01  0.3623119853D+00
 Atom C16      Shell    46 SP   3    bf  123 -   126         11.286707407362          2.260464737677         -0.684150874458
      0.7868272350D+01 -0.1193324198D+00  0.6899906659D-01
      0.1881288540D+01 -0.1608541517D+00  0.3164239610D+00
      0.5442492580D+00  0.1143456438D+01  0.7443082909D+00
 Atom C16      Shell    47 SP   1    bf  127 -   130         11.286707407362          2.260464737677         -0.684150874458
      0.1687144782D+00  0.1000000000D+01  0.1000000000D+01
 Atom C16      Shell    48 D   1     bf  131 -   136         11.286707407362          2.260464737677         -0.684150874458
      0.8000000000D+00  0.1000000000D+01
 Atom H17      Shell    49 S   3     bf  137 -   137         13.280184758382          1.927074547895         -0.235913297046
      0.1873113696D+02  0.3349460434D-01
      0.2825394365D+01  0.2347269535D+00
      0.6401216923D+00  0.8137573261D+00
 Atom H17      Shell    50 S   1     bf  138 -   138         13.280184758382          1.927074547895         -0.235913297046
      0.1612777588D+00  0.1000000000D+01
 Atom C18      Shell    51 S   6     bf  139 -   139         10.332410695783          4.696564193727          0.593436196613
      0.3047524880D+04  0.1834737132D-02
      0.4573695180D+03  0.1403732281D-01
      0.1039486850D+03  0.6884262226D-01
      0.2921015530D+02  0.2321844432D+00
      0.9286662960D+01  0.4679413484D+00
      0.3163926960D+01  0.3623119853D+00
 Atom C18      Shell    52 SP   3    bf  140 -   143         10.332410695783          4.696564193727          0.593436196613
      0.7868272350D+01 -0.1193324198D+00  0.6899906659D-01
      0.1881288540D+01 -0.1608541517D+00  0.3164239610D+00
      0.5442492580D+00  0.1143456438D+01  0.7443082909D+00
 Atom C18      Shell    53 SP   1    bf  144 -   147         10.332410695783          4.696564193727          0.593436196613
      0.1687144782D+00  0.1000000000D+01  0.1000000000D+01
 Atom C18      Shell    54 D   1     bf  148 -   153         10.332410695783          4.696564193727          0.593436196613
      0.8000000000D+00  0.1000000000D+01
 Atom H19      Shell    55 S   3     bf  154 -   154         10.756137637080          4.461970794796          2.614934898060
      0.1873113696D+02  0.3349460434D-01
      0.2825394365D+01  0.2347269535D+00
      0.6401216923D+00  0.8137573261D+00
 Atom H19      Shell    56 S   1     bf  155 -   155         10.756137637080          4.461970794796          2.614934898060
      0.1612777588D+00  0.1000000000D+01
 Atom C20      Shell    57 S   6     bf  156 -   156          7.428217232699          4.880694440491          0.203533671238
      0.3047524880D+04  0.1834737132D-02
      0.4573695180D+03  0.1403732281D-01
      0.1039486850D+03  0.6884262226D-01
      0.2921015530D+02  0.2321844432D+00
      0.9286662960D+01  0.4679413484D+00
      0.3163926960D+01  0.3623119853D+00
 Atom C20      Shell    58 SP   3    bf  157 -   160          7.428217232699          4.880694440491          0.203533671238
      0.7868272350D+01 -0.1193324198D+00  0.6899906659D-01
      0.1881288540D+01 -0.1608541517D+00  0.3164239610D+00
      0.5442492580D+00  0.1143456438D+01  0.7443082909D+00
 Atom C20      Shell    59 SP   1    bf  161 -   164          7.428217232699          4.880694440491          0.203533671238
      0.1687144782D+00  0.1000000000D+01  0.1000000000D+01
 Atom C20      Shell    60 D   1     bf  165 -   170          7.428217232699          4.880694440491          0.203533671238
      0.8000000000D+00  0.1000000000D+01
 Atom H21      Shell    61 S   3     bf  171 -   171          7.143853304024          4.669555849890         -1.844643465657
      0.1873113696D+02  0.3349460434D-01
      0.2825394365D+01  0.2347269535D+00
      0.6401216923D+00  0.8137573261D+00
 Atom H21      Shell    62 S   1     bf  172 -   172          7.143853304024          4.669555849890         -1.844643465657
      0.1612777588D+00  0.1000000000D+01
 Atom C22      Shell    63 S   6     bf  173 -   173          6.328913406766          7.488512856702          0.933315857113
      0.3047524880D+04  0.1834737132D-02
      0.4573695180D+03  0.1403732281D-01
      0.1039486850D+03  0.6884262226D-01
      0.2921015530D+02  0.2321844432D+00
      0.9286662960D+01  0.4679413484D+00
      0.3163926960D+01  0.3623119853D+00
 Atom C22      Shell    64 SP   3    bf  174 -   177          6.328913406766          7.488512856702          0.933315857113
      0.7868272350D+01 -0.1193324198D+00  0.6899906659D-01
      0.1881288540D+01 -0.1608541517D+00  0.3164239610D+00
      0.5442492580D+00  0.1143456438D+01  0.7443082909D+00
 Atom C22      Shell    65 SP   1    bf  178 -   181          6.328913406766          7.488512856702          0.933315857113
      0.1687144782D+00  0.1000000000D+01  0.1000000000D+01
 Atom C22      Shell    66 D   1     bf  182 -   187          6.328913406766          7.488512856702          0.933315857113
      0.8000000000D+00  0.1000000000D+01
 Atom H23      Shell    67 S   3     bf  188 -   188          6.208205430377          7.666951323944          2.990502660189
      0.1873113696D+02  0.3349460434D-01
      0.2825394365D+01  0.2347269535D+00
      0.6401216923D+00  0.8137573261D+00
 Atom H23      Shell    68 S   1     bf  189 -   189          6.208205430377          7.666951323944          2.990502660189
      0.1612777588D+00  0.1000000000D+01
 Atom H24      Shell    69 S   3     bf  190 -   190          4.382935796082          7.628050215457          0.237359315483
      0.1873113696D+02  0.3349460434D-01
      0.2825394365D+01  0.2347269535D+00
      0.6401216923D+00  0.8137573261D+00
 Atom H24      Shell    70 S   1     bf  191 -   191          4.382935796082          7.628050215457          0.237359315483
      0.1612777588D+00  0.1000000000D+01
 Atom C25      Shell    71 S   6     bf  192 -   192          7.843545248404          9.754995975270         -0.090761108416
      0.3047524880D+04  0.1834737132D-02
      0.4573695180D+03  0.1403732281D-01
      0.1039486850D+03  0.6884262226D-01
      0.2921015530D+02  0.2321844432D+00
      0.9286662960D+01  0.4679413484D+00
      0.3163926960D+01  0.3623119853D+00
 Atom C25      Shell    72 SP   3    bf  193 -   196          7.843545248404          9.754995975270         -0.090761108416
      0.7868272350D+01 -0.1193324198D+00  0.6899906659D-01
      0.1881288540D+01 -0.1608541517D+00  0.3164239610D+00
      0.5442492580D+00  0.1143456438D+01  0.7443082909D+00
 Atom C25      Shell    73 SP   1    bf  197 -   200          7.843545248404          9.754995975270         -0.090761108416
      0.1687144782D+00  0.1000000000D+01  0.1000000000D+01
 Atom C25      Shell    74 D   1     bf  201 -   206          7.843545248404          9.754995975270         -0.090761108416
      0.8000000000D+00  0.1000000000D+01
 Atom H26      Shell    75 S   3     bf  207 -   207          7.740012520406          9.787296345963         -2.165350890778
      0.1873113696D+02  0.3349460434D-01
      0.2825394365D+01  0.2347269535D+00
      0.6401216923D+00  0.8137573261D+00
 Atom H26      Shell    76 S   1     bf  208 -   208          7.740012520406          9.787296345963         -2.165350890778
      0.1612777588D+00  0.1000000000D+01
 Atom H27      Shell    77 S   3     bf  209 -   209          6.943787431418         11.495211001638          0.573361125677
      0.1873113696D+02  0.3349460434D-01
      0.2825394365D+01  0.2347269535D+00
      0.6401216923D+00  0.8137573261D+00
 Atom H27      Shell    78 S   1     bf  210 -   210          6.943787431418         11.495211001638          0.573361125677
      0.1612777588D+00  0.1000000000D+01
 Atom C28      Shell    79 S   6     bf  211 -   211         10.641034909655          9.610039259911          0.701803505464
      0.3047524880D+04  0.1834737132D-02
      0.4573695180D+03  0.1403732281D-01
      0.1039486850D+03  0.6884262226D-01
      0.2921015530D+02  0.2321844432D+00
      0.9286662960D+01  0.4679413484D+00
      0.3163926960D+01  0.3623119853D+00
 Atom C28      Shell    80 SP   3    bf  212 -   215         10.641034909655          9.610039259911          0.701803505464
      0.7868272350D+01 -0.1193324198D+00  0.6899906659D-01
      0.1881288540D+01 -0.1608541517D+00  0.3164239610D+00
      0.5442492580D+00  0.1143456438D+01  0.7443082909D+00
 Atom C28      Shell    81 SP   1    bf  216 -   219         10.641034909655          9.610039259911          0.701803505464
      0.1687144782D+00  0.1000000000D+01  0.1000000000D+01
 Atom C28      Shell    82 D   1     bf  220 -   225         10.641034909655          9.610039259911          0.701803505464
      0.8000000000D+00  0.1000000000D+01
 Atom C29      Shell    83 S   6     bf  226 -   226         11.685878774857          7.076556169110         -0.368447878773
      0.3047524880D+04  0.1834737132D-02
      0.4573695180D+03  0.1403732281D-01
      0.1039486850D+03  0.6884262226D-01
      0.2921015530D+02  0.2321844432D+00
      0.9286662960D+01  0.4679413484D+00
      0.3163926960D+01  0.3623119853D+00
 Atom C29      Shell    84 SP   3    bf  227 -   230         11.685878774857          7.076556169110         -0.368447878773
      0.7868272350D+01 -0.1193324198D+00  0.6899906659D-01
      0.1881288540D+01 -0.1608541517D+00  0.3164239610D+00
      0.5442492580D+00  0.1143456438D+01  0.7443082909D+00
 Atom C29      Shell    85 SP   1    bf  231 -   234         11.685878774857          7.076556169110         -0.368447878773
      0.1687144782D+00  0.1000000000D+01  0.1000000000D+01
 Atom C29      Shell    86 D   1     bf  235 -   240         11.685878774857          7.076556169110         -0.368447878773
      0.8000000000D+00  0.1000000000D+01
 Atom H30      Shell    87 S   3     bf  241 -   241         11.337842640628          7.158241338649         -2.414770910873
      0.1873113696D+02  0.3349460434D-01
      0.2825394365D+01  0.2347269535D+00
      0.6401216923D+00  0.8137573261D+00
 Atom H30      Shell    88 S   1     bf  242 -   242         11.337842640628          7.158241338649         -2.414770910873
      0.1612777588D+00  0.1000000000D+01
 Atom C31      Shell    89 S   6     bf  243 -   243         14.559261141515          7.291417898138          0.000000000000
      0.3047524880D+04  0.1834737132D-02
      0.4573695180D+03  0.1403732281D-01
      0.1039486850D+03  0.6884262226D-01
      0.2921015530D+02  0.2321844432D+00
      0.9286662960D+01  0.4679413484D+00
      0.3163926960D+01  0.3623119853D+00
 Atom C31      Shell    90 SP   3    bf  244 -   247         14.559261141515          7.291417898138          0.000000000000
      0.7868272350D+01 -0.1193324198D+00  0.6899906659D-01
      0.1881288540D+01 -0.1608541517D+00  0.3164239610D+00
      0.5442492580D+00  0.1143456438D+01  0.7443082909D+00
 Atom C31      Shell    91 SP   1    bf  248 -   251         14.559261141515          7.291417898138          0.000000000000
      0.1687144782D+00  0.1000000000D+01  0.1000000000D+01
 Atom C31      Shell    92 D   1     bf  252 -   257         14.559261141515          7.291417898138          0.000000000000
      0.8000000000D+00  0.1000000000D+01
 Atom H32      Shell    93 S   3     bf  258 -   258         15.601330945446          6.081089260390         -1.305160556405
      0.1873113696D+02  0.3349460434D-01
      0.2825394365D+01  0.2347269535D+00
      0.6401216923D+00  0.8137573261D+00
 Atom H32      Shell    94 S   1     bf  259 -   259         15.601330945446          6.081089260390         -1.305160556405
      0.1612777588D+00  0.1000000000D+01
 Atom H33      Shell    95 S   3     bf  260 -   260         15.094952031823          6.727875619372          1.923317167631
      0.1873113696D+02  0.3349460434D-01
      0.2825394365D+01  0.2347269535D+00
      0.6401216923D+00  0.8137573261D+00
 Atom H33      Shell    96 S   1     bf  261 -   261         15.094952031823          6.727875619372          1.923317167631
      0.1612777588D+00  0.1000000000D+01
 Atom C34      Shell    97 S   6     bf  262 -   262         15.103274177842         10.141790468074         -0.445867709663
      0.3047524880D+04  0.1834737132D-02
      0.4573695180D+03  0.1403732281D-01
      0.1039486850D+03  0.6884262226D-01
      0.2921015530D+02  0.2321844432D+00
      0.9286662960D+01  0.4679413484D+00
      0.3163926960D+01  0.3623119853D+00
 Atom C34      Shell    98 SP   3    bf  263 -   266         15.103274177842         10.141790468074         -0.445867709663
      0.7868272350D+01 -0.1193324198D+00  0.6899906659D-01
      0.1881288540D+01 -0.1608541517D+00  0.3164239610D+00
      0.5442492580D+00  0.1143456438D+01  0.7443082909D+00
 Atom C34      Shell    99 SP   1    bf  267 -   270         15.103274177842         10.141790468074         -0.445867709663
      0.1687144782D+00  0.1000000000D+01  0.1000000000D+01
 Atom C34      Shell   100 D   1     bf  271 -   276         15.103274177842         10.141790468074         -0.445867709663
      0.8000000000D+00  0.1000000000D+01
 Atom H35      Shell   101 S   3     bf  277 -   277         16.228884219868         10.929042778335          1.105727666464
      0.1873113696D+02  0.3349460434D-01
      0.2825394365D+01  0.2347269535D+00
      0.6401216923D+00  0.8137573261D+00
 Atom H35      Shell   102 S   1     bf  278 -   278         16.228884219868         10.929042778335          1.105727666464
      0.1612777588D+00  0.1000000000D+01
 Atom H36      Shell   103 S   3     bf  279 -   279         16.206142140646         10.435656714533         -2.170659433842
      0.1873113696D+02  0.3349460434D-01
      0.2825394365D+01  0.2347269535D+00
      0.6401216923D+00  0.8137573261D+00
 Atom H36      Shell   104 S   1     bf  280 -   280         16.206142140646         10.435656714533         -2.170659433842
      0.1612777588D+00  0.1000000000D+01
 Atom C37      Shell   105 S   6     bf  281 -   281         12.488800524137         11.511751831171         -0.618670182097
      0.3047524880D+04  0.1834737132D-02
      0.4573695180D+03  0.1403732281D-01
      0.1039486850D+03  0.6884262226D-01
      0.2921015530D+02  0.2321844432D+00
      0.9286662960D+01  0.4679413484D+00
      0.3163926960D+01  0.3623119853D+00
 Atom C37      Shell   106 SP   3    bf  282 -   285         12.488800524137         11.511751831171         -0.618670182097
      0.7868272350D+01 -0.1193324198D+00  0.6899906659D-01
      0.1881288540D+01 -0.1608541517D+00  0.3164239610D+00
      0.5442492580D+00  0.1143456438D+01  0.7443082909D+00
[...]
 1597 Fit      -0.003743
 1598 Fit      -0.004024
 1599 Fit      -0.004106
 1600 Fit      -0.002174
 1601 Fit      -0.003088
 1602 Fit      -0.003959
 1603 Fit      -0.004426
 1604 Fit      -0.004266
 1605 Fit      -0.004067
 1606 Fit      -0.004258
 1607 Fit      -0.004108
 1608 Fit      -0.003835
 1609 Fit      -0.003546
 1610 Fit      -0.002790
 1611 Fit      -0.002061
 1612 Fit      -0.001492
 1613 Fit      -0.000460
 1614 Fit      -0.001630
 1615 Fit      -0.000858
 1616 Fit       0.000086
 1617 Fit       0.000888
 1618 Fit       0.000809
 1619 Fit      -0.001270
 1620 Fit       0.000252
 1621 Fit      -0.001189
 1622 Fit      -0.000783
 1623 Fit       0.000418
 1624 Fit      -0.001444
 1625 Fit       0.001086
 1626 Fit       0.000835
 1627 Fit      -0.000838
 1628 Fit      -0.003258
 1629 Fit       0.001537
 1630 Fit      -0.000375
 1631 Fit      -0.002089
 1632 Fit       0.000032
 1633 Fit      -0.002892
 1634 Fit      -0.003752
 1635 Fit      -0.000653
 1636 Fit      -0.002073
 1637 Fit      -0.000005
 1638 Fit       0.001049
 1639 Fit      -0.001925
 1640 Fit       0.000039
 1641 Fit       0.001106
 1642 Fit       0.001321
 1643 Fit      -0.001873
 1644 Fit      -0.000576
 1645 Fit      -0.000286
 1646 Fit      -0.000889
 1647 Fit      -0.003592
 1648 Fit      -0.002897
 1649 Fit      -0.003588
 1650 Fit      -0.009219
 1651 Fit      -0.003002
 1652 Fit      -0.010242
 1653 Fit      -0.015451
 1654 Fit      -0.013897
 1655 Fit      -0.008240
 1656 Fit      -0.004955
 1657 Fit      -0.005131
 1658 Fit      -0.003842
 1659 Fit      -0.001238
 1660 Fit      -0.004020
 1661 Fit      -0.006772
 1662 Fit      -0.005200
 1663 Fit      -0.003444
 1664 Fit       0.001816
 1665 Fit       0.002742
 1666 Fit       0.002277
 1667 Fit       0.002950
 1668 Fit       0.001850
 1669 Fit       0.002079
 1670 Fit       0.003177
 1671 Fit      -0.008341
 1672 Fit      -0.000773
 1673 Fit       0.003104
 1674 Fit       0.005455
 1675 Fit      -0.012602
 1676 Fit      -0.002147
 1677 Fit       0.003179
 1678 Fit      -0.008756
 1679 Fit      -0.000482
 1680 Fit      -0.001868
 1681 Fit       0.012314
 1682 Fit       0.007832
 1683 Fit       0.017808
 1684 Fit       0.014553
 1685 Fit       0.009503
 1686 Fit       0.003586
 1687 Fit       0.011364
 1688 Fit       0.006686
 1689 Fit       0.004963
 1690 Fit       0.002304
 1691 Fit       0.002660
 1692 Fit      -0.000313
 1693 Fit       0.000610
 1694 Fit       0.001064
 1695 Fit       0.001198
 1696 Fit      -0.008756
 1697 Fit      -0.003909
 1698 Fit      -0.000701
 1699 Fit       0.000078
 1700 Fit      -0.000501
 1701 Fit      -0.004223
 1702 Fit      -0.002349
 1703 Fit       0.007228
 1704 Fit       0.006707
 1705 Fit       0.006273
 1706 Fit       0.005812
 1707 Fit       0.005140
 1708 Fit       0.005257
 1709 Fit       0.004592
 1710 Fit       0.004270
 1711 Fit       0.003374
 1712 Fit       0.002901
 1713 Fit       0.005304
 1714 Fit       0.004352
 1715 Fit       0.004524
 1716 Fit       0.004034
 1717 Fit      -0.003984
 1718 Fit       0.009642
 1719 Fit       0.011438
 1720 Fit       0.017160
 1721 Fit       0.007555
 1722 Fit       0.007670
 1723 Fit       0.009991
 1724 Fit       0.018264
 1725 Fit       0.004952
 1726 Fit       0.004679
 1727 Fit       0.006422
 1728 Fit       0.004203
 1729 Fit       0.002863
 1730 Fit       0.001105
 1731 Fit      -0.002563
 1732 Fit       0.003422
 1733 Fit       0.002408
 1734 Fit       0.000344
 1735 Fit      -0.004296
 1736 Fit       0.002334
 1737 Fit       0.001068
 1738 Fit      -0.002367
 1739 Fit      -0.009776
 1740 Fit       0.001381
 1741 Fit      -0.000717
 1742 Fit      -0.004924
 1743 Fit      -0.000070
 1744 Fit       0.000550
 1745 Fit      -0.001051
 1746 Fit       0.003330
 1747 Fit       0.000386
 1748 Fit       0.001099
 1749 Fit       0.004885
 1750 Fit      -0.008602
 1751 Fit       0.004826
 1752 Fit       0.004942
 1753 Fit       0.006411
 1754 Fit       0.006921
 1755 Fit       0.007676
 1756 Fit       0.006032
 1757 Fit       0.007529
 1758 Fit       0.009086
 1759 Fit       0.002022
 1760 Fit       0.005282
 1761 Fit       0.008347
 1762 Fit      -0.004797
 1763 Fit       0.001540
 1764 Fit       0.005816
 1765 Fit       0.005376
 1766 Fit       0.004701
 1767 Fit       0.006337
 1768 Fit       0.006538
 1769 Fit       0.003281
 1770 Fit       0.008125
 1771 Fit       0.006529
 1772 Fit       0.001437
 1773 Fit       0.009665
 1774 Fit       0.006870
 1775 Fit       0.005769
 1776 Fit       0.004007
 1777 Fit       0.005494
 1778 Fit      -0.002319
 1779 Fit      -0.015416
 1780 Fit      -0.007294
 1781 Fit      -0.006104
 1782 Fit      -0.013181
 1783 Fit      -0.016328
 1784 Fit       0.002864
 1785 Fit       0.005174
 1786 Fit      -0.001597
 1787 Fit       0.004544
 1788 Fit       0.003038
 1789 Fit       0.003931
 1790 Fit       0.006017
 1791 Fit       0.005101
 1792 Fit       0.002247
 1793 Fit       0.004054
 1794 Fit       0.001576
 1795 Fit       0.003354
 1796 Fit       0.000775
 1797 Fit       0.002369
 1798 Fit      -0.000654
 1799 Fit       0.000592
 1800 Fit      -0.001959
 1801 Fit      -0.000680
 1802 Fit      -0.001923
 1803 Fit      -0.001716
 1804 Fit      -0.001795
 1805 Fit      -0.005609
 1806 Fit      -0.002678
 1807 Fit      -0.002171
 1808 Fit      -0.002672
 1809 Fit      -0.005617
 1810 Fit      -0.009483
 1811 Fit      -0.004175
 1812 Fit       0.003364
 1813 Fit       0.002686
 1814 Fit       0.001371
 1815 Fit       0.001734
 1816 Fit      -0.000757
 1817 Fit       0.000186
 1818 Fit      -0.001966
 1819 Fit      -0.012265
 1820 Fit      -0.009667
 1821 Fit      -0.015801
 1822 Fit      -0.003472
 1823 Fit      -0.000823
 1824 Fit      -0.002627
 1825 Fit      -0.004138
 1826 Fit       0.000519
 1827 Fit      -0.001659
 1828 Fit      -0.003029
 1829 Fit      -0.000404
 1830 Fit      -0.001440
 1831 Fit      -0.003756
 1832 Fit       0.002504
 1833 Fit       0.004297
 1834 Fit       0.003284
 1835 Fit       0.000870
 1836 Fit       0.001392
 1837 Fit       0.005274
 1838 Fit       0.003298
 1839 Fit       0.001673
 1840 Fit      -0.001558
 1841 Fit       0.001465
 1842 Fit      -0.000570
 1843 Fit      -0.002854
 1844 Fit      -0.003735
 1845 Fit      -0.003474
 1846 Fit      -0.004082
 1847 Fit       0.002019
 1848 Fit       0.002053
 1849 Fit       0.000712
 1850 Fit       0.001132
 1851 Fit       0.000749
 1852 Fit       0.000108
 1853 Fit      -0.000866
 1854 Fit       0.000166
 1855 Fit      -0.002025
 1856 Fit      -0.003307
 1857 Fit      -0.003171
 1858 Fit      -0.010184
 1859 Fit      -0.005171
 1860 Fit      -0.003406
 1861 Fit      -0.006923
 1862 Fit      -0.007666
 1863 Fit      -0.000003
 1864 Fit      -0.000021
 1865 Fit      -0.000552
 1866 Fit      -0.000040
 1867 Fit       0.000782
 1868 Fit       0.000928
 1869 Fit      -0.000414
 1870 Fit       0.001763
 1871 Fit       0.003042
 1872 Fit       0.004683
 1873 Fit       0.003543
 1874 Fit       0.003450
 1875 Fit       0.006396
 1876 Fit       0.001369
 1877 Fit       0.000202
 1878 Fit       0.001216
 1879 Fit       0.002496
 1880 Fit       0.001844
 1881 Fit       0.000547
 1882 Fit       0.002495
 1883 Fit       0.002609
 1884 Fit       0.000174
 1885 Fit       0.001319
 1886 Fit       0.001164
 1887 Fit       0.000562
 1888 Fit       0.001667
 1889 Fit       0.002628
 1890 Fit       0.002592
 1891 Fit       0.003902
 1892 Fit       0.003117
 1893 Fit       0.000242
 1894 Fit       0.000978
 1895 Fit       0.000463
 1896 Fit       0.000278
 1897 Fit       0.001000
 1898 Fit      -0.000041
 1899 Fit      -0.000241
 1900 Fit      -0.000463
 1901 Fit      -0.000687
 1902 Fit      -0.000490
 1903 Fit      -0.001130
 1904 Fit      -0.001519
 1905 Fit      -0.002162
 1906 Fit      -0.000994
 1907 Fit      -0.002376
 1908 Fit      -0.002580
 1909 Fit      -0.002019
 1910 Fit      -0.002291
 1911 Fit      -0.002252
 1912 Fit      -0.001728
 1913 Fit      -0.001531
 1914 Fit      -0.000802
 1915 Fit      -0.000646
 1916 Fit      -0.001087
 1917 Fit      -0.000328
 1918 Fit      -0.001180
 1919 Fit      -0.000260
 1920 Fit      -0.000771
 1921 Fit       0.000853
 1922 Fit       0.000407
 1923 Fit      -0.000705
 1924 Fit       0.001200
 1925 Fit       0.000499
 1926 Fit      -0.000697
 1927 Fit       0.000643
 1928 Fit      -0.000074
 1929 Fit      -0.001281
 1930 Fit      -0.001099
 1931 Fit      -0.002159
 1932 Fit       0.000909
 1933 Fit       0.003165
 1934 Fit      -0.000137
 1935 Fit       0.001943
 1936 Fit       0.003841
 1937 Fit       0.000013
 1938 Fit       0.002184
 1939 Fit       0.004274
 1940 Fit       0.003890
 1941 Fit       0.004079
 1942 Fit       0.005121
 1943 Fit       0.005056
 1944 Fit       0.004335
 1945 Fit       0.009232
 1946 Fit       0.003841
 1947 Fit       0.005143
 1948 Fit       0.005423
 1949 Fit       0.005090
 1950 Fit       0.005737
 1951 Fit       0.006235
 1952 Fit       0.006449
 1953 Fit       0.006828
 1954 Fit       0.006582
 1955 Fit       0.007154
 1956 Fit       0.007350
 1957 Fit       0.006218
 1958 Fit       0.007832
 1959 Fit       0.009903
 1960 Fit       0.007750
 1961 Fit       0.011863
 1962 Fit       0.015406
 1963 Fit       0.014640
 1964 Fit       0.010128
 1965 Fit       0.004301
 1966 Fit       0.005242
 1967 Fit       0.004829
 1968 Fit       0.004692
 1969 Fit       0.006231
 1970 Fit       0.006252
 1971 Fit       0.004349
 1972 Fit       0.004962
 1973 Fit       0.001573
 1974 Fit       0.004674
 1975 Fit      -0.015027
 1976 Fit      -0.016326
 1977 Fit      -0.013912
 1978 Fit      -0.005849
 1979 Fit      -0.021803
 1980 Fit      -0.019392
 1981 Fit      -0.018067
 1982 Fit      -0.016404
 1983 Fit      -0.011648
 1984 Fit      -0.000197
 1985 Fit      -0.015477
 1986 Fit      -0.007380
 1987 Fit       0.009659
 1988 Fit       0.003251
 1989 Fit       0.001062
 1990 Fit       0.008627
 1991 Fit       0.006224
 1992 Fit      -0.002855
 1993 Fit      -0.009634
 1994 Fit      -0.014209
 1995 Fit      -0.001625
 1996 Fit      -0.009933
 1997 Fit      -0.015236
 1998 Fit      -0.017997
 1999 Fit      -0.019237
 2000 Fit      -0.004885
 2001 Fit      -0.010885
 2002 Fit      -0.007297
 2003 Fit       0.013058
 2004 Fit       0.015536
 2005 Fit       0.016454
 2006 Fit       0.013399
 2007 Fit       0.012149
 2008 Fit       0.011449
 2009 Fit       0.017693
 2010 Fit       0.019124
 2011 Fit       0.017081
 2012 Fit       0.014250
 2013 Fit       0.005887
 2014 Fit       0.014753
 2015 Fit       0.018855
 2016 Fit       0.018461
 2017 Fit       0.013369
 2018 Fit       0.004700
 2019 Fit       0.002250
 2020 Fit       0.011181
 2021 Fit       0.016109
 2022 Fit       0.009503
 2023 Fit       0.000351
 2024 Fit      -0.002083
 2025 Fit      -0.004008
 2026 Fit      -0.006059
 2027 Fit      -0.008138
 2028 Fit      -0.009095
 2029 Fit      -0.007274
 2030 Fit      -0.010649
 2031 Fit      -0.014052
 2032 Fit      -0.015940
 2033 Fit      -0.017287
 2034 Fit      -0.018463
 2035 Fit      -0.019002
 2036 Fit      -0.017704
 2037 Fit      -0.015934
 2038 Fit      -0.021019
 2039 Fit      -0.023391
 2040 Fit      -0.024509
 2041 Fit      -0.024706
 2042 Fit      -0.023156
 2043 Fit      -0.018195
 2044 Fit      -0.020512
 2045 Fit      -0.024626
 2046 Fit      -0.025994
 2047 Fit      -0.025151
 2048 Fit      -0.021347
 2049 Fit      -0.018138
 2050 Fit      -0.022065
 2051 Fit      -0.018248
 2052 Fit       0.021534
 2053 Fit       0.022551
 2054 Fit       0.019196
 2055 Fit       0.017257
 2056 Fit       0.017276
 2057 Fit       0.014813
 2058 Fit       0.012636
 2059 Fit       0.010974
 2060 Fit       0.009619
 2061 Fit       0.009210
 2062 Fit       0.011101
 2063 Fit       0.006486
 2064 Fit       0.004068
 2065 Fit       0.002194
 2066 Fit       0.000487
 2067 Fit      -0.001425
 2068 Fit      -0.001679
 2069 Fit      -0.001618
 2070 Fit      -0.001282
 2071 Fit      -0.000225
 2072 Fit       0.000198
 2073 Fit      -0.000873
 2074 Fit       0.000317
 2075 Fit       0.000992
 2076 Fit      -0.001350
 2077 Fit      -0.000078
 2078 Fit       0.000863
 2079 Fit       0.001203
 2080 Fit      -0.000131
 2081 Fit       0.000182
 2082 Fit      -0.000996
 2083 Fit      -0.000519
 2084 Fit      -0.003239
 2085 Fit      -0.003282
 2086 Fit      -0.003687
 2087 Fit      -0.004062
 2088 Fit      -0.004561
 2089 Fit      -0.003506
 2090 Fit      -0.003492
 2091 Fit      -0.003060
 2092 Fit      -0.001329
 2093 Fit      -0.001542
 2094 Fit      -0.002056
 2095 Fit      -0.000972
 2096 Fit      -0.000381
 2097 Fit      -0.001210
 2098 Fit      -0.000785
 2099 Fit      -0.001388
 2100 Fit      -0.002118
 2101 Fit      -0.002295
 2102 Fit      -0.003655
 2103 Fit       0.000940
 2104 Fit       0.000853
 2105 Fit       0.000606
 2106 Fit       0.000588
 2107 Fit       0.000095
 2108 Fit      -0.000391
 2109 Fit      -0.001076
 2110 Fit      -0.001398
 2111 Fit      -0.001823
 2112 Fit      -0.003356
 2113 Fit      -0.003345
 2114 Fit      -0.002750
 2115 Fit      -0.002116
 2116 Fit      -0.001697
 2117 Fit      -0.001414
 2118 Fit      -0.001239
 2119 Fit      -0.001617
 2120 Fit      -0.002240
 2121 Fit       0.000242
 2122 Fit      -0.000367
 2123 Fit      -0.000491
 2124 Fit      -0.000580
 2125 Fit       0.000251
 2126 Fit       0.000052
 2127 Fit      -0.000632
 2128 Fit      -0.000260
 2129 Fit      -0.000921
 2130 Fit      -0.001077
 2131 Fit      -0.000869
 2132 Fit      -0.000178
 2133 Fit      -0.000081
 2134 Fit      -0.000567
 2135 Fit      -0.000514
 2136 Fit      -0.002917
 2137 Fit      -0.001765
 2138 Fit      -0.003014
 2139 Fit      -0.003696
 2140 Fit      -0.003152
 2141 Fit      -0.004075
 2142 Fit      -0.004532
 2143 Fit      -0.004183
 2144 Fit      -0.003714
 2145 Fit      -0.003076
 2146 Fit      -0.003386
 2147 Fit      -0.003508
 2148 Fit      -0.003184
 2149 Fit      -0.003452
 2150 Fit      -0.002656
 2151 Fit      -0.000335
 2152 Fit      -0.001644
 2153 Fit      -0.002562
 2154 Fit      -0.002991
 2155 Fit      -0.003160
 2156 Fit      -0.001469
 2157 Fit      -0.000432
 2158 Fit       0.000348
 2159 Fit      -0.000272
 2160 Fit      -0.001175
 2161 Fit      -0.001607
 2162 Fit      -0.000407
 2163 Fit      -0.000697
 2164 Fit       0.000463
 2165 Fit      -0.002067
 2166 Fit      -0.000373
 2167 Fit       0.001085
 2168 Fit      -0.002633
 2169 Fit      -0.000798
 2170 Fit       0.000468
 2171 Fit       0.000582
 2172 Fit      -0.002757
 2173 Fit      -0.000972
 2174 Fit       0.000170
 2175 Fit      -0.000921
 2176 Fit      -0.001953
 2177 Fit      -0.002599
 2178 Fit      -0.001222
 2179 Fit      -0.002819
 2180 Fit      -0.005034
 2181 Fit      -0.004453
 2182 Fit      -0.003384
 2183 Fit      -0.004546
 2184 Fit      -0.004347
 2185 Fit      -0.001659
 2186 Fit      -0.002162
 2187 Fit      -0.002870
 2188 Fit      -0.003239
 2189 Fit      -0.003255
 2190 Fit      -0.003233
 2191 Fit      -0.002952
 2192 Fit      -0.003518
 2193 Fit      -0.003439
 2194 Fit      -0.003179
 2195 Fit      -0.003035
 2196 Fit      -0.003115
 2197 Fit      -0.003209
 2198 Fit      -0.002933
 2199 Fit      -0.002804
 2200 Fit      -0.002901
 2201 Fit      -0.002583
 2202 Fit      -0.002048
 2203 Fit      -0.001494
 2204 Fit      -0.001020
 2205 Fit      -0.000244
 2206 Fit      -0.001368
 2207 Fit      -0.000865
 2208 Fit      -0.000181
 2209 Fit       0.000423
 2210 Fit       0.000357
 2211 Fit      -0.001059
 2212 Fit      -0.000126
 2213 Fit      -0.001246
 2214 Fit      -0.000159
 2215 Fit      -0.001490
 2216 Fit       0.000378
 2217 Fit       0.000428
 2218 Fit      -0.000791
 2219 Fit      -0.002443
 2220 Fit       0.001040
 2221 Fit       0.000130
 2222 Fit      -0.001051
 2223 Fit      -0.002742
 2224 Fit       0.000683
 2225 Fit      -0.001088
 2226 Fit      -0.002292
 2227 Fit      -0.000856
 2228 Fit      -0.002838
 2229 Fit      -0.000664
 2230 Fit      -0.001542
 2231 Fit      -0.000230
 2232 Fit       0.000540
 2233 Fit      -0.001451
 2234 Fit      -0.000095
 2235 Fit       0.000730
 2236 Fit       0.001057
 2237 Fit      -0.001399
 2238 Fit      -0.000337
 2239 Fit       0.000148
 2240 Fit       0.000129
 2241 Fit      -0.002657
 2242 Fit      -0.001691
 2243 Fit      -0.001350
 2244 Fit      -0.001779
 -----------------------------------------------------------------
 Leave Link  602 at Wed Apr 26 14:18:51 2017, MaxMem=    33554432 cpu:         5.3
 (Enter /home/michal/g09/l9999.exe)

 Test job not archived.
 1\1\GINC-LINUX\SP\RHF\6-31G(d)\C27H46O3\MICHAL\26-Apr-2017\0\\#P HF/6-
 31G* SCF(Conver=6) NoSymm Test Pop=mk IOp(6/33=2) GFInput GFPrint\\MEP
  - Input generated by R.E.D.-III.x MOLECULE\\0,1\C,0,1.75597015,-1.244
 6183,0.14275309\H,0,1.88490622,-1.27651301,-0.94579053\C,0,3.14277897,
 -1.2151045,0.80581181\H,0,3.722752,-2.08593303,0.4849451\H,0,2.9968207
 8,-1.31482619,1.89283772\C,0,3.89908397,0.06293855,0.49860395\C,0,3.17
 121926,1.38294135,0.77681754\C,0,1.74296706,1.28491132,0.15616849\H,0,
 1.84130079,1.33371026,-0.93666424\H,0,1.15751795,2.16076951,0.45569465
 \C,0,0.96595725,0.00925577,0.51751527\H,0,0.74548782,-0.01478461,1.595
 12551\H,0,0.,0.,0.\C,0,5.14311444,0.,0.\H,0,5.58811039,-0.97105719,-0.
 20963754\C,0,5.97266832,1.19618642,-0.36203705\H,0,7.0275711,1.0197639
 3,-0.12483994\C,0,5.46767625,2.48531473,0.31403291\H,0,5.69190289,2.36
 117325,1.38376395\C,0,3.93084326,2.58275226,0.10770538\H,0,3.78036435,
 2.47102253,-0.97614328\C,0,3.34911673,3.96275033,0.49388948\H,0,3.2852
 4082,4.0571759,1.58250585\H,0,2.31934973,4.03659032,0.12560514\C,0,4.1
 5062538,5.16212154,-0.04802871\H,0,4.09583822,5.17921416,-1.14585434\H
 ,0,3.67449405,6.08300367,0.30340964\C,0,5.63099315,5.08541375,0.371378
 42\C,0,6.18390071,3.74475224,-0.19497422\H,0,5.99972792,3.78797817,-1.
 27784173\C,0,7.70442917,3.85845217,0.\H,0,8.25586876,3.21797384,-0.690
 66122\H,0,7.98790458,3.56023844,1.01777561\C,0,7.99230847,5.36680437,-
 0.23594303\H,0,8.58795565,5.78340035,0.58512588\H,0,8.57592106,5.52231
 169,-1.1486635\C,0,6.6087886,6.0917567,-0.32738616\H,0,6.30583673,6.11
 484434,-1.3843586\C,0,5.7692134,5.1863809,1.90835697\H,0,5.29879324,4.
 34704868,2.42680444\H,0,6.81610206,5.21325503,2.22465395\H,0,5.2939890
 7,6.10091504,2.27957597\C,0,6.67671266,7.55867665,0.16614361\H,0,6.998
 29767,7.53539599,1.21775994\C,0,5.32511396,8.29651009,0.12149091\H,0,4
 .84384322,8.21479801,-0.85935266\H,0,5.46439929,9.36303545,0.33506443\
 H,0,4.62349179,7.90708887,0.86349285\C,0,3.05920676,1.5622184,2.315833
 47\H,0,2.38710737,2.38662987,2.57151271\H,0,2.66480196,0.66548202,2.79
 98083\H,0,4.03641012,1.76630286,2.7640863\O,0,5.87266845,1.23857163,-1
 .8173417\O,0,7.10727792,1.79469579,-2.37813853\H,0,7.37535098,1.053134
 45,-2.94428896\O,0,1.04995941,-2.45028478,0.4473678\H,0,0.86958501,-2.
 47212691,1.39770823\C,0,7.76572462,8.37744658,-0.58017907\H,0,7.809724
 04,9.37176667,-0.11191067\H,0,8.74423869,7.91935371,-0.39768023\C,0,7.
 56233548,8.56415456,-2.09355183\H,0,7.61833422,7.59485076,-2.60400166\
 H,0,6.54966188,8.94235807,-2.28132376\C,0,8.55310087,9.55050121,-2.741
 22932\H,0,8.44285685,10.52684747,-2.24720194\H,0,8.25849176,9.70716163
 ,-3.78967195\C,0,10.04613518,9.15906302,-2.71749867\H,0,10.34525086,8.
 99869525,-1.67183257\C,0,10.32378206,7.86121398,-3.49259195\H,0,10.024
 78595,7.9647121,-4.54389101\H,0,11.39158382,7.61481523,-3.4740894\H,0,
 9.78198973,7.00638115,-3.07548171\C,0,10.90403669,10.30888544,-3.26976
 682\H,0,10.65082336,10.51733398,-4.31734791\H,0,11.97177048,10.0647051
 2,-3.22884345\H,0,10.74892951,11.23251414,-2.70028096\\Version=EM64L-G
 09RevD.01\HF=-1273.6791383\RMSD=5.475e-07\Dipole=0.2169672,-0.0037016,
 0.7204823\Quadrupole=4.4517086,-7.4483263,2.9966177,-7.6927677,1.36229
 52,1.6054193\PG=C01 [X(C27H46O3)]\\@


 THE LENGTH OF A MEETING IS PROPORTIONAL TO THE
 SQUARE OF THE PARTICIPANTS.
 Job cpu time:       0 days  0 hours 12 minutes 48.6 seconds.
 File lengths (MBytes):  RWF=    159 Int=      0 D2E=      0 Chk=     11 Scr=      1
 Normal termination of Gaussian 09 at Wed Apr 26 14:18:51 2017.
