 Entering Gaussian System, Link 0=/home/michal/g09/g09
 Input=JOB2-gau_m1-5-2.com
 Output=JOB2-gau_m1-5-2.log
 Initial command:
 /home/michal/g09/l1.exe "/home/michal/gauss_scratch/Gau-6773.inp" -scrdir="/home/michal/gauss_scratch/"
 Entering Link 1 = /home/michal/g09/l1.exe PID=      6774.
  
 Copyright (c) 1988,1990,1992,1993,1995,1998,2003,2009,2013,
            Gaussian, Inc.  All Rights Reserved.
  
 This is part of the Gaussian(R) 09 program.  It is based on
 the Gaussian(R) 03 system (copyright 2003, Gaussian, Inc.),
 the Gaussian(R) 98 system (copyright 1998, Gaussian, Inc.),
 the Gaussian(R) 94 system (copyright 1995, Gaussian, Inc.),
 the Gaussian 92(TM) system (copyright 1992, Gaussian, Inc.),
 the Gaussian 90(TM) system (copyright 1990, Gaussian, Inc.),
 the Gaussian 88(TM) system (copyright 1988, Gaussian, Inc.),
 the Gaussian 86(TM) system (copyright 1986, Carnegie Mellon
 University), and the Gaussian 82(TM) system (copyright 1983,
 Carnegie Mellon University). Gaussian is a federally registered
 trademark of Gaussian, Inc.
  
 This software contains proprietary and confidential information,
 including trade secrets, belonging to Gaussian, Inc.
  
 This software is provided under written license and may be
 used, copied, transmitted, or stored only in accord with that
 written license.
  
 The following legend is applicable only to US Government
 contracts under FAR:
  
                    RESTRICTED RIGHTS LEGEND
  
 Use, reproduction and disclosure by the US Government is
 subject to restrictions as set forth in subparagraphs (a)
 and (c) of the Commercial Computer Software - Restricted
 Rights clause in FAR 52.227-19.
  
 Gaussian, Inc.
 340 Quinnipiac St., Bldg. 40, Wallingford CT 06492
  
  
 ---------------------------------------------------------------
 Warning -- This program may not be used in any manner that
 competes with the business of Gaussian, Inc. or will provide
 assistance to any competitor of Gaussian, Inc.  The licensee
 of this program is prohibited from giving any competitor of
 Gaussian, Inc. access to this program.  By using this program,
 the user acknowledges that Gaussian, Inc. is engaged in the
 business of creating and licensing software in the field of
 computational chemistry and represents and warrants to the
 licensee that it is not a competitor of Gaussian, Inc. and that
 it will not use this program in any manner prohibited above.
 ---------------------------------------------------------------
  

 Cite this work as:
 Gaussian 09, Revision D.01,
 M. J. Frisch, G. W. Trucks, H. B. Schlegel, G. E. Scuseria, 
 M. A. Robb, J. R. Cheeseman, G. Scalmani, V. Barone, B. Mennucci, 
 G. A. Petersson, H. Nakatsuji, M. Caricato, X. Li, H. P. Hratchian, 
 A. F. Izmaylov, J. Bloino, G. Zheng, J. L. Sonnenberg, M. Hada, 
 M. Ehara, K. Toyota, R. Fukuda, J. Hasegawa, M. Ishida, T. Nakajima, 
 Y. Honda, O. Kitao, H. Nakai, T. Vreven, J. A. Montgomery, Jr., 
 J. E. Peralta, F. Ogliaro, M. Bearpark, J. J. Heyd, E. Brothers, 
 K. N. Kudin, V. N. Staroverov, T. Keith, R. Kobayashi, J. Normand, 
 K. Raghavachari, A. Rendell, J. C. Burant, S. S. Iyengar, J. Tomasi, 
 M. Cossi, N. Rega, J. M. Millam, M. Klene, J. E. Knox, J. B. Cross, 
 V. Bakken, C. Adamo, J. Jaramillo, R. Gomperts, R. E. Stratmann, 
 O. Yazyev, A. J. Austin, R. Cammi, C. Pomelli, J. W. Ochterski, 
 R. L. Martin, K. Morokuma, V. G. Zakrzewski, G. A. Voth, 
 P. Salvador, J. J. Dannenberg, S. Dapprich, A. D. Daniels, 
 O. Farkas, J. B. Foresman, J. V. Ortiz, J. Cioslowski, 
 and D. J. Fox, Gaussian, Inc., Wallingford CT, 2013.
 
 ******************************************
 Gaussian 09:  EM64L-G09RevD.01 24-Apr-2013
                26-Apr-2017 
 ******************************************
 %Mem=256MB
 %NProc=12
 Will use up to   12 processors via shared memory.
 ----------------------------------------------------------------------
 #P HF/6-31G* SCF(Conver=6) NoSymm Test Pop=mk IOp(6/33=2) GFInput GFPr
 int
 ----------------------------------------------------------------------
 1/38=1/1;
 2/12=2,15=1,17=6,18=5,40=1/2;
 3/5=1,6=6,7=1,11=9,16=1,24=110,25=1,30=1/1,2,3;
 4//1;
 5/5=2,6=6,38=5/2;
 6/7=2,8=2,9=2,10=2,15=8,20=1,28=1,33=2/1,2;
 99/5=1,9=1/99;
 Leave Link    1 at Wed Apr 26 13:33:14 2017, MaxMem=    33554432 cpu:         0.6
 (Enter /home/michal/g09/l101.exe)
 ----------------------------------------------
 MEP - Input generated by R.E.D.-III.x MOLECULE
 ----------------------------------------------
 Symbolic Z-matrix:
 Charge =  0 Multiplicity = 1
 C                     7.51687   2.15125  -0.05591 
 H                     7.41525   2.06828   1.03314 
 C                     6.76369   0.98518  -0.71561 
 H                     7.15477   0.03443  -0.3402 
 H                     6.98385   1.01259  -1.79443 
 C                     5.26494   1.06256  -0.48956 
 C                     4.58179   2.38805  -0.849 
 C                     5.41794   3.54897  -0.22662 
 H                     5.27071   3.53148   0.86184 
 H                     5.02356   4.50851  -0.57806 
 C                     6.92626   3.48525  -0.51231 
 H                     7.12038   3.61461  -1.58736 
 H                     7.43997   4.30659   0. 
 C                     4.60736   0.        0. 
 H                     5.16471  -0.90542   0.23299 
 C                     3.12994  -0.04463   0.26405 
 H                     2.71799  -1.01023  -0.05559 
 C                     2.36932   1.09983  -0.42984 
 H                     2.35503   0.82537  -1.49384 
 C                     3.12959   2.44227  -0.25544 
 H                     3.2498    2.5767    0.8296 
 C                     2.30557   3.64864  -0.76851 
 H                     2.28904   3.65184  -1.86303 
 H                     2.80165   4.58017  -0.47261 
 C                     0.84898   3.68569  -0.26264 
 H                     0.84034   3.84422   0.82495 
 H                     0.34571   4.55068  -0.70972 
 C                     0.10449   2.37456  -0.5809 
 C                     0.92447   1.22659   0.07556 
 H                     0.99708   1.49337   1.13839 
 C                     0.        0.        0. 
 H                     0.23887  -0.73809   0.77077 
 H                     0.09661  -0.50411  -0.97016 
 C                    -1.42386   0.6026    0.17365 
 H                    -2.08663   0.26909  -0.63116 
 H                    -1.89136   0.27799   1.10955 
 C                    -1.25629   2.15523   0.16488 
 H                    -1.04491   2.44774   1.20448 
 C                    -0.036     2.1952   -2.11004 
 H                     0.92989   2.04253  -2.59881 
 H                    -0.66585   1.34033  -2.36968 
 H                    -0.48486   3.08411  -2.5632 
 C                    -2.56842   2.91914  -0.17986 
 H                    -3.29448   2.51337   0.54397 
 C                    -3.1755    2.66975  -1.5754 
 H                    -2.65265   3.22995  -2.35654 
 H                    -4.2235    2.98485  -1.59614 
 H                    -3.15689   1.61224  -1.85405 
 C                     4.57195   2.52457  -2.39648 
 H                     4.27976   3.5327   -2.7049 
 H                     5.5577    2.33061  -2.82587 
 H                     3.87736   1.81238  -2.85259 
 O                     2.85053   0.07027   1.68678 
 O                     3.34584  -1.13627   2.33217 
 H                     4.11863  -0.7875    2.80665 
 O                     8.92624   2.06747  -0.28218 
 H                     9.09424   2.16054  -1.23048 
 C                    -2.46455   4.43207   0.11989 
 H                    -1.90532   4.57055   1.05549 
 H                    -1.87202   4.92202  -0.66492 
 C                    -3.81266   5.15908   0.25003 
 H                    -4.36747   5.08204  -0.69198 
 H                    -4.4231    4.65036   1.01132 
 C                    -3.65523   6.63707   0.63734 
 H                    -3.08002   7.15903  -0.143 
 H                    -3.04729   6.6957    1.55162 
 C                    -4.97163   7.40364   0.87911 
 H                    -5.54867   6.84318   1.63098 
 C                    -4.68432   8.79924   1.45545 
 H                    -4.10541   9.40349   0.74509 
 H                    -5.61289   9.3402    1.67072 
 H                    -4.10838   8.7371    2.38591 
 C                    -5.83295   7.51387  -0.38958 
 H                    -5.28961   8.04412  -1.18272 
 H                    -6.75457   8.07221  -0.18947 
 H                    -6.12095   6.53281  -0.78017 
 
 NAtoms=     76 NQM=       76 NQMF=       0 NMMI=      0 NMMIF=      0
                NMic=       0 NMicF=      0.
                    Isotopes and Nuclear Properties:
 (Nuclear quadrupole moments (NQMom) in fm**2, nuclear magnetic moments (NMagM)
  in nuclear magnetons)

  Atom         1           2           3           4           5           6           7           8           9          10
 IAtWgt=          12           1          12           1           1          12          12          12           1           1
 AtmWgt=  12.0000000   1.0078250  12.0000000   1.0078250   1.0078250  12.0000000  12.0000000  12.0000000   1.0078250   1.0078250
 NucSpn=           0           1           0           1           1           0           0           0           1           1
 AtZEff=   0.0000000   0.0000000   0.0000000   0.0000000   0.0000000   0.0000000   0.0000000   0.0000000   0.0000000   0.0000000
 NQMom=    0.0000000   0.0000000   0.0000000   0.0000000   0.0000000   0.0000000   0.0000000   0.0000000   0.0000000   0.0000000
 NMagM=    0.0000000   2.7928460   0.0000000   2.7928460   2.7928460   0.0000000   0.0000000   0.0000000   2.7928460   2.7928460
 AtZNuc=   6.0000000   1.0000000   6.0000000   1.0000000   1.0000000   6.0000000   6.0000000   6.0000000   1.0000000   1.0000000

  Atom        11          12          13          14          15          16          17          18          19          20
 IAtWgt=          12           1           1          12           1          12           1          12           1          12
 AtmWgt=  12.0000000   1.0078250   1.0078250  12.0000000   1.0078250  12.0000000   1.0078250  12.0000000   1.0078250  12.0000000
 NucSpn=           0           1           1           0           1           0           1           0           1           0
 AtZEff=   0.0000000   0.0000000   0.0000000   0.0000000   0.0000000   0.0000000   0.0000000   0.0000000   0.0000000   0.0000000
 NQMom=    0.0000000   0.0000000   0.0000000   0.0000000   0.0000000   0.0000000   0.0000000   0.0000000   0.0000000   0.0000000
 NMagM=    0.0000000   2.7928460   2.7928460   0.0000000   2.7928460   0.0000000   2.7928460   0.0000000   2.7928460   0.0000000
 AtZNuc=   6.0000000   1.0000000   1.0000000   6.0000000   1.0000000   6.0000000   1.0000000   6.0000000   1.0000000   6.0000000

  Atom        21          22          23          24          25          26          27          28          29          30
 IAtWgt=           1          12           1           1          12           1           1          12          12           1
 AtmWgt=   1.0078250  12.0000000   1.0078250   1.0078250  12.0000000   1.0078250   1.0078250  12.0000000  12.0000000   1.0078250
 NucSpn=           1           0           1           1           0           1           1           0           0           1
 AtZEff=   0.0000000   0.0000000   0.0000000   0.0000000   0.0000000   0.0000000   0.0000000   0.0000000   0.0000000   0.0000000
 NQMom=    0.0000000   0.0000000   0.0000000   0.0000000   0.0000000   0.0000000   0.0000000   0.0000000   0.0000000   0.0000000
 NMagM=    2.7928460   0.0000000   2.7928460   2.7928460   0.0000000   2.7928460   2.7928460   0.0000000   0.0000000   2.7928460
 AtZNuc=   1.0000000   6.0000000   1.0000000   1.0000000   6.0000000   1.0000000   1.0000000   6.0000000   6.0000000   1.0000000

  Atom        31          32          33          34          35          36          37          38          39          40
 IAtWgt=          12           1           1          12           1           1          12           1          12           1
 AtmWgt=  12.0000000   1.0078250   1.0078250  12.0000000   1.0078250   1.0078250  12.0000000   1.0078250  12.0000000   1.0078250
 NucSpn=           0           1           1           0           1           1           0           1           0           1
 AtZEff=   0.0000000   0.0000000   0.0000000   0.0000000   0.0000000   0.0000000   0.0000000   0.0000000   0.0000000   0.0000000
 NQMom=    0.0000000   0.0000000   0.0000000   0.0000000   0.0000000   0.0000000   0.0000000   0.0000000   0.0000000   0.0000000
 NMagM=    0.0000000   2.7928460   2.7928460   0.0000000   2.7928460   2.7928460   0.0000000   2.7928460   0.0000000   2.7928460
 AtZNuc=   6.0000000   1.0000000   1.0000000   6.0000000   1.0000000   1.0000000   6.0000000   1.0000000   6.0000000   1.0000000

  Atom        41          42          43          44          45          46          47          48          49          50
 IAtWgt=           1           1          12           1          12           1           1           1          12           1
 AtmWgt=   1.0078250   1.0078250  12.0000000   1.0078250  12.0000000   1.0078250   1.0078250   1.0078250  12.0000000   1.0078250
 NucSpn=           1           1           0           1           0           1           1           1           0           1
 AtZEff=   0.0000000   0.0000000   0.0000000   0.0000000   0.0000000   0.0000000   0.0000000   0.0000000   0.0000000   0.0000000
 NQMom=    0.0000000   0.0000000   0.0000000   0.0000000   0.0000000   0.0000000   0.0000000   0.0000000   0.0000000   0.0000000
 NMagM=    2.7928460   2.7928460   0.0000000   2.7928460   0.0000000   2.7928460   2.7928460   2.7928460   0.0000000   2.7928460
 AtZNuc=   1.0000000   1.0000000   6.0000000   1.0000000   6.0000000   1.0000000   1.0000000   1.0000000   6.0000000   1.0000000

  Atom        51          52          53          54          55          56          57          58          59          60
 IAtWgt=           1           1          16          16           1          16           1          12           1           1
 AtmWgt=   1.0078250   1.0078250  15.9949146  15.9949146   1.0078250  15.9949146   1.0078250  12.0000000   1.0078250   1.0078250
 NucSpn=           1           1           0           0           1           0           1           0           1           1
 AtZEff=   0.0000000   0.0000000   0.0000000   0.0000000   0.0000000   0.0000000   0.0000000   0.0000000   0.0000000   0.0000000
 NQMom=    0.0000000   0.0000000   0.0000000   0.0000000   0.0000000   0.0000000   0.0000000   0.0000000   0.0000000   0.0000000
 NMagM=    2.7928460   2.7928460   0.0000000   0.0000000   2.7928460   0.0000000   2.7928460   0.0000000   2.7928460   2.7928460
 AtZNuc=   1.0000000   1.0000000   8.0000000   8.0000000   1.0000000   8.0000000   1.0000000   6.0000000   1.0000000   1.0000000

  Atom        61          62          63          64          65          66          67          68          69          70
 IAtWgt=          12           1           1          12           1           1          12           1          12           1
 AtmWgt=  12.0000000   1.0078250   1.0078250  12.0000000   1.0078250   1.0078250  12.0000000   1.0078250  12.0000000   1.0078250
 NucSpn=           0           1           1           0           1           1           0           1           0           1
 AtZEff=   0.0000000   0.0000000   0.0000000   0.0000000   0.0000000   0.0000000   0.0000000   0.0000000   0.0000000   0.0000000
 NQMom=    0.0000000   0.0000000   0.0000000   0.0000000   0.0000000   0.0000000   0.0000000   0.0000000   0.0000000   0.0000000
 NMagM=    0.0000000   2.7928460   2.7928460   0.0000000   2.7928460   2.7928460   0.0000000   2.7928460   0.0000000   2.7928460
 AtZNuc=   6.0000000   1.0000000   1.0000000   6.0000000   1.0000000   1.0000000   6.0000000   1.0000000   6.0000000   1.0000000

  Atom        71          72          73          74          75          76
 IAtWgt=           1           1          12           1           1           1
 AtmWgt=   1.0078250   1.0078250  12.0000000   1.0078250   1.0078250   1.0078250
 NucSpn=           1           1           0           1           1           1
 AtZEff=   0.0000000   0.0000000   0.0000000   0.0000000   0.0000000   0.0000000
 NQMom=    0.0000000   0.0000000   0.0000000   0.0000000   0.0000000   0.0000000
 NMagM=    2.7928460   2.7928460   0.0000000   2.7928460   2.7928460   2.7928460
 AtZNuc=   1.0000000   1.0000000   6.0000000   1.0000000   1.0000000   1.0000000
 Leave Link  101 at Wed Apr 26 13:33:14 2017, MaxMem=    33554432 cpu:         1.0
 (Enter /home/michal/g09/l202.exe)
 Symmetry turned off by external request.
 Stoichiometry    C27H46O3
 Framework group  C1[X(C27H46O3)]
 Deg. of freedom   222
 Full point group                 C1      NOp   1
                          Input orientation:                          
 ---------------------------------------------------------------------
 Center     Atomic      Atomic             Coordinates (Angstroms)
 Number     Number       Type             X           Y           Z
 ---------------------------------------------------------------------
      1          6           0        7.516871    2.151247   -0.055908
      2          1           0        7.415246    2.068282    1.033141
      3          6           0        6.763690    0.985180   -0.715614
      4          1           0        7.154774    0.034433   -0.340204
      5          1           0        6.983851    1.012594   -1.794428
      6          6           0        5.264944    1.062559   -0.489561
      7          6           0        4.581792    2.388050   -0.849001
      8          6           0        5.417936    3.548972   -0.226623
      9          1           0        5.270708    3.531480    0.861843
     10          1           0        5.023558    4.508514   -0.578055
     11          6           0        6.926262    3.485252   -0.512309
     12          1           0        7.120379    3.614614   -1.587357
     13          1           0        7.439975    4.306592    0.000000
     14          6           0        4.607356    0.000000    0.000000
     15          1           0        5.164706   -0.905424    0.232993
     16          6           0        3.129943   -0.044626    0.264047
     17          1           0        2.717988   -1.010233   -0.055594
     18          6           0        2.369324    1.099832   -0.429840
     19          1           0        2.355026    0.825368   -1.493836
     20          6           0        3.129590    2.442273   -0.255443
     21          1           0        3.249801    2.576701    0.829600
     22          6           0        2.305565    3.648636   -0.768506
     23          1           0        2.289040    3.651842   -1.863032
     24          1           0        2.801651    4.580170   -0.472612
     25          6           0        0.848976    3.685686   -0.262645
     26          1           0        0.840344    3.844223    0.824950
     27          1           0        0.345713    4.550676   -0.709721
     28          6           0        0.104488    2.374560   -0.580898
     29          6           0        0.924465    1.226594    0.075558
     30          1           0        0.997083    1.493366    1.138388
     31          6           0        0.000000    0.000000    0.000000
     32          1           0        0.238868   -0.738092    0.770770
     33          1           0        0.096605   -0.504108   -0.970161
     34          6           0       -1.423862    0.602602    0.173646
     35          1           0       -2.086632    0.269094   -0.631163
     36          1           0       -1.891363    0.277988    1.109546
     37          6           0       -1.256291    2.155225    0.164880
     38          1           0       -1.044908    2.447737    1.204481
     39          6           0       -0.035997    2.195203   -2.110040
     40          1           0        0.929895    2.042534   -2.598811
     41          1           0       -0.665846    1.340325   -2.369681
     42          1           0       -0.484865    3.084108   -2.563195
     43          6           0       -2.568422    2.919136   -0.179860
     44          1           0       -3.294481    2.513366    0.543969
     45          6           0       -3.175499    2.669751   -1.575395
     46          1           0       -2.652652    3.229954   -2.356540
     47          1           0       -4.223505    2.984854   -1.596135
     48          1           0       -3.156888    1.612237   -1.854054
     49          6           0        4.571948    2.524572   -2.396476
     50          1           0        4.279760    3.532703   -2.704904
     51          1           0        5.557699    2.330612   -2.825868
     52          1           0        3.877362    1.812376   -2.852590
     53          8           0        2.850534    0.070270    1.686780
     54          8           0        3.345844   -1.136267    2.332174
     55          1           0        4.118629   -0.787496    2.806646
     56          8           0        8.926237    2.067471   -0.282176
     57          1           0        9.094242    2.160544   -1.230477
     58          6           0       -2.464552    4.432066    0.119892
     59          1           0       -1.905317    4.570555    1.055486
     60          1           0       -1.872017    4.922016   -0.664917
     61          6           0       -3.812663    5.159083    0.250027
     62          1           0       -4.367472    5.082037   -0.691980
     63          1           0       -4.423096    4.650359    1.011324
     64          6           0       -3.655234    6.637070    0.637340
     65          1           0       -3.080020    7.159033   -0.142998
     66          1           0       -3.047288    6.695698    1.551616
     67          6           0       -4.971630    7.403636    0.879110
     68          1           0       -5.548669    6.843177    1.630977
     69          6           0       -4.684319    8.799245    1.455451
     70          1           0       -4.105405    9.403489    0.745091
     71          1           0       -5.612885    9.340197    1.670716
     72          1           0       -4.108376    8.737095    2.385911
     73          6           0       -5.832947    7.513867   -0.389581
     74          1           0       -5.289610    8.044117   -1.182716
     75          1           0       -6.754568    8.072214   -0.189470
     76          1           0       -6.120946    6.532809   -0.780167
 ---------------------------------------------------------------------
 Rotational constants (GHZ):      0.2709132      0.0592535      0.0531653
 Leave Link  202 at Wed Apr 26 13:33:14 2017, MaxMem=    33554432 cpu:         0.0
 (Enter /home/michal/g09/l301.exe)
 Standard basis: 6-31G(d) (6D, 7F)
 Ernie: Thresh=  0.10000D-02 Tol=  0.10000D-05 Strict=F.
 AO basis set in the form of general basis input (Overlap normalization):
      1 0
 S   6 1.00       0.000000000000
      0.3047524880D+04  0.1834737132D-02
      0.4573695180D+03  0.1403732281D-01
      0.1039486850D+03  0.6884262226D-01
      0.2921015530D+02  0.2321844432D+00
      0.9286662960D+01  0.4679413484D+00
      0.3163926960D+01  0.3623119853D+00
 SP   3 1.00       0.000000000000
      0.7868272350D+01 -0.1193324198D+00  0.6899906659D-01
      0.1881288540D+01 -0.1608541517D+00  0.3164239610D+00
      0.5442492580D+00  0.1143456438D+01  0.7443082909D+00
 SP   1 1.00       0.000000000000
      0.1687144782D+00  0.1000000000D+01  0.1000000000D+01
 D   1 1.00       0.000000000000
      0.8000000000D+00  0.1000000000D+01
 ****
      2 0
 S   3 1.00       0.000000000000
      0.1873113696D+02  0.3349460434D-01
      0.2825394365D+01  0.2347269535D+00
      0.6401216923D+00  0.8137573261D+00
 S   1 1.00       0.000000000000
      0.1612777588D+00  0.1000000000D+01
 ****
      3 0
 S   6 1.00       0.000000000000
      0.3047524880D+04  0.1834737132D-02
      0.4573695180D+03  0.1403732281D-01
      0.1039486850D+03  0.6884262226D-01
      0.2921015530D+02  0.2321844432D+00
      0.9286662960D+01  0.4679413484D+00
      0.3163926960D+01  0.3623119853D+00
 SP   3 1.00       0.000000000000
      0.7868272350D+01 -0.1193324198D+00  0.6899906659D-01
      0.1881288540D+01 -0.1608541517D+00  0.3164239610D+00
      0.5442492580D+00  0.1143456438D+01  0.7443082909D+00
 SP   1 1.00       0.000000000000
      0.1687144782D+00  0.1000000000D+01  0.1000000000D+01
 D   1 1.00       0.000000000000
      0.8000000000D+00  0.1000000000D+01
 ****
      4 0
 S   3 1.00       0.000000000000
      0.1873113696D+02  0.3349460434D-01
      0.2825394365D+01  0.2347269535D+00
      0.6401216923D+00  0.8137573261D+00
 S   1 1.00       0.000000000000
      0.1612777588D+00  0.1000000000D+01
 ****
      5 0
 S   3 1.00       0.000000000000
      0.1873113696D+02  0.3349460434D-01
      0.2825394365D+01  0.2347269535D+00
      0.6401216923D+00  0.8137573261D+00
 S   1 1.00       0.000000000000
      0.1612777588D+00  0.1000000000D+01
 ****
      6 0
 S   6 1.00       0.000000000000
      0.3047524880D+04  0.1834737132D-02
      0.4573695180D+03  0.1403732281D-01
      0.1039486850D+03  0.6884262226D-01
      0.2921015530D+02  0.2321844432D+00
      0.9286662960D+01  0.4679413484D+00
      0.3163926960D+01  0.3623119853D+00
 SP   3 1.00       0.000000000000
      0.7868272350D+01 -0.1193324198D+00  0.6899906659D-01
      0.1881288540D+01 -0.1608541517D+00  0.3164239610D+00
      0.5442492580D+00  0.1143456438D+01  0.7443082909D+00
 SP   1 1.00       0.000000000000
      0.1687144782D+00  0.1000000000D+01  0.1000000000D+01
 D   1 1.00       0.000000000000
      0.8000000000D+00  0.1000000000D+01
 ****
      7 0
 S   6 1.00       0.000000000000
      0.3047524880D+04  0.1834737132D-02
      0.4573695180D+03  0.1403732281D-01
      0.1039486850D+03  0.6884262226D-01
      0.2921015530D+02  0.2321844432D+00
      0.9286662960D+01  0.4679413484D+00
      0.3163926960D+01  0.3623119853D+00
 SP   3 1.00       0.000000000000
      0.7868272350D+01 -0.1193324198D+00  0.6899906659D-01
      0.1881288540D+01 -0.1608541517D+00  0.3164239610D+00
      0.5442492580D+00  0.1143456438D+01  0.7443082909D+00
 SP   1 1.00       0.000000000000
      0.1687144782D+00  0.1000000000D+01  0.1000000000D+01
 D   1 1.00       0.000000000000
      0.8000000000D+00  0.1000000000D+01
 ****
      8 0
 S   6 1.00       0.000000000000
      0.3047524880D+04  0.1834737132D-02
      0.4573695180D+03  0.1403732281D-01
      0.1039486850D+03  0.6884262226D-01
      0.2921015530D+02  0.2321844432D+00
      0.9286662960D+01  0.4679413484D+00
      0.3163926960D+01  0.3623119853D+00
 SP   3 1.00       0.000000000000
      0.7868272350D+01 -0.1193324198D+00  0.6899906659D-01
      0.1881288540D+01 -0.1608541517D+00  0.3164239610D+00
      0.5442492580D+00  0.1143456438D+01  0.7443082909D+00
 SP   1 1.00       0.000000000000
      0.1687144782D+00  0.1000000000D+01  0.1000000000D+01
 D   1 1.00       0.000000000000
      0.8000000000D+00  0.1000000000D+01
 ****
      9 0
 S   3 1.00       0.000000000000
      0.1873113696D+02  0.3349460434D-01
      0.2825394365D+01  0.2347269535D+00
      0.6401216923D+00  0.8137573261D+00
 S   1 1.00       0.000000000000
      0.1612777588D+00  0.1000000000D+01
 ****
     10 0
 S   3 1.00       0.000000000000
      0.1873113696D+02  0.3349460434D-01
      0.2825394365D+01  0.2347269535D+00
      0.6401216923D+00  0.8137573261D+00
 S   1 1.00       0.000000000000
      0.1612777588D+00  0.1000000000D+01
 ****
     11 0
 S   6 1.00       0.000000000000
      0.3047524880D+04  0.1834737132D-02
      0.4573695180D+03  0.1403732281D-01
      0.1039486850D+03  0.6884262226D-01
      0.2921015530D+02  0.2321844432D+00
      0.9286662960D+01  0.4679413484D+00
      0.3163926960D+01  0.3623119853D+00
 SP   3 1.00       0.000000000000
      0.7868272350D+01 -0.1193324198D+00  0.6899906659D-01
      0.1881288540D+01 -0.1608541517D+00  0.3164239610D+00
      0.5442492580D+00  0.1143456438D+01  0.7443082909D+00
 SP   1 1.00       0.000000000000
      0.1687144782D+00  0.1000000000D+01  0.1000000000D+01
 D   1 1.00       0.000000000000
      0.8000000000D+00  0.1000000000D+01
 ****
     12 0
 S   3 1.00       0.000000000000
      0.1873113696D+02  0.3349460434D-01
      0.2825394365D+01  0.2347269535D+00
      0.6401216923D+00  0.8137573261D+00
 S   1 1.00       0.000000000000
      0.1612777588D+00  0.1000000000D+01
 ****
     13 0
 S   3 1.00       0.000000000000
      0.1873113696D+02  0.3349460434D-01
      0.2825394365D+01  0.2347269535D+00
      0.6401216923D+00  0.8137573261D+00
 S   1 1.00       0.000000000000
      0.1612777588D+00  0.1000000000D+01
 ****
     14 0
 S   6 1.00       0.000000000000
      0.3047524880D+04  0.1834737132D-02
      0.4573695180D+03  0.1403732281D-01
      0.1039486850D+03  0.6884262226D-01
      0.2921015530D+02  0.2321844432D+00
      0.9286662960D+01  0.4679413484D+00
      0.3163926960D+01  0.3623119853D+00
 SP   3 1.00       0.000000000000
      0.7868272350D+01 -0.1193324198D+00  0.6899906659D-01
      0.1881288540D+01 -0.1608541517D+00  0.3164239610D+00
      0.5442492580D+00  0.1143456438D+01  0.7443082909D+00
 SP   1 1.00       0.000000000000
      0.1687144782D+00  0.1000000000D+01  0.1000000000D+01
 D   1 1.00       0.000000000000
      0.8000000000D+00  0.1000000000D+01
 ****
     15 0
 S   3 1.00       0.000000000000
      0.1873113696D+02  0.3349460434D-01
      0.2825394365D+01  0.2347269535D+00
      0.6401216923D+00  0.8137573261D+00
 S   1 1.00       0.000000000000
      0.1612777588D+00  0.1000000000D+01
 ****
     16 0
 S   6 1.00       0.000000000000
      0.3047524880D+04  0.1834737132D-02
      0.4573695180D+03  0.1403732281D-01
      0.1039486850D+03  0.6884262226D-01
      0.2921015530D+02  0.2321844432D+00
      0.9286662960D+01  0.4679413484D+00
      0.3163926960D+01  0.3623119853D+00
 SP   3 1.00       0.000000000000
      0.7868272350D+01 -0.1193324198D+00  0.6899906659D-01
      0.1881288540D+01 -0.1608541517D+00  0.3164239610D+00
      0.5442492580D+00  0.1143456438D+01  0.7443082909D+00
 SP   1 1.00       0.000000000000
      0.1687144782D+00  0.1000000000D+01  0.1000000000D+01
 D   1 1.00       0.000000000000
      0.8000000000D+00  0.1000000000D+01
 ****
     17 0
 S   3 1.00       0.000000000000
      0.1873113696D+02  0.3349460434D-01
      0.2825394365D+01  0.2347269535D+00
      0.6401216923D+00  0.8137573261D+00
 S   1 1.00       0.000000000000
      0.1612777588D+00  0.1000000000D+01
 ****
     18 0
 S   6 1.00       0.000000000000
      0.3047524880D+04  0.1834737132D-02
      0.4573695180D+03  0.1403732281D-01
      0.1039486850D+03  0.6884262226D-01
      0.2921015530D+02  0.2321844432D+00
      0.9286662960D+01  0.4679413484D+00
      0.3163926960D+01  0.3623119853D+00
 SP   3 1.00       0.000000000000
      0.7868272350D+01 -0.1193324198D+00  0.6899906659D-01
      0.1881288540D+01 -0.1608541517D+00  0.3164239610D+00
      0.5442492580D+00  0.1143456438D+01  0.7443082909D+00
 SP   1 1.00       0.000000000000
      0.1687144782D+00  0.1000000000D+01  0.1000000000D+01
 D   1 1.00       0.000000000000
      0.8000000000D+00  0.1000000000D+01
 ****
     19 0
 S   3 1.00       0.000000000000
      0.1873113696D+02  0.3349460434D-01
      0.2825394365D+01  0.2347269535D+00
      0.6401216923D+00  0.8137573261D+00
 S   1 1.00       0.000000000000
      0.1612777588D+00  0.1000000000D+01
 ****
     20 0
 S   6 1.00       0.000000000000
      0.3047524880D+04  0.1834737132D-02
      0.4573695180D+03  0.1403732281D-01
      0.1039486850D+03  0.6884262226D-01
      0.2921015530D+02  0.2321844432D+00
      0.9286662960D+01  0.4679413484D+00
      0.3163926960D+01  0.3623119853D+00
 SP   3 1.00       0.000000000000
      0.7868272350D+01 -0.1193324198D+00  0.6899906659D-01
      0.1881288540D+01 -0.1608541517D+00  0.3164239610D+00
      0.5442492580D+00  0.1143456438D+01  0.7443082909D+00
 SP   1 1.00       0.000000000000
      0.1687144782D+00  0.1000000000D+01  0.1000000000D+01
 D   1 1.00       0.000000000000
      0.8000000000D+00  0.1000000000D+01
 ****
     21 0
 S   3 1.00       0.000000000000
      0.1873113696D+02  0.3349460434D-01
      0.2825394365D+01  0.2347269535D+00
      0.6401216923D+00  0.8137573261D+00
 S   1 1.00       0.000000000000
      0.1612777588D+00  0.1000000000D+01
 ****
     22 0
 S   6 1.00       0.000000000000
      0.3047524880D+04  0.1834737132D-02
      0.4573695180D+03  0.1403732281D-01
      0.1039486850D+03  0.6884262226D-01
      0.2921015530D+02  0.2321844432D+00
      0.9286662960D+01  0.4679413484D+00
      0.3163926960D+01  0.3623119853D+00
 SP   3 1.00       0.000000000000
      0.7868272350D+01 -0.1193324198D+00  0.6899906659D-01
      0.1881288540D+01 -0.1608541517D+00  0.3164239610D+00
      0.5442492580D+00  0.1143456438D+01  0.7443082909D+00
 SP   1 1.00       0.000000000000
      0.1687144782D+00  0.1000000000D+01  0.1000000000D+01
 D   1 1.00       0.000000000000
      0.8000000000D+00  0.1000000000D+01
 ****
     23 0
 S   3 1.00       0.000000000000
      0.1873113696D+02  0.3349460434D-01
      0.2825394365D+01  0.2347269535D+00
      0.6401216923D+00  0.8137573261D+00
 S   1 1.00       0.000000000000
      0.1612777588D+00  0.1000000000D+01
 ****
     24 0
 S   3 1.00       0.000000000000
      0.1873113696D+02  0.3349460434D-01
      0.2825394365D+01  0.2347269535D+00
      0.6401216923D+00  0.8137573261D+00
 S   1 1.00       0.000000000000
      0.1612777588D+00  0.1000000000D+01
 ****
     25 0
 S   6 1.00       0.000000000000
      0.3047524880D+04  0.1834737132D-02
      0.4573695180D+03  0.1403732281D-01
      0.1039486850D+03  0.6884262226D-01
      0.2921015530D+02  0.2321844432D+00
      0.9286662960D+01  0.4679413484D+00
      0.3163926960D+01  0.3623119853D+00
 SP   3 1.00       0.000000000000
      0.7868272350D+01 -0.1193324198D+00  0.6899906659D-01
      0.1881288540D+01 -0.1608541517D+00  0.3164239610D+00
      0.5442492580D+00  0.1143456438D+01  0.7443082909D+00
 SP   1 1.00       0.000000000000
      0.1687144782D+00  0.1000000000D+01  0.1000000000D+01
 D   1 1.00       0.000000000000
      0.8000000000D+00  0.1000000000D+01
 ****
     26 0
 S   3 1.00       0.000000000000
      0.1873113696D+02  0.3349460434D-01
      0.2825394365D+01  0.2347269535D+00
      0.6401216923D+00  0.8137573261D+00
 S   1 1.00       0.000000000000
      0.1612777588D+00  0.1000000000D+01
 ****
     27 0
 S   3 1.00       0.000000000000
      0.1873113696D+02  0.3349460434D-01
      0.2825394365D+01  0.2347269535D+00
      0.6401216923D+00  0.8137573261D+00
 S   1 1.00       0.000000000000
      0.1612777588D+00  0.1000000000D+01
 ****
     28 0
 S   6 1.00       0.000000000000
      0.3047524880D+04  0.1834737132D-02
      0.4573695180D+03  0.1403732281D-01
      0.1039486850D+03  0.6884262226D-01
      0.2921015530D+02  0.2321844432D+00
      0.9286662960D+01  0.4679413484D+00
      0.3163926960D+01  0.3623119853D+00
 SP   3 1.00       0.000000000000
      0.7868272350D+01 -0.1193324198D+00  0.6899906659D-01
      0.1881288540D+01 -0.1608541517D+00  0.3164239610D+00
      0.5442492580D+00  0.1143456438D+01  0.7443082909D+00
 SP   1 1.00       0.000000000000
      0.1687144782D+00  0.1000000000D+01  0.1000000000D+01
 D   1 1.00       0.000000000000
      0.8000000000D+00  0.1000000000D+01
 ****
     29 0
 S   6 1.00       0.000000000000
      0.3047524880D+04  0.1834737132D-02
      0.4573695180D+03  0.1403732281D-01
      0.1039486850D+03  0.6884262226D-01
      0.2921015530D+02  0.2321844432D+00
      0.9286662960D+01  0.4679413484D+00
      0.3163926960D+01  0.3623119853D+00
 SP   3 1.00       0.000000000000
      0.7868272350D+01 -0.1193324198D+00  0.6899906659D-01
      0.1881288540D+01 -0.1608541517D+00  0.3164239610D+00
      0.5442492580D+00  0.1143456438D+01  0.7443082909D+00
 SP   1 1.00       0.000000000000
      0.1687144782D+00  0.1000000000D+01  0.1000000000D+01
 D   1 1.00       0.000000000000
      0.8000000000D+00  0.1000000000D+01
 ****
     30 0
 S   3 1.00       0.000000000000
      0.1873113696D+02  0.3349460434D-01
      0.2825394365D+01  0.2347269535D+00
      0.6401216923D+00  0.8137573261D+00
 S   1 1.00       0.000000000000
      0.1612777588D+00  0.1000000000D+01
 ****
     31 0
 S   6 1.00       0.000000000000
      0.3047524880D+04  0.1834737132D-02
      0.4573695180D+03  0.1403732281D-01
      0.1039486850D+03  0.6884262226D-01
      0.2921015530D+02  0.2321844432D+00
      0.9286662960D+01  0.4679413484D+00
      0.3163926960D+01  0.3623119853D+00
 SP   3 1.00       0.000000000000
      0.7868272350D+01 -0.1193324198D+00  0.6899906659D-01
      0.1881288540D+01 -0.1608541517D+00  0.3164239610D+00
      0.5442492580D+00  0.1143456438D+01  0.7443082909D+00
 SP   1 1.00       0.000000000000
      0.1687144782D+00  0.1000000000D+01  0.1000000000D+01
 D   1 1.00       0.000000000000
      0.8000000000D+00  0.1000000000D+01
 ****
     32 0
 S   3 1.00       0.000000000000
      0.1873113696D+02  0.3349460434D-01
      0.2825394365D+01  0.2347269535D+00
      0.6401216923D+00  0.8137573261D+00
 S   1 1.00       0.000000000000
      0.1612777588D+00  0.1000000000D+01
 ****
     33 0
 S   3 1.00       0.000000000000
      0.1873113696D+02  0.3349460434D-01
      0.2825394365D+01  0.2347269535D+00
      0.6401216923D+00  0.8137573261D+00
 S   1 1.00       0.000000000000
      0.1612777588D+00  0.1000000000D+01
 ****
     34 0
 S   6 1.00       0.000000000000
      0.3047524880D+04  0.1834737132D-02
      0.4573695180D+03  0.1403732281D-01
      0.1039486850D+03  0.6884262226D-01
      0.2921015530D+02  0.2321844432D+00
      0.9286662960D+01  0.4679413484D+00
      0.3163926960D+01  0.3623119853D+00
 SP   3 1.00       0.000000000000
      0.7868272350D+01 -0.1193324198D+00  0.6899906659D-01
      0.1881288540D+01 -0.1608541517D+00  0.3164239610D+00
      0.5442492580D+00  0.1143456438D+01  0.7443082909D+00
 SP   1 1.00       0.000000000000
      0.1687144782D+00  0.1000000000D+01  0.1000000000D+01
 D   1 1.00       0.000000000000
      0.8000000000D+00  0.1000000000D+01
 ****
     35 0
 S   3 1.00       0.000000000000
      0.1873113696D+02  0.3349460434D-01
      0.2825394365D+01  0.2347269535D+00
      0.6401216923D+00  0.8137573261D+00
 S   1 1.00       0.000000000000
      0.1612777588D+00  0.1000000000D+01
 ****
     36 0
 S   3 1.00       0.000000000000
      0.1873113696D+02  0.3349460434D-01
      0.2825394365D+01  0.2347269535D+00
      0.6401216923D+00  0.8137573261D+00
 S   1 1.00       0.000000000000
      0.1612777588D+00  0.1000000000D+01
 ****
     37 0
 S   6 1.00       0.000000000000
      0.3047524880D+04  0.1834737132D-02
      0.4573695180D+03  0.1403732281D-01
      0.1039486850D+03  0.6884262226D-01
      0.2921015530D+02  0.2321844432D+00
      0.9286662960D+01  0.4679413484D+00
      0.3163926960D+01  0.3623119853D+00
 SP   3 1.00       0.000000000000
      0.7868272350D+01 -0.1193324198D+00  0.6899906659D-01
      0.1881288540D+01 -0.1608541517D+00  0.3164239610D+00
      0.5442492580D+00  0.1143456438D+01  0.7443082909D+00
 SP   1 1.00       0.000000000000
      0.1687144782D+00  0.1000000000D+01  0.1000000000D+01
 D   1 1.00       0.000000000000
      0.8000000000D+00  0.1000000000D+01
 ****
     38 0
 S   3 1.00       0.000000000000
      0.1873113696D+02  0.3349460434D-01
      0.2825394365D+01  0.2347269535D+00
      0.6401216923D+00  0.8137573261D+00
 S   1 1.00       0.000000000000
      0.1612777588D+00  0.1000000000D+01
 ****
     39 0
 S   6 1.00       0.000000000000
      0.3047524880D+04  0.1834737132D-02
      0.4573695180D+03  0.1403732281D-01
      0.1039486850D+03  0.6884262226D-01
      0.2921015530D+02  0.2321844432D+00
      0.9286662960D+01  0.4679413484D+00
      0.3163926960D+01  0.3623119853D+00
 SP   3 1.00       0.000000000000
      0.7868272350D+01 -0.1193324198D+00  0.6899906659D-01
      0.1881288540D+01 -0.1608541517D+00  0.3164239610D+00
      0.5442492580D+00  0.1143456438D+01  0.7443082909D+00
 SP   1 1.00       0.000000000000
      0.1687144782D+00  0.1000000000D+01  0.1000000000D+01
 D   1 1.00       0.000000000000
      0.8000000000D+00  0.1000000000D+01
 ****
     40 0
 S   3 1.00       0.000000000000
      0.1873113696D+02  0.3349460434D-01
      0.2825394365D+01  0.2347269535D+00
      0.6401216923D+00  0.8137573261D+00
 S   1 1.00       0.000000000000
      0.1612777588D+00  0.1000000000D+01
 ****
     41 0
 S   3 1.00       0.000000000000
      0.1873113696D+02  0.3349460434D-01
      0.2825394365D+01  0.2347269535D+00
      0.6401216923D+00  0.8137573261D+00
 S   1 1.00       0.000000000000
      0.1612777588D+00  0.1000000000D+01
 ****
     42 0
 S   3 1.00       0.000000000000
      0.1873113696D+02  0.3349460434D-01
      0.2825394365D+01  0.2347269535D+00
      0.6401216923D+00  0.8137573261D+00
 S   1 1.00       0.000000000000
      0.1612777588D+00  0.1000000000D+01
 ****
     43 0
 S   6 1.00       0.000000000000
      0.3047524880D+04  0.1834737132D-02
      0.4573695180D+03  0.1403732281D-01
      0.1039486850D+03  0.6884262226D-01
      0.2921015530D+02  0.2321844432D+00
      0.9286662960D+01  0.4679413484D+00
      0.3163926960D+01  0.3623119853D+00
 SP   3 1.00       0.000000000000
      0.7868272350D+01 -0.1193324198D+00  0.6899906659D-01
      0.1881288540D+01 -0.1608541517D+00  0.3164239610D+00
      0.5442492580D+00  0.1143456438D+01  0.7443082909D+00
 SP   1 1.00       0.000000000000
      0.1687144782D+00  0.1000000000D+01  0.1000000000D+01
 D   1 1.00       0.000000000000
      0.8000000000D+00  0.1000000000D+01
 ****
     44 0
 S   3 1.00       0.000000000000
      0.1873113696D+02  0.3349460434D-01
      0.2825394365D+01  0.2347269535D+00
      0.6401216923D+00  0.8137573261D+00
 S   1 1.00       0.000000000000
      0.1612777588D+00  0.1000000000D+01
 ****
     45 0
 S   6 1.00       0.000000000000
      0.3047524880D+04  0.1834737132D-02
      0.4573695180D+03  0.1403732281D-01
      0.1039486850D+03  0.6884262226D-01
      0.2921015530D+02  0.2321844432D+00
      0.9286662960D+01  0.4679413484D+00
      0.3163926960D+01  0.3623119853D+00
 SP   3 1.00       0.000000000000
      0.7868272350D+01 -0.1193324198D+00  0.6899906659D-01
      0.1881288540D+01 -0.1608541517D+00  0.3164239610D+00
      0.5442492580D+00  0.1143456438D+01  0.7443082909D+00
 SP   1 1.00       0.000000000000
      0.1687144782D+00  0.1000000000D+01  0.1000000000D+01
 D   1 1.00       0.000000000000
      0.8000000000D+00  0.1000000000D+01
 ****
     46 0
 S   3 1.00       0.000000000000
      0.1873113696D+02  0.3349460434D-01
      0.2825394365D+01  0.2347269535D+00
      0.6401216923D+00  0.8137573261D+00
 S   1 1.00       0.000000000000
      0.1612777588D+00  0.1000000000D+01
 ****
     47 0
 S   3 1.00       0.000000000000
      0.1873113696D+02  0.3349460434D-01
      0.2825394365D+01  0.2347269535D+00
      0.6401216923D+00  0.8137573261D+00
 S   1 1.00       0.000000000000
      0.1612777588D+00  0.1000000000D+01
 ****
     48 0
 S   3 1.00       0.000000000000
      0.1873113696D+02  0.3349460434D-01
      0.2825394365D+01  0.2347269535D+00
      0.6401216923D+00  0.8137573261D+00
 S   1 1.00       0.000000000000
      0.1612777588D+00  0.1000000000D+01
 ****
     49 0
 S   6 1.00       0.000000000000
      0.3047524880D+04  0.1834737132D-02
      0.4573695180D+03  0.1403732281D-01
      0.1039486850D+03  0.6884262226D-01
      0.2921015530D+02  0.2321844432D+00
      0.9286662960D+01  0.4679413484D+00
      0.3163926960D+01  0.3623119853D+00
 SP   3 1.00       0.000000000000
      0.7868272350D+01 -0.1193324198D+00  0.6899906659D-01
      0.1881288540D+01 -0.1608541517D+00  0.3164239610D+00
      0.5442492580D+00  0.1143456438D+01  0.7443082909D+00
 SP   1 1.00       0.000000000000
      0.1687144782D+00  0.1000000000D+01  0.1000000000D+01
 D   1 1.00       0.000000000000
      0.8000000000D+00  0.1000000000D+01
 ****
     50 0
 S   3 1.00       0.000000000000
      0.1873113696D+02  0.3349460434D-01
      0.2825394365D+01  0.2347269535D+00
      0.6401216923D+00  0.8137573261D+00
 S   1 1.00       0.000000000000
      0.1612777588D+00  0.1000000000D+01
 ****
     51 0
 S   3 1.00       0.000000000000
      0.1873113696D+02  0.3349460434D-01
      0.2825394365D+01  0.2347269535D+00
      0.6401216923D+00  0.8137573261D+00
 S   1 1.00       0.000000000000
      0.1612777588D+00  0.1000000000D+01
 ****
     52 0
 S   3 1.00       0.000000000000
      0.1873113696D+02  0.3349460434D-01
      0.2825394365D+01  0.2347269535D+00
      0.6401216923D+00  0.8137573261D+00
 S   1 1.00       0.000000000000
      0.1612777588D+00  0.1000000000D+01
 ****
     53 0
 S   6 1.00       0.000000000000
      0.5484671660D+04  0.1831074430D-02
      0.8252349460D+03  0.1395017220D-01
      0.1880469580D+03  0.6844507810D-01
      0.5296450000D+02  0.2327143360D+00
      0.1689757040D+02  0.4701928980D+00
      0.5799635340D+01  0.3585208530D+00
 SP   3 1.00       0.000000000000
      0.1553961625D+02 -0.1107775495D+00  0.7087426823D-01
      0.3599933586D+01 -0.1480262627D+00  0.3397528391D+00
      0.1013761750D+01  0.1130767015D+01  0.7271585773D+00
 SP   1 1.00       0.000000000000
      0.2700058226D+00  0.1000000000D+01  0.1000000000D+01
 D   1 1.00       0.000000000000
      0.8000000000D+00  0.1000000000D+01
 ****
     54 0
 S   6 1.00       0.000000000000
      0.5484671660D+04  0.1831074430D-02
      0.8252349460D+03  0.1395017220D-01
      0.1880469580D+03  0.6844507810D-01
      0.5296450000D+02  0.2327143360D+00
      0.1689757040D+02  0.4701928980D+00
      0.5799635340D+01  0.3585208530D+00
 SP   3 1.00       0.000000000000
      0.1553961625D+02 -0.1107775495D+00  0.7087426823D-01
      0.3599933586D+01 -0.1480262627D+00  0.3397528391D+00
      0.1013761750D+01  0.1130767015D+01  0.7271585773D+00
 SP   1 1.00       0.000000000000
      0.2700058226D+00  0.1000000000D+01  0.1000000000D+01
 D   1 1.00       0.000000000000
      0.8000000000D+00  0.1000000000D+01
 ****
     55 0
 S   3 1.00       0.000000000000
      0.1873113696D+02  0.3349460434D-01
      0.2825394365D+01  0.2347269535D+00
      0.6401216923D+00  0.8137573261D+00
 S   1 1.00       0.000000000000
      0.1612777588D+00  0.1000000000D+01
 ****
     56 0
 S   6 1.00       0.000000000000
      0.5484671660D+04  0.1831074430D-02
      0.8252349460D+03  0.1395017220D-01
      0.1880469580D+03  0.6844507810D-01
      0.5296450000D+02  0.2327143360D+00
      0.1689757040D+02  0.4701928980D+00
      0.5799635340D+01  0.3585208530D+00
 SP   3 1.00       0.000000000000
      0.1553961625D+02 -0.1107775495D+00  0.7087426823D-01
      0.3599933586D+01 -0.1480262627D+00  0.3397528391D+00
      0.1013761750D+01  0.1130767015D+01  0.7271585773D+00
 SP   1 1.00       0.000000000000
      0.2700058226D+00  0.1000000000D+01  0.1000000000D+01
 D   1 1.00       0.000000000000
      0.8000000000D+00  0.1000000000D+01
 ****
     57 0
 S   3 1.00       0.000000000000
      0.1873113696D+02  0.3349460434D-01
      0.2825394365D+01  0.2347269535D+00
      0.6401216923D+00  0.8137573261D+00
 S   1 1.00       0.000000000000
      0.1612777588D+00  0.1000000000D+01
 ****
     58 0
 S   6 1.00       0.000000000000
      0.3047524880D+04  0.1834737132D-02
      0.4573695180D+03  0.1403732281D-01
      0.1039486850D+03  0.6884262226D-01
      0.2921015530D+02  0.2321844432D+00
      0.9286662960D+01  0.4679413484D+00
      0.3163926960D+01  0.3623119853D+00
 SP   3 1.00       0.000000000000
      0.7868272350D+01 -0.1193324198D+00  0.6899906659D-01
      0.1881288540D+01 -0.1608541517D+00  0.3164239610D+00
      0.5442492580D+00  0.1143456438D+01  0.7443082909D+00
 SP   1 1.00       0.000000000000
      0.1687144782D+00  0.1000000000D+01  0.1000000000D+01
 D   1 1.00       0.000000000000
      0.8000000000D+00  0.1000000000D+01
 ****
     59 0
 S   3 1.00       0.000000000000
      0.1873113696D+02  0.3349460434D-01
      0.2825394365D+01  0.2347269535D+00
      0.6401216923D+00  0.8137573261D+00
 S   1 1.00       0.000000000000
      0.1612777588D+00  0.1000000000D+01
 ****
     60 0
 S   3 1.00       0.000000000000
      0.1873113696D+02  0.3349460434D-01
      0.2825394365D+01  0.2347269535D+00
      0.6401216923D+00  0.8137573261D+00
 S   1 1.00       0.000000000000
      0.1612777588D+00  0.1000000000D+01
 ****
     61 0
 S   6 1.00       0.000000000000
      0.3047524880D+04  0.1834737132D-02
      0.4573695180D+03  0.1403732281D-01
      0.1039486850D+03  0.6884262226D-01
      0.2921015530D+02  0.2321844432D+00
      0.9286662960D+01  0.4679413484D+00
      0.3163926960D+01  0.3623119853D+00
 SP   3 1.00       0.000000000000
      0.7868272350D+01 -0.1193324198D+00  0.6899906659D-01
      0.1881288540D+01 -0.1608541517D+00  0.3164239610D+00
      0.5442492580D+00  0.1143456438D+01  0.7443082909D+00
 SP   1 1.00       0.000000000000
      0.1687144782D+00  0.1000000000D+01  0.1000000000D+01
 D   1 1.00       0.000000000000
      0.8000000000D+00  0.1000000000D+01
 ****
     62 0
 S   3 1.00       0.000000000000
      0.1873113696D+02  0.3349460434D-01
      0.2825394365D+01  0.2347269535D+00
      0.6401216923D+00  0.8137573261D+00
 S   1 1.00       0.000000000000
      0.1612777588D+00  0.1000000000D+01
 ****
     63 0
 S   3 1.00       0.000000000000
      0.1873113696D+02  0.3349460434D-01
      0.2825394365D+01  0.2347269535D+00
      0.6401216923D+00  0.8137573261D+00
 S   1 1.00       0.000000000000
      0.1612777588D+00  0.1000000000D+01
 ****
     64 0
 S   6 1.00       0.000000000000
      0.3047524880D+04  0.1834737132D-02
      0.4573695180D+03  0.1403732281D-01
      0.1039486850D+03  0.6884262226D-01
      0.2921015530D+02  0.2321844432D+00
      0.9286662960D+01  0.4679413484D+00
      0.3163926960D+01  0.3623119853D+00
 SP   3 1.00       0.000000000000
      0.7868272350D+01 -0.1193324198D+00  0.6899906659D-01
      0.1881288540D+01 -0.1608541517D+00  0.3164239610D+00
      0.5442492580D+00  0.1143456438D+01  0.7443082909D+00
 SP   1 1.00       0.000000000000
      0.1687144782D+00  0.1000000000D+01  0.1000000000D+01
 D   1 1.00       0.000000000000
      0.8000000000D+00  0.1000000000D+01
 ****
     65 0
 S   3 1.00       0.000000000000
      0.1873113696D+02  0.3349460434D-01
      0.2825394365D+01  0.2347269535D+00
      0.6401216923D+00  0.8137573261D+00
 S   1 1.00       0.000000000000
      0.1612777588D+00  0.1000000000D+01
 ****
     66 0
 S   3 1.00       0.000000000000
      0.1873113696D+02  0.3349460434D-01
      0.2825394365D+01  0.2347269535D+00
      0.6401216923D+00  0.8137573261D+00
 S   1 1.00       0.000000000000
      0.1612777588D+00  0.1000000000D+01
 ****
     67 0
 S   6 1.00       0.000000000000
      0.3047524880D+04  0.1834737132D-02
      0.4573695180D+03  0.1403732281D-01
      0.1039486850D+03  0.6884262226D-01
      0.2921015530D+02  0.2321844432D+00
      0.9286662960D+01  0.4679413484D+00
      0.3163926960D+01  0.3623119853D+00
 SP   3 1.00       0.000000000000
      0.7868272350D+01 -0.1193324198D+00  0.6899906659D-01
      0.1881288540D+01 -0.1608541517D+00  0.3164239610D+00
      0.5442492580D+00  0.1143456438D+01  0.7443082909D+00
 SP   1 1.00       0.000000000000
      0.1687144782D+00  0.1000000000D+01  0.1000000000D+01
 D   1 1.00       0.000000000000
      0.8000000000D+00  0.1000000000D+01
 ****
     68 0
 S   3 1.00       0.000000000000
      0.1873113696D+02  0.3349460434D-01
      0.2825394365D+01  0.2347269535D+00
      0.6401216923D+00  0.8137573261D+00
 S   1 1.00       0.000000000000
      0.1612777588D+00  0.1000000000D+01
 ****
     69 0
 S   6 1.00       0.000000000000
      0.3047524880D+04  0.1834737132D-02
      0.4573695180D+03  0.1403732281D-01
      0.1039486850D+03  0.6884262226D-01
      0.2921015530D+02  0.2321844432D+00
      0.9286662960D+01  0.4679413484D+00
      0.3163926960D+01  0.3623119853D+00
 SP   3 1.00       0.000000000000
      0.7868272350D+01 -0.1193324198D+00  0.6899906659D-01
      0.1881288540D+01 -0.1608541517D+00  0.3164239610D+00
      0.5442492580D+00  0.1143456438D+01  0.7443082909D+00
 SP   1 1.00       0.000000000000
      0.1687144782D+00  0.1000000000D+01  0.1000000000D+01
 D   1 1.00       0.000000000000
      0.8000000000D+00  0.1000000000D+01
 ****
     70 0
 S   3 1.00       0.000000000000
      0.1873113696D+02  0.3349460434D-01
      0.2825394365D+01  0.2347269535D+00
      0.6401216923D+00  0.8137573261D+00
 S   1 1.00       0.000000000000
      0.1612777588D+00  0.1000000000D+01
 ****
     71 0
 S   3 1.00       0.000000000000
      0.1873113696D+02  0.3349460434D-01
      0.2825394365D+01  0.2347269535D+00
      0.6401216923D+00  0.8137573261D+00
 S   1 1.00       0.000000000000
      0.1612777588D+00  0.1000000000D+01
 ****
     72 0
 S   3 1.00       0.000000000000
      0.1873113696D+02  0.3349460434D-01
      0.2825394365D+01  0.2347269535D+00
      0.6401216923D+00  0.8137573261D+00
 S   1 1.00       0.000000000000
      0.1612777588D+00  0.1000000000D+01
 ****
     73 0
 S   6 1.00       0.000000000000
      0.3047524880D+04  0.1834737132D-02
      0.4573695180D+03  0.1403732281D-01
      0.1039486850D+03  0.6884262226D-01
      0.2921015530D+02  0.2321844432D+00
      0.9286662960D+01  0.4679413484D+00
      0.3163926960D+01  0.3623119853D+00
 SP   3 1.00       0.000000000000
      0.7868272350D+01 -0.1193324198D+00  0.6899906659D-01
      0.1881288540D+01 -0.1608541517D+00  0.3164239610D+00
      0.5442492580D+00  0.1143456438D+01  0.7443082909D+00
 SP   1 1.00       0.000000000000
      0.1687144782D+00  0.1000000000D+01  0.1000000000D+01
 D   1 1.00       0.000000000000
      0.8000000000D+00  0.1000000000D+01
 ****
     74 0
 S   3 1.00       0.000000000000
      0.1873113696D+02  0.3349460434D-01
      0.2825394365D+01  0.2347269535D+00
      0.6401216923D+00  0.8137573261D+00
 S   1 1.00       0.000000000000
      0.1612777588D+00  0.1000000000D+01
 ****
     75 0
 S   3 1.00       0.000000000000
      0.1873113696D+02  0.3349460434D-01
      0.2825394365D+01  0.2347269535D+00
      0.6401216923D+00  0.8137573261D+00
 S   1 1.00       0.000000000000
      0.1612777588D+00  0.1000000000D+01
 ****
     76 0
 S   3 1.00       0.000000000000
      0.1873113696D+02  0.3349460434D-01
      0.2825394365D+01  0.2347269535D+00
      0.6401216923D+00  0.8137573261D+00
 S   1 1.00       0.000000000000
      0.1612777588D+00  0.1000000000D+01
 ****

 AO basis set (Overlap normalization):
 Atom C1       Shell     1 S   6     bf    1 -     1         14.204828000867          4.065267126171         -0.105649901569
      0.3047524880D+04  0.1834737132D-02
      0.4573695180D+03  0.1403732281D-01
      0.1039486850D+03  0.6884262226D-01
      0.2921015530D+02  0.2321844432D+00
      0.9286662960D+01  0.4679413484D+00
      0.3163926960D+01  0.3623119853D+00
 Atom C1       Shell     2 SP   3    bf    2 -     5         14.204828000867          4.065267126171         -0.105649901569
      0.7868272350D+01 -0.1193324198D+00  0.6899906659D-01
      0.1881288540D+01 -0.1608541517D+00  0.3164239610D+00
      0.5442492580D+00  0.1143456438D+01  0.7443082909D+00
 Atom C1       Shell     3 SP   1    bf    6 -     9         14.204828000867          4.065267126171         -0.105649901569
      0.1687144782D+00  0.1000000000D+01  0.1000000000D+01
 Atom C1       Shell     4 D   1     bf   10 -    15         14.204828000867          4.065267126171         -0.105649901569
      0.8000000000D+00  0.1000000000D+01
 Atom H2       Shell     5 S   3     bf   16 -    16         14.012784488126          3.908486677858          1.952354472621
      0.1873113696D+02  0.3349460434D-01
      0.2825394365D+01  0.2347269535D+00
      0.6401216923D+00  0.8137573261D+00
 Atom H2       Shell     6 S   1     bf   17 -    17         14.012784488126          3.908486677858          1.952354472621
      0.1612777588D+00  0.1000000000D+01
 Atom C3       Shell     7 S   6     bf   18 -    18         12.781521634354          1.861721298665         -1.352315043777
      0.3047524880D+04  0.1834737132D-02
      0.4573695180D+03  0.1403732281D-01
      0.1039486850D+03  0.6884262226D-01
      0.2921015530D+02  0.2321844432D+00
      0.9286662960D+01  0.4679413484D+00
      0.3163926960D+01  0.3623119853D+00
 Atom C3       Shell     8 SP   3    bf   19 -    22         12.781521634354          1.861721298665         -1.352315043777
      0.7868272350D+01 -0.1193324198D+00  0.6899906659D-01
      0.1881288540D+01 -0.1608541517D+00  0.3164239610D+00
      0.5442492580D+00  0.1143456438D+01  0.7443082909D+00
 Atom C3       Shell     9 SP   1    bf   23 -    26         12.781521634354          1.861721298665         -1.352315043777
      0.1687144782D+00  0.1000000000D+01  0.1000000000D+01
 Atom C3       Shell    10 D   1     bf   27 -    32         12.781521634354          1.861721298665         -1.352315043777
      0.8000000000D+00  0.1000000000D+01
 Atom H4       Shell    11 S   3     bf   33 -    33         13.520562797978          0.065068089557         -0.642892068059
      0.1873113696D+02  0.3349460434D-01
      0.2825394365D+01  0.2347269535D+00
      0.6401216923D+00  0.8137573261D+00
 Atom H4       Shell    12 S   1     bf   34 -    34         13.520562797978          0.065068089557         -0.642892068059
      0.1612777588D+00  0.1000000000D+01
 Atom H5       Shell    13 S   3     bf   35 -    35         13.197564930297          1.913525532776         -3.390976653702
      0.1873113696D+02  0.3349460434D-01
      0.2825394365D+01  0.2347269535D+00
      0.6401216923D+00  0.8137573261D+00
 Atom H5       Shell    14 S   1     bf   36 -    36         13.197564930297          1.913525532776         -3.390976653702
      0.1612777588D+00  0.1000000000D+01
 Atom C6       Shell    15 S   6     bf   37 -    37          9.949301773651          2.007946190334         -0.925136347622
      0.3047524880D+04  0.1834737132D-02
      0.4573695180D+03  0.1403732281D-01
      0.1039486850D+03  0.6884262226D-01
      0.2921015530D+02  0.2321844432D+00
      0.9286662960D+01  0.4679413484D+00
      0.3163926960D+01  0.3623119853D+00
 Atom C6       Shell    16 SP   3    bf   38 -    41          9.949301773651          2.007946190334         -0.925136347622
      0.7868272350D+01 -0.1193324198D+00  0.6899906659D-01
      0.1881288540D+01 -0.1608541517D+00  0.3164239610D+00
      0.5442492580D+00  0.1143456438D+01  0.7443082909D+00
 Atom C6       Shell    17 SP   1    bf   42 -    45          9.949301773651          2.007946190334         -0.925136347622
      0.1687144782D+00  0.1000000000D+01  0.1000000000D+01
 Atom C6       Shell    18 D   1     bf   46 -    51          9.949301773651          2.007946190334         -0.925136347622
      0.8000000000D+00  0.1000000000D+01
 Atom C7       Shell    19 S   6     bf   52 -    52          8.658331189675          4.512760964069         -1.604379093087
      0.3047524880D+04  0.1834737132D-02
      0.4573695180D+03  0.1403732281D-01
      0.1039486850D+03  0.6884262226D-01
      0.2921015530D+02  0.2321844432D+00
      0.9286662960D+01  0.4679413484D+00
      0.3163926960D+01  0.3623119853D+00
 Atom C7       Shell    20 SP   3    bf   53 -    56          8.658331189675          4.512760964069         -1.604379093087
      0.7868272350D+01 -0.1193324198D+00  0.6899906659D-01
      0.1881288540D+01 -0.1608541517D+00  0.3164239610D+00
      0.5442492580D+00  0.1143456438D+01  0.7443082909D+00
 Atom C7       Shell    21 SP   1    bf   57 -    60          8.658331189675          4.512760964069         -1.604379093087
      0.1687144782D+00  0.1000000000D+01  0.1000000000D+01
 Atom C7       Shell    22 D   1     bf   61 -    66          8.658331189675          4.512760964069         -1.604379093087
      0.8000000000D+00  0.1000000000D+01
 Atom C8       Shell    23 S   6     bf   67 -    67         10.238414980940          6.706584452978         -0.428255726666
      0.3047524880D+04  0.1834737132D-02
      0.4573695180D+03  0.1403732281D-01
      0.1039486850D+03  0.6884262226D-01
      0.2921015530D+02  0.2321844432D+00
      0.9286662960D+01  0.4679413484D+00
      0.3163926960D+01  0.3623119853D+00
 Atom C8       Shell    24 SP   3    bf   68 -    71         10.238414980940          6.706584452978         -0.428255726666
      0.7868272350D+01 -0.1193324198D+00  0.6899906659D-01
      0.1881288540D+01 -0.1608541517D+00  0.3164239610D+00
      0.5442492580D+00  0.1143456438D+01  0.7443082909D+00
 Atom C8       Shell    25 SP   1    bf   72 -    75         10.238414980940          6.706584452978         -0.428255726666
      0.1687144782D+00  0.1000000000D+01  0.1000000000D+01
 Atom C8       Shell    26 D   1     bf   76 -    81         10.238414980940          6.706584452978         -0.428255726666
      0.8000000000D+00  0.1000000000D+01
 Atom H9       Shell    27 S   3     bf   82 -    82          9.960194438540          6.673530553989          1.628647541901
      0.1873113696D+02  0.3349460434D-01
      0.2825394365D+01  0.2347269535D+00
      0.6401216923D+00  0.8137573261D+00
 Atom H9       Shell    28 S   1     bf   83 -    83          9.960194438540          6.673530553989          1.628647541901
      0.1612777588D+00  0.1000000000D+01
 Atom H10      Shell    29 S   3     bf   84 -    84          9.493149135023          8.519856896356         -1.092366414533
      0.1873113696D+02  0.3349460434D-01
      0.2825394365D+01  0.2347269535D+00
      0.6401216923D+00  0.8137573261D+00
 Atom H10      Shell    30 S   1     bf   85 -    85          9.493149135023          8.519856896356         -1.092366414533
      0.1612777588D+00  0.1000000000D+01
 Atom C11      Shell    31 S   6     bf   86 -    86         13.088737813284          6.586171991962         -0.968123478645
      0.3047524880D+04  0.1834737132D-02
      0.4573695180D+03  0.1403732281D-01
      0.1039486850D+03  0.6884262226D-01
      0.2921015530D+02  0.2321844432D+00
      0.9286662960D+01  0.4679413484D+00
      0.3163926960D+01  0.3623119853D+00
 Atom C11      Shell    32 SP   3    bf   87 -    90         13.088737813284          6.586171991962         -0.968123478645
      0.7868272350D+01 -0.1193324198D+00  0.6899906659D-01
      0.1881288540D+01 -0.1608541517D+00  0.3164239610D+00
      0.5442492580D+00  0.1143456438D+01  0.7443082909D+00
 Atom C11      Shell    33 SP   1    bf   91 -    94         13.088737813284          6.586171991962         -0.968123478645
      0.1687144782D+00  0.1000000000D+01  0.1000000000D+01
 Atom C11      Shell    34 D   1     bf   95 -   100         13.088737813284          6.586171991962         -0.968123478645
      0.8000000000D+00  0.1000000000D+01
 Atom H12      Shell    35 S   3     bf  101 -   101         13.455565932199          6.830630687272         -2.999670137400
      0.1873113696D+02  0.3349460434D-01
      0.2825394365D+01  0.2347269535D+00
      0.6401216923D+00  0.8137573261D+00
 Atom H12      Shell    36 S   1     bf  102 -   102         13.455565932199          6.830630687272         -2.999670137400
      0.1612777588D+00  0.1000000000D+01
 Atom H13      Shell    37 S   3     bf  103 -   103         14.059514996543          8.138278539008          0.000000000000
      0.1873113696D+02  0.3349460434D-01
      0.2825394365D+01  0.2347269535D+00
      0.6401216923D+00  0.8137573261D+00
 Atom H13      Shell    38 S   1     bf  104 -   104         14.059514996543          8.138278539008          0.000000000000
      0.1612777588D+00  0.1000000000D+01
 Atom C14      Shell    39 S   6     bf  105 -   105          8.706640866632          0.000000000000          0.000000000000
      0.3047524880D+04  0.1834737132D-02
      0.4573695180D+03  0.1403732281D-01
      0.1039486850D+03  0.6884262226D-01
      0.2921015530D+02  0.2321844432D+00
      0.9286662960D+01  0.4679413484D+00
      0.3163926960D+01  0.3623119853D+00
 Atom C14      Shell    40 SP   3    bf  106 -   109          8.706640866632          0.000000000000          0.000000000000
      0.7868272350D+01 -0.1193324198D+00  0.6899906659D-01
      0.1881288540D+01 -0.1608541517D+00  0.3164239610D+00
      0.5442492580D+00  0.1143456438D+01  0.7443082909D+00
 Atom C14      Shell    41 SP   1    bf  110 -   113          8.706640866632          0.000000000000          0.000000000000
      0.1687144782D+00  0.1000000000D+01  0.1000000000D+01
 Atom C14      Shell    42 D   1     bf  114 -   119          8.706640866632          0.000000000000          0.000000000000
      0.8000000000D+00  0.1000000000D+01
 Atom H15      Shell    43 S   3     bf  120 -   120          9.759879235467         -1.711004112238          0.440293149852
      0.1873113696D+02  0.3349460434D-01
      0.2825394365D+01  0.2347269535D+00
      0.6401216923D+00  0.8137573261D+00
 Atom H15      Shell    44 S   1     bf  121 -   121          9.759879235467         -1.711004112238          0.440293149852
      0.1612777588D+00  0.1000000000D+01
 Atom C16      Shell    45 S   6     bf  122 -   122          5.914734665803         -0.084330993995          0.498975987087
      0.3047524880D+04  0.1834737132D-02
      0.4573695180D+03  0.1403732281D-01
      0.1039486850D+03  0.6884262226D-01
      0.2921015530D+02  0.2321844432D+00
      0.9286662960D+01  0.4679413484D+00
      0.3163926960D+01  0.3623119853D+00
 Atom C16      Shell    46 SP   3    bf  123 -   126          5.914734665803         -0.084330993995          0.498975987087
      0.7868272350D+01 -0.1193324198D+00  0.6899906659D-01
      0.1881288540D+01 -0.1608541517D+00  0.3164239610D+00
      0.5442492580D+00  0.1143456438D+01  0.7443082909D+00
 Atom C16      Shell    47 SP   1    bf  127 -   130          5.914734665803         -0.084330993995          0.498975987087
      0.1687144782D+00  0.1000000000D+01  0.1000000000D+01
 Atom C16      Shell    48 D   1     bf  131 -   136          5.914734665803         -0.084330993995          0.498975987087
      0.8000000000D+00  0.1000000000D+01
 Atom H17      Shell    49 S   3     bf  137 -   137          5.136252404449         -1.909062774438         -0.105056792125
      0.1873113696D+02  0.3349460434D-01
      0.2825394365D+01  0.2347269535D+00
      0.6401216923D+00  0.8137573261D+00
 Atom H17      Shell    50 S   1     bf  138 -   138          5.136252404449         -1.909062774438         -0.105056792125
      0.1612777588D+00  0.1000000000D+01
 Atom C18      Shell    51 S   6     bf  139 -   139          4.477373574559          2.078381045417         -0.812280428980
      0.3047524880D+04  0.1834737132D-02
      0.4573695180D+03  0.1403732281D-01
      0.1039486850D+03  0.6884262226D-01
      0.2921015530D+02  0.2321844432D+00
      0.9286662960D+01  0.4679413484D+00
      0.3163926960D+01  0.3623119853D+00
 Atom C18      Shell    52 SP   3    bf  140 -   143          4.477373574559          2.078381045417         -0.812280428980
      0.7868272350D+01 -0.1193324198D+00  0.6899906659D-01
      0.1881288540D+01 -0.1608541517D+00  0.3164239610D+00
      0.5442492580D+00  0.1143456438D+01  0.7443082909D+00
 Atom C18      Shell    53 SP   1    bf  144 -   147          4.477373574559          2.078381045417         -0.812280428980
      0.1687144782D+00  0.1000000000D+01  0.1000000000D+01
 Atom C18      Shell    54 D   1     bf  148 -   153          4.477373574559          2.078381045417         -0.812280428980
      0.8000000000D+00  0.1000000000D+01
 Atom H19      Shell    55 S   3     bf  154 -   154          4.450353363243          1.559720348122         -2.822940171555
      0.1873113696D+02  0.3349460434D-01
      0.2825394365D+01  0.2347269535D+00
      0.6401216923D+00  0.8137573261D+00
 Atom H19      Shell    56 S   1     bf  155 -   155          4.450353363243          1.559720348122         -2.822940171555
      0.1612777588D+00  0.1000000000D+01
 Atom C20      Shell    57 S   6     bf  156 -   156          5.914067913731          4.615226544823         -0.482717066898
      0.3047524880D+04  0.1834737132D-02
      0.4573695180D+03  0.1403732281D-01
      0.1039486850D+03  0.6884262226D-01
      0.2921015530D+02  0.2321844432D+00
      0.9286662960D+01  0.4679413484D+00
      0.3163926960D+01  0.3623119853D+00
 Atom C20      Shell    58 SP   3    bf  157 -   160          5.914067913731          4.615226544823         -0.482717066898
      0.7868272350D+01 -0.1193324198D+00  0.6899906659D-01
      0.1881288540D+01 -0.1608541517D+00  0.3164239610D+00
      0.5442492580D+00  0.1143456438D+01  0.7443082909D+00
 Atom C20      Shell    59 SP   1    bf  161 -   164          5.914067913731          4.615226544823         -0.482717066898
      0.1687144782D+00  0.1000000000D+01  0.1000000000D+01
 Atom C20      Shell    60 D   1     bf  165 -   170          5.914067913731          4.615226544823         -0.482717066898
      0.8000000000D+00  0.1000000000D+01
 Atom H21      Shell    61 S   3     bf  171 -   171          6.141234613371          4.869259537586          1.567717196684
      0.1873113696D+02  0.3349460434D-01
      0.2825394365D+01  0.2347269535D+00
      0.6401216923D+00  0.8137573261D+00
 Atom H21      Shell    62 S   1     bf  172 -   172          6.141234613371          4.869259537586          1.567717196684
      0.1612777588D+00  0.1000000000D+01
 Atom C22      Shell    63 S   6     bf  173 -   173          4.356886677231          6.894922704101         -1.452265776993
      0.3047524880D+04  0.1834737132D-02
      0.4573695180D+03  0.1403732281D-01
      0.1039486850D+03  0.6884262226D-01
      0.2921015530D+02  0.2321844432D+00
      0.9286662960D+01  0.4679413484D+00
      0.3163926960D+01  0.3623119853D+00
 Atom C22      Shell    64 SP   3    bf  174 -   177          4.356886677231          6.894922704101         -1.452265776993
      0.7868272350D+01 -0.1193324198D+00  0.6899906659D-01
      0.1881288540D+01 -0.1608541517D+00  0.3164239610D+00
      0.5442492580D+00  0.1143456438D+01  0.7443082909D+00
 Atom C22      Shell    65 SP   1    bf  178 -   181          4.356886677231          6.894922704101         -1.452265776993
      0.1687144782D+00  0.1000000000D+01  0.1000000000D+01
 Atom C22      Shell    66 D   1     bf  182 -   187          4.356886677231          6.894922704101         -1.452265776993
      0.8000000000D+00  0.1000000000D+01
 Atom H23      Shell    67 S   3     bf  188 -   188          4.325659311933          6.900980712549         -3.520621088282
      0.1873113696D+02  0.3349460434D-01
      0.2825394365D+01  0.2347269535D+00
      0.6401216923D+00  0.8137573261D+00
 Atom H23      Shell    68 S   1     bf  189 -   189          4.325659311933          6.900980712549         -3.520621088282
      0.1612777588D+00  0.1000000000D+01
 Atom H24      Shell    69 S   3     bf  190 -   190          5.294352675288          8.655266696394         -0.893106755787
      0.1873113696D+02  0.3349460434D-01
      0.2825394365D+01  0.2347269535D+00
      0.6401216923D+00  0.8137573261D+00
 Atom H24      Shell    70 S   1     bf  191 -   191          5.294352675288          8.655266696394         -0.893106755787
      0.1612777588D+00  0.1000000000D+01
 Atom C25      Shell    71 S   6     bf  192 -   192          1.604331490886          6.964936528201         -0.496326780021
      0.3047524880D+04  0.1834737132D-02
      0.4573695180D+03  0.1403732281D-01
      0.1039486850D+03  0.6884262226D-01
      0.2921015530D+02  0.2321844432D+00
      0.9286662960D+01  0.4679413484D+00
      0.3163926960D+01  0.3623119853D+00
 Atom C25      Shell    72 SP   3    bf  193 -   196          1.604331490886          6.964936528201         -0.496326780021
      0.7868272350D+01 -0.1193324198D+00  0.6899906659D-01
      0.1881288540D+01 -0.1608541517D+00  0.3164239610D+00
      0.5442492580D+00  0.1143456438D+01  0.7443082909D+00
 Atom C25      Shell    73 SP   1    bf  197 -   200          1.604331490886          6.964936528201         -0.496326780021
      0.1687144782D+00  0.1000000000D+01  0.1000000000D+01
 Atom C25      Shell    74 D   1     bf  201 -   206          1.604331490886          6.964936528201         -0.496326780021
      0.8000000000D+00  0.1000000000D+01
 Atom H26      Shell    75 S   3     bf  207 -   207          1.588020017414          7.264528323589          1.558930404804
      0.1873113696D+02  0.3349460434D-01
      0.2825394365D+01  0.2347269535D+00
      0.6401216923D+00  0.8137573261D+00
 Atom H26      Shell    76 S   1     bf  208 -   208          1.588020017414          7.264528323589          1.558930404804
      0.1612777588D+00  0.1000000000D+01
 Atom H27      Shell    77 S   3     bf  209 -   209          0.653302966167          8.599530905961         -1.341178528628
      0.1873113696D+02  0.3349460434D-01
      0.2825394365D+01  0.2347269535D+00
      0.6401216923D+00  0.8137573261D+00
 Atom H27      Shell    78 S   1     bf  210 -   210          0.653302966167          8.599530905961         -1.341178528628
      0.1612777588D+00  0.1000000000D+01
 Atom C28      Shell    79 S   6     bf  211 -   211          0.197453741967          4.487268067208         -1.097737696504
      0.3047524880D+04  0.1834737132D-02
      0.4573695180D+03  0.1403732281D-01
      0.1039486850D+03  0.6884262226D-01
      0.2921015530D+02  0.2321844432D+00
      0.9286662960D+01  0.4679413484D+00
      0.3163926960D+01  0.3623119853D+00
 Atom C28      Shell    80 SP   3    bf  212 -   215          0.197453741967          4.487268067208         -1.097737696504
      0.7868272350D+01 -0.1193324198D+00  0.6899906659D-01
      0.1881288540D+01 -0.1608541517D+00  0.3164239610D+00
      0.5442492580D+00  0.1143456438D+01  0.7443082909D+00
 Atom C28      Shell    81 SP   1    bf  216 -   219          0.197453741967          4.487268067208         -1.097737696504
      0.1687144782D+00  0.1000000000D+01  0.1000000000D+01
 Atom C28      Shell    82 D   1     bf  220 -   225          0.197453741967          4.487268067208         -1.097737696504
      0.8000000000D+00  0.1000000000D+01
 Atom C29      Shell    83 S   6     bf  226 -   226          1.746985820616          2.317927492131          0.142784607450
      0.3047524880D+04  0.1834737132D-02
      0.4573695180D+03  0.1403732281D-01
      0.1039486850D+03  0.6884262226D-01
      0.2921015530D+02  0.2321844432D+00
      0.9286662960D+01  0.4679413484D+00
      0.3163926960D+01  0.3623119853D+00
 Atom C29      Shell    84 SP   3    bf  227 -   230          1.746985820616          2.317927492131          0.142784607450
      0.7868272350D+01 -0.1193324198D+00  0.6899906659D-01
      0.1881288540D+01 -0.1608541517D+00  0.3164239610D+00
      0.5442492580D+00  0.1143456438D+01  0.7443082909D+00
 Atom C29      Shell    85 SP   1    bf  231 -   234          1.746985820616          2.317927492131          0.142784607450
      0.1687144782D+00  0.1000000000D+01  0.1000000000D+01
 Atom C29      Shell    86 D   1     bf  235 -   240          1.746985820616          2.317927492131          0.142784607450
      0.8000000000D+00  0.1000000000D+01
 Atom H30      Shell    87 S   3     bf  241 -   241          1.884213556092          2.822053115211          2.151241250607
      0.1873113696D+02  0.3349460434D-01
      0.2825394365D+01  0.2347269535D+00
      0.6401216923D+00  0.8137573261D+00
 Atom H30      Shell    88 S   1     bf  242 -   242          1.884213556092          2.822053115211          2.151241250607
      0.1612777588D+00  0.1000000000D+01
 Atom C31      Shell    89 S   6     bf  243 -   243          0.000000000000          0.000000000000          0.000000000000
      0.3047524880D+04  0.1834737132D-02
      0.4573695180D+03  0.1403732281D-01
      0.1039486850D+03  0.6884262226D-01
      0.2921015530D+02  0.2321844432D+00
      0.9286662960D+01  0.4679413484D+00
      0.3163926960D+01  0.3623119853D+00
 Atom C31      Shell    90 SP   3    bf  244 -   247          0.000000000000          0.000000000000          0.000000000000
      0.7868272350D+01 -0.1193324198D+00  0.6899906659D-01
      0.1881288540D+01 -0.1608541517D+00  0.3164239610D+00
      0.5442492580D+00  0.1143456438D+01  0.7443082909D+00
 Atom C31      Shell    91 SP   1    bf  248 -   251          0.000000000000          0.000000000000          0.000000000000
      0.1687144782D+00  0.1000000000D+01  0.1000000000D+01
 Atom C31      Shell    92 D   1     bf  252 -   257          0.000000000000          0.000000000000          0.000000000000
      0.8000000000D+00  0.1000000000D+01
 Atom H32      Shell    93 S   3     bf  258 -   258          0.451395782212         -1.394790814908          1.456543909088
      0.1873113696D+02  0.3349460434D-01
      0.2825394365D+01  0.2347269535D+00
      0.6401216923D+00  0.8137573261D+00
 Atom H32      Shell    94 S   1     bf  259 -   259          0.451395782212         -1.394790814908          1.456543909088
      0.1612777588D+00  0.1000000000D+01
 Atom H33      Shell    95 S   3     bf  260 -   260          0.182557389910         -0.952626855082         -1.833338254656
      0.1873113696D+02  0.3349460434D-01
      0.2825394365D+01  0.2347269535D+00
      0.6401216923D+00  0.8137573261D+00
 Atom H33      Shell    96 S   1     bf  261 -   261          0.182557389910         -0.952626855082         -1.833338254656
      0.1612777588D+00  0.1000000000D+01
 Atom C34      Shell    97 S   6     bf  262 -   262         -2.690709797941          1.138753540814          0.328143081715
      0.3047524880D+04  0.1834737132D-02
      0.4573695180D+03  0.1403732281D-01
      0.1039486850D+03  0.6884262226D-01
      0.2921015530D+02  0.2321844432D+00
      0.9286662960D+01  0.4679413484D+00
      0.3163926960D+01  0.3623119853D+00
 Atom C34      Shell    98 SP   3    bf  263 -   266         -2.690709797941          1.138753540814          0.328143081715
      0.7868272350D+01 -0.1193324198D+00  0.6899906659D-01
      0.1881288540D+01 -0.1608541517D+00  0.3164239610D+00
      0.5442492580D+00  0.1143456438D+01  0.7443082909D+00
 Atom C34      Shell    99 SP   1    bf  267 -   270         -2.690709797941          1.138753540814          0.328143081715
      0.1687144782D+00  0.1000000000D+01  0.1000000000D+01
 Atom C34      Shell   100 D   1     bf  271 -   276         -2.690709797941          1.138753540814          0.328143081715
      0.8000000000D+00  0.1000000000D+01
 Atom H35      Shell   101 S   3     bf  277 -   277         -3.943162094150          0.508514171873         -1.192726065587
      0.1873113696D+02  0.3349460434D-01
      0.2825394365D+01  0.2347269535D+00
      0.6401216923D+00  0.8137573261D+00
 Atom H35      Shell   102 S   1     bf  278 -   278         -3.943162094150          0.508514171873         -1.192726065587
      0.1612777588D+00  0.1000000000D+01
 Atom H36      Shell   103 S   3     bf  279 -   279         -3.574158333537          0.525320262263          2.096737221462
      0.1873113696D+02  0.3349460434D-01
      0.2825394365D+01  0.2347269535D+00
      0.6401216923D+00  0.8137573261D+00
 Atom H36      Shell   104 S   1     bf  280 -   280         -3.574158333537          0.525320262263          2.096737221462
      0.1612777588D+00  0.1000000000D+01
 Atom C37      Shell   105 S   6     bf  281 -   281         -2.374046537921          4.072785231516          0.311578479427
      0.3047524880D+04  0.1834737132D-02
      0.4573695180D+03  0.1403732281D-01
      0.1039486850D+03  0.6884262226D-01
      0.2921015530D+02  0.2321844432D+00
      0.9286662960D+01  0.4679413484D+00
      0.3163926960D+01  0.3623119853D+00
 Atom C37      Shell   106 SP   3    bf  282 -   285         -2.374046537921          4.072785231516          0.311578479427
      0.7868272350D+01 -0.1193324198D+00  0.6899906659D-01
      0.1881288540D+01 -0.1608541517D+00  0.3164239610D+00
      0.5442492580D+00  0.1143456438D+01  0.7443082909D+00
[...]
 1646 Fit      -0.000242
 1647 Fit       0.003222
 1648 Fit       0.003383
 1649 Fit       0.002243
 1650 Fit       0.000179
 1651 Fit      -0.001913
 1652 Fit       0.001394
 1653 Fit       0.002230
 1654 Fit       0.002133
 1655 Fit       0.000080
 1656 Fit      -0.001808
 1657 Fit       0.000244
 1658 Fit       0.000544
 1659 Fit       0.001305
 1660 Fit       0.002830
 1661 Fit       0.002195
 1662 Fit       0.000569
 1663 Fit      -0.001650
 1664 Fit       0.000903
 1665 Fit       0.001934
 1666 Fit       0.001605
 1667 Fit       0.000098
 1668 Fit      -0.001563
 1669 Fit       0.000000
 1670 Fit       0.000069
 1671 Fit      -0.001306
 1672 Fit      -0.000023
 1673 Fit      -0.001076
 1674 Fit       0.001008
 1675 Fit       0.002237
 1676 Fit      -0.000230
 1677 Fit       0.002030
 1678 Fit       0.003855
 1679 Fit      -0.001124
 1680 Fit       0.001401
 1681 Fit       0.001847
 1682 Fit      -0.001070
 1683 Fit       0.003585
 1684 Fit      -0.002540
 1685 Fit       0.000509
 1686 Fit       0.004887
 1687 Fit       0.006765
 1688 Fit       0.007186
 1689 Fit       0.001465
 1690 Fit      -0.013843
 1691 Fit      -0.009575
 1692 Fit      -0.001492
 1693 Fit       0.004508
 1694 Fit       0.005792
 1695 Fit       0.010653
 1696 Fit       0.007041
 1697 Fit      -0.001050
 1698 Fit      -0.009738
 1699 Fit       0.002210
 1700 Fit       0.003692
 1701 Fit       0.004062
 1702 Fit       0.007115
 1703 Fit       0.004329
 1704 Fit       0.003857
 1705 Fit      -0.003356
 1706 Fit       0.004958
 1707 Fit       0.000847
 1708 Fit      -0.007392
 1709 Fit       0.004054
 1710 Fit       0.001467
 1711 Fit      -0.003966
 1712 Fit       0.003202
 1713 Fit       0.003325
 1714 Fit       0.003948
 1715 Fit       0.005418
 1716 Fit       0.007394
 1717 Fit       0.011471
 1718 Fit       0.016244
 1719 Fit       0.008864
 1720 Fit       0.010916
 1721 Fit       0.005208
 1722 Fit       0.004841
 1723 Fit       0.005118
 1724 Fit       0.004705
 1725 Fit       0.005688
 1726 Fit       0.004767
 1727 Fit       0.004181
 1728 Fit       0.002934
 1729 Fit       0.002801
 1730 Fit       0.006245
 1731 Fit       0.004913
 1732 Fit       0.004611
 1733 Fit       0.004224
 1734 Fit       0.003926
 1735 Fit       0.005575
 1736 Fit       0.006638
 1737 Fit       0.007265
 1738 Fit       0.007726
 1739 Fit       0.008356
 1740 Fit       0.008583
 1741 Fit       0.009150
 1742 Fit       0.009149
 1743 Fit       0.006067
 1744 Fit       0.006104
 1745 Fit       0.007399
 1746 Fit       0.009288
 1747 Fit       0.006444
 1748 Fit       0.012332
 1749 Fit       0.009305
 1750 Fit       0.009027
 1751 Fit       0.017346
 1752 Fit       0.012337
 1753 Fit       0.010877
 1754 Fit       0.003159
 1755 Fit      -0.002783
 1756 Fit       0.001818
 1757 Fit       0.004398
 1758 Fit      -0.011426
 1759 Fit      -0.001951
 1760 Fit       0.002528
 1761 Fit       0.004473
 1762 Fit      -0.004056
 1763 Fit       0.001507
 1764 Fit       0.004048
 1765 Fit       0.005360
 1766 Fit      -0.001557
 1767 Fit       0.002450
 1768 Fit       0.004467
 1769 Fit       0.005917
 1770 Fit       0.004719
 1771 Fit       0.010754
 1772 Fit       0.001115
 1773 Fit       0.000516
 1774 Fit      -0.000286
 1775 Fit       0.001316
 1776 Fit      -0.000615
 1777 Fit       0.005174
 1778 Fit       0.008478
 1779 Fit      -0.005457
 1780 Fit       0.001934
 1781 Fit       0.005635
 1782 Fit      -0.000314
 1783 Fit       0.002716
 1784 Fit       0.005133
 1785 Fit       0.001304
 1786 Fit       0.002840
 1787 Fit      -0.010384
 1788 Fit      -0.010870
 1789 Fit      -0.002778
 1790 Fit      -0.002275
 1791 Fit      -0.001786
 1792 Fit       0.001805
 1793 Fit       0.001912
 1794 Fit       0.002016
 1795 Fit       0.004641
 1796 Fit       0.003775
 1797 Fit       0.006004
 1798 Fit       0.005627
 1799 Fit       0.006969
 1800 Fit      -0.006166
 1801 Fit       0.000023
 1802 Fit       0.001426
 1803 Fit      -0.001212
 1804 Fit      -0.008772
 1805 Fit       0.002577
 1806 Fit       0.004532
 1807 Fit       0.005696
 1808 Fit       0.004951
 1809 Fit       0.005865
 1810 Fit       0.006624
 1811 Fit       0.004007
 1812 Fit       0.005425
 1813 Fit       0.003760
 1814 Fit       0.006133
 1815 Fit       0.004129
 1816 Fit       0.006733
 1817 Fit       0.004668
 1818 Fit       0.007844
 1819 Fit       0.005164
 1820 Fit       0.001511
 1821 Fit      -0.000421
 1822 Fit       0.001394
 1823 Fit      -0.000087
 1824 Fit      -0.000289
 1825 Fit       0.001140
 1826 Fit       0.001244
 1827 Fit       0.001095
 1828 Fit       0.002158
 1829 Fit       0.001551
 1830 Fit       0.000820
 1831 Fit      -0.001134
 1832 Fit       0.001884
 1833 Fit       0.000807
 1834 Fit       0.003568
 1835 Fit       0.003588
 1836 Fit       0.004431
 1837 Fit       0.004920
 1838 Fit       0.004890
 1839 Fit       0.005904
 1840 Fit      -0.014264
 1841 Fit      -0.008781
 1842 Fit      -0.004938
 1843 Fit      -0.007905
 1844 Fit      -0.018161
 1845 Fit      -0.006183
 1846 Fit      -0.004508
 1847 Fit      -0.004936
 1848 Fit      -0.004860
 1849 Fit      -0.019713
 1850 Fit      -0.013370
 1851 Fit      -0.008447
 1852 Fit      -0.012437
 1853 Fit      -0.007055
 1854 Fit      -0.008567
 1855 Fit      -0.012617
 1856 Fit      -0.006668
 1857 Fit      -0.007333
 1858 Fit      -0.001945
 1859 Fit      -0.001977
 1860 Fit      -0.000989
 1861 Fit       0.001009
 1862 Fit       0.000988
 1863 Fit       0.002263
 1864 Fit       0.004901
 1865 Fit       0.005117
 1866 Fit       0.002820
 1867 Fit       0.003544
 1868 Fit      -0.010196
 1869 Fit      -0.002675
 1870 Fit      -0.003491
 1871 Fit      -0.004436
 1872 Fit      -0.005658
 1873 Fit      -0.004369
 1874 Fit      -0.002274
 1875 Fit      -0.002394
 1876 Fit      -0.003224
 1877 Fit      -0.000039
 1878 Fit      -0.000728
 1879 Fit      -0.001788
 1880 Fit       0.001748
 1881 Fit       0.000943
 1882 Fit       0.003673
 1883 Fit      -0.003970
 1884 Fit      -0.008248
 1885 Fit      -0.004037
 1886 Fit      -0.001868
 1887 Fit      -0.001819
 1888 Fit      -0.003465
 1889 Fit      -0.006838
 1890 Fit      -0.000784
 1891 Fit      -0.001587
 1892 Fit      -0.002820
 1893 Fit      -0.004943
 1894 Fit      -0.001623
 1895 Fit      -0.002483
 1896 Fit      -0.003523
 1897 Fit      -0.005111
 1898 Fit      -0.001911
 1899 Fit      -0.003437
 1900 Fit      -0.000167
 1901 Fit       0.000300
 1902 Fit      -0.000873
 1903 Fit      -0.002928
 1904 Fit      -0.005669
 1905 Fit       0.003608
 1906 Fit       0.002775
 1907 Fit       0.001971
 1908 Fit       0.000106
 1909 Fit       0.000437
 1910 Fit       0.001691
 1911 Fit       0.000863
 1912 Fit       0.006236
 1913 Fit       0.005851
 1914 Fit       0.004115
 1915 Fit       0.004567
 1916 Fit       0.002676
 1917 Fit       0.002770
 1918 Fit       0.002861
 1919 Fit       0.002757
 1920 Fit       0.000054
 1921 Fit       0.001474
 1922 Fit       0.005492
 1923 Fit       0.006062
 1924 Fit       0.004375
 1925 Fit       0.004860
 1926 Fit       0.003000
 1927 Fit       0.003197
 1928 Fit       0.001439
 1929 Fit       0.001365
 1930 Fit      -0.000103
 1931 Fit       0.000546
 1932 Fit      -0.000250
 1933 Fit       0.000396
 1934 Fit      -0.000424
 1935 Fit       0.000253
 1936 Fit      -0.000328
 1937 Fit      -0.001295
 1938 Fit      -0.001554
 1939 Fit      -0.002279
 1940 Fit      -0.001557
 1941 Fit      -0.001503
 1942 Fit      -0.001497
 1943 Fit      -0.000559
 1944 Fit      -0.001073
 1945 Fit      -0.001650
 1946 Fit      -0.001240
 1947 Fit      -0.001528
 1948 Fit      -0.001383
 1949 Fit      -0.000954
 1950 Fit       0.001817
 1951 Fit       0.004629
 1952 Fit       0.002424
 1953 Fit       0.000414
 1954 Fit       0.003065
 1955 Fit       0.001239
 1956 Fit      -0.000688
 1957 Fit      -0.000337
 1958 Fit       0.000874
 1959 Fit       0.000012
 1960 Fit       0.001308
 1961 Fit      -0.000007
 1962 Fit       0.002755
 1963 Fit       0.001413
 1964 Fit      -0.000025
 1965 Fit       0.001368
 1966 Fit       0.001015
 1967 Fit      -0.000120
 1968 Fit      -0.000932
 1969 Fit      -0.000212
 1970 Fit      -0.001127
 1971 Fit       0.000596
 1972 Fit       0.002372
 1973 Fit       0.000461
 1974 Fit       0.002172
 1975 Fit       0.003645
 1976 Fit       0.000137
 1977 Fit       0.001019
 1978 Fit       0.009980
 1979 Fit       0.005243
 1980 Fit       0.005863
 1981 Fit       0.006449
 1982 Fit       0.006196
 1983 Fit       0.005446
 1984 Fit       0.005243
 1985 Fit       0.006040
 1986 Fit       0.005374
 1987 Fit       0.009268
 1988 Fit       0.009063
 1989 Fit       0.008515
 1990 Fit       0.008545
 1991 Fit       0.008097
 1992 Fit       0.007942
 1993 Fit       0.007510
 1994 Fit       0.006914
 1995 Fit       0.006672
 1996 Fit       0.016208
 1997 Fit       0.013772
 1998 Fit       0.009842
 1999 Fit       0.009670
 2000 Fit       0.014301
 2001 Fit       0.010632
 2002 Fit       0.008627
 2003 Fit       0.008687
 2004 Fit       0.007122
 2005 Fit       0.006344
 2006 Fit       0.003102
 2007 Fit       0.007608
 2008 Fit       0.006237
 2009 Fit       0.005250
 2010 Fit       0.006213
 2011 Fit       0.006317
 2012 Fit       0.005681
 2013 Fit       0.005474
 2014 Fit      -0.004119
 2015 Fit      -0.014886
 2016 Fit      -0.004206
 2017 Fit      -0.011100
 2018 Fit      -0.015049
 2019 Fit      -0.018727
 2020 Fit      -0.023303
 2021 Fit      -0.000806
 2022 Fit      -0.003404
 2023 Fit      -0.008565
 2024 Fit      -0.015506
 2025 Fit      -0.012147
 2026 Fit      -0.000571
 2027 Fit      -0.021793
 2028 Fit      -0.023130
 2029 Fit      -0.022009
 2030 Fit      -0.018039
 2031 Fit      -0.010806
 2032 Fit      -0.000590
 2033 Fit      -0.025212
 2034 Fit      -0.023874
 2035 Fit      -0.020971
 2036 Fit      -0.015625
 2037 Fit      -0.007853
 2038 Fit       0.002207
 2039 Fit      -0.022058
 2040 Fit      -0.021602
 2041 Fit      -0.019075
 2042 Fit      -0.014434
 2043 Fit      -0.007730
 2044 Fit       0.000920
 2045 Fit      -0.017710
 2046 Fit      -0.015966
 2047 Fit      -0.011339
 2048 Fit       0.006276
 2049 Fit       0.013628
 2050 Fit       0.011108
 2051 Fit       0.001832
 2052 Fit       0.008363
 2053 Fit       0.016777
 2054 Fit       0.016153
 2055 Fit       0.011419
 2056 Fit       0.001782
 2057 Fit       0.006756
 2058 Fit       0.013793
 2059 Fit       0.016555
 2060 Fit       0.016107
 2061 Fit       0.012711
 2062 Fit       0.004240
 2063 Fit       0.008521
 2064 Fit       0.014339
 2065 Fit       0.013985
 2066 Fit       0.012425
 2067 Fit      -0.020024
 2068 Fit      -0.015800
 2069 Fit      -0.016185
 2070 Fit      -0.023891
 2071 Fit      -0.022466
 2072 Fit      -0.018185
 2073 Fit      -0.011628
 2074 Fit      -0.019555
 2075 Fit      -0.023185
 2076 Fit      -0.022010
 2077 Fit      -0.021060
 2078 Fit      -0.018789
 2079 Fit      -0.013433
 2080 Fit      -0.016691
 2081 Fit      -0.021057
 2082 Fit      -0.022244
 2083 Fit      -0.014625
 2084 Fit      -0.013747
 2085 Fit      -0.012561
 2086 Fit      -0.009943
 2087 Fit      -0.014391
 2088 Fit      -0.015937
 2089 Fit      -0.015553
 2090 Fit      -0.002294
 2091 Fit      -0.000027
 2092 Fit       0.001773
 2093 Fit      -0.004571
 2094 Fit      -0.005454
 2095 Fit      -0.004102
 2096 Fit       0.003043
 2097 Fit       0.004110
 2098 Fit       0.005186
 2099 Fit       0.006930
 2100 Fit       0.000367
 2101 Fit       0.001622
 2102 Fit       0.012963
 2103 Fit       0.014078
 2104 Fit       0.015640
 2105 Fit       0.012075
 2106 Fit       0.012057
 2107 Fit       0.019319
 2108 Fit       0.021001
 2109 Fit       0.019369
 2110 Fit       0.023419
 2111 Fit       0.001243
 2112 Fit       0.001439
 2113 Fit       0.001786
 2114 Fit       0.000876
 2115 Fit       0.000514
 2116 Fit       0.001114
 2117 Fit      -0.000819
 2118 Fit       0.004478
 2119 Fit       0.005241
 2120 Fit       0.003409
 2121 Fit       0.000443
 2122 Fit       0.002661
 2123 Fit       0.003365
 2124 Fit       0.001269
 2125 Fit       0.000767
 2126 Fit       0.001998
 2127 Fit       0.000846
 2128 Fit       0.000919
 2129 Fit       0.001349
 2130 Fit       0.001093
 2131 Fit       0.000650
 2132 Fit       0.001195
 2133 Fit       0.001096
 2134 Fit       0.001001
 2135 Fit       0.000421
 2136 Fit       0.000549
 2137 Fit       0.000579
 2138 Fit      -0.000054
 2139 Fit      -0.000103
 2140 Fit       0.000859
 2141 Fit      -0.001474
 2142 Fit      -0.001767
 2143 Fit      -0.000653
 2144 Fit      -0.000481
 2145 Fit       0.001582
 2146 Fit       0.001530
 2147 Fit       0.001711
 2148 Fit       0.003480
 2149 Fit       0.002935
 2150 Fit       0.002973
 2151 Fit       0.003419
 2152 Fit       0.003137
 2153 Fit       0.002412
 2154 Fit       0.001836
 2155 Fit       0.001901
 2156 Fit       0.001200
 2157 Fit       0.001122
 2158 Fit       0.001623
 2159 Fit       0.001427
 2160 Fit       0.001161
 2161 Fit       0.000094
 2162 Fit      -0.000209
 2163 Fit      -0.000948
 2164 Fit       0.000350
 2165 Fit       0.000492
 2166 Fit       0.000959
 2167 Fit       0.000839
 2168 Fit       0.000349
 2169 Fit       0.000784
 2170 Fit       0.001120
 2171 Fit       0.001405
 2172 Fit       0.000649
 2173 Fit       0.000239
 2174 Fit       0.000409
 2175 Fit       0.000767
 2176 Fit      -0.000122
 2177 Fit      -0.001244
 2178 Fit      -0.001872
 2179 Fit      -0.000795
 2180 Fit      -0.002212
 2181 Fit      -0.002035
 2182 Fit      -0.001411
 2183 Fit      -0.001515
 2184 Fit      -0.001712
 2185 Fit      -0.002033
 2186 Fit      -0.002230
 2187 Fit      -0.001660
 2188 Fit      -0.001584
 2189 Fit      -0.000764
 2190 Fit      -0.000762
 2191 Fit      -0.001345
 2192 Fit       0.000330
 2193 Fit       0.000922
 2194 Fit       0.000831
 2195 Fit       0.000143
 2196 Fit      -0.000955
 2197 Fit       0.002289
 2198 Fit       0.002140
 2199 Fit       0.001570
 2200 Fit       0.000392
 2201 Fit      -0.001162
 2202 Fit       0.003161
 2203 Fit       0.002284
 2204 Fit      -0.000862
 2205 Fit      -0.000517
 2206 Fit      -0.000808
 2207 Fit       0.000528
 2208 Fit       0.000996
 2209 Fit       0.000532
 2210 Fit      -0.000342
 2211 Fit       0.001018
 2212 Fit       0.001776
 2213 Fit       0.001845
 2214 Fit       0.001142
 2215 Fit      -0.000655
 2216 Fit       0.000768
 2217 Fit       0.001853
 2218 Fit      -0.000209
 2219 Fit       0.000782
 2220 Fit       0.001559
 2221 Fit       0.000551
 2222 Fit      -0.000503
 2223 Fit      -0.000558
 2224 Fit       0.000520
 2225 Fit       0.001598
 2226 Fit       0.001486
 2227 Fit       0.000588
 2228 Fit      -0.000507
 2229 Fit      -0.001541
 2230 Fit       0.000934
 2231 Fit       0.002210
 2232 Fit       0.000410
 2233 Fit      -0.000387
 2234 Fit      -0.001310
 2235 Fit      -0.000781
 2236 Fit      -0.001120
 2237 Fit      -0.001649
 2238 Fit      -0.001583
 2239 Fit      -0.001616
 2240 Fit      -0.001838
 2241 Fit      -0.002020
 2242 Fit      -0.001609
 2243 Fit       0.000663
 2244 Fit      -0.001702
 2245 Fit      -0.000886
 2246 Fit      -0.000340
 2247 Fit       0.003355
 2248 Fit       0.002572
 2249 Fit       0.000851
 2250 Fit      -0.000863
 2251 Fit       0.002722
 2252 Fit       0.002775
 2253 Fit       0.001887
 2254 Fit       0.000385
 2255 Fit      -0.001150
 2256 Fit       0.001538
 2257 Fit       0.001797
 2258 Fit       0.001624
 2259 Fit       0.000141
 2260 Fit      -0.001146
 2261 Fit       0.000465
 2262 Fit       0.000489
 2263 Fit       0.001022
 2264 Fit       0.002547
 2265 Fit       0.001698
 2266 Fit       0.000512
 2267 Fit       0.001756
 2268 Fit       0.001722
 2269 Fit       0.000945
 2270 Fit      -0.000359
 2271 Fit      -0.000355
 2272 Fit       0.000727
 2273 Fit       0.000914
 2274 Fit       0.000251
 2275 Fit      -0.000957
 2276 Fit      -0.000610
 2277 Fit      -0.000567
 2278 Fit      -0.001427
 2279 Fit      -0.000285
 2280 Fit      -0.000478
 2281 Fit       0.000660
 2282 Fit       0.000756
 2283 Fit       0.000106
 2284 Fit       0.001511
 2285 Fit       0.002735
 2286 Fit      -0.000219
 2287 Fit       0.001451
 2288 Fit       0.002892
 2289 Fit      -0.000907
 2290 Fit       0.000860
 2291 Fit       0.001194
 -----------------------------------------------------------------
 Leave Link  602 at Wed Apr 26 13:34:18 2017, MaxMem=    33554432 cpu:         3.5
 (Enter /home/michal/g09/l9999.exe)

 Test job not archived.
 1\1\GINC-LINUX\SP\RHF\6-31G(d)\C27H46O3\MICHAL\26-Apr-2017\0\\#P HF/6-
 31G* SCF(Conver=6) NoSymm Test Pop=mk IOp(6/33=2) GFInput GFPrint\\MEP
  - Input generated by R.E.D.-III.x MOLECULE\\0,1\C,0,7.51687123,2.1512
 4671,-0.05590752\H,0,7.41524618,2.06828207,1.03314149\C,0,6.76368994,0
 .98518048,-0.7156143\H,0,7.15477368,0.03443255,-0.34020383\H,0,6.98385
 057,1.0125941,-1.79442756\C,0,5.26494374,1.06255936,-0.48956107\C,0,4.
 58179153,2.38805025,-0.84900085\C,0,5.41793586,3.54897164,-0.22662317\
 H,0,5.27070789,3.53148027,0.86184316\H,0,5.02355816,4.50851409,-0.5780
 5541\C,0,6.92626174,3.48525211,-0.51230888\H,0,7.12037882,3.61461408,-
 1.58735707\H,0,7.4399749,4.30659152,0.\C,0,4.60735591,0.,0.\H,0,5.1647
 0565,-0.90542438,0.2329931\C,0,3.12994278,-0.04462604,0.26404672\H,0,2
 .71798771,-1.01023251,-0.05559366\C,0,2.36932405,1.09983188,-0.4298402
 9\H,0,2.35502557,0.82536846,-1.4938356\C,0,3.12958995,2.4422727,-0.255
 44287\H,0,3.24980139,2.57670117,0.82960021\C,0,2.30556513,3.64863595,-
 0.76850595\H,0,2.28904032,3.65184171,-1.86303244\H,0,2.80165077,4.5801
 6987,-0.47261174\C,0,0.84897566,3.68568567,-0.26264482\H,0,0.840344,3.
 84422282,0.82495044\H,0,0.34571304,4.55067576,-0.70972111\C,0,0.104488
 02,2.37455999,-0.58089777\C,0,0.92446508,1.2265944,0.07555836\H,0,0.99
 708287,1.49336619,1.13838784\C,0,0.,0.,0.\H,0,0.23886836,-0.73809151,0
 .77076984\H,0,0.09660521,-0.50410842,-0.97016082\C,0,-1.4238623,0.6026
 0242,0.17364584\H,0,-2.08663151,0.26909411,-0.63116345\H,0,-1.89136313
 ,0.27798751,1.10954555\C,0,-1.25629132,2.15522512,0.16488023\H,0,-1.04
 490825,2.44773735,1.20448115\C,0,-0.03599662,2.19520311,-2.11004028\H,
 0,0.92989461,2.04253397,-2.59881088\H,0,-0.66584585,1.34032532,-2.3696
 8126\H,0,-0.48486463,3.08410794,-2.563195\C,0,-2.56842217,2.91913599,-
 0.17986027\H,0,-3.29448136,2.51336599,0.54396873\C,0,-3.17549888,2.669
 7511,-1.57539541\H,0,-2.65265155,3.22995361,-2.35654038\H,0,-4.2235048
 6,2.98485445,-1.59613512\H,0,-3.1568875,1.61223679,-1.85405444\C,0,4.5
 7194761,2.52457171,-2.39647563\H,0,4.27976028,3.53270255,-2.70490355\H
 ,0,5.55769883,2.33061155,-2.82586839\H,0,3.87736193,1.81237575,-2.8525
 9027\O,0,2.8505338,0.07027049,1.68678035\O,0,3.34584361,-1.13626674,2.
 33217384\H,0,4.11862887,-0.78749637,2.80664592\O,0,8.92623697,2.067471
 48,-0.28217555\H,0,9.09424221,2.16054431,-1.23047705\C,0,-2.46455164,4
 .43206552,0.119892\H,0,-1.9053171,4.57055451,1.05548593\H,0,-1.8720173
 3,4.92201646,-0.66491663\C,0,-3.81266281,5.1590831,0.25002731\H,0,-4.3
 6747159,5.08203724,-0.69198044\H,0,-4.42309593,4.65035888,1.01132406\C
 ,0,-3.65523424,6.63706959,0.63733989\H,0,-3.08001999,7.15903326,-0.142
 99757\H,0,-3.0472884,6.6956977,1.55161579\C,0,-4.9716296,7.40363632,0.
 87910961\H,0,-5.54866876,6.843177,1.63097741\C,0,-4.68431862,8.7992445
 1,1.45545122\H,0,-4.10540546,9.40348891,0.74509068\H,0,-5.61288535,9.3
 4019652,1.67071593\H,0,-4.10837637,8.73709513,2.38591095\C,0,-5.832947
 33,7.51386683,-0.38958067\H,0,-5.28961049,8.04411729,-1.18271585\H,0,-
 6.75456765,8.07221408,-0.18947042\H,0,-6.12094555,6.53280926,-0.780166
 99\\Version=EM64L-G09RevD.01\HF=-1273.6797515\RMSD=5.682e-07\Dipole=0.
 1123565,0.5105537,-0.7972321\Quadrupole=-5.1520437,1.5786908,3.5733529
 ,2.2400851,-8.3495193,-1.672717\PG=C01 [X(C27H46O3)]\\@


 LIVE PURE, SPEAK TRUE, RIGHT WRONG, FOLLOW THE KING...
 ELSE, WHEREFORE BORN......
           IDYLLS OF THE KING, TENNYSON
 Job cpu time:       0 days  0 hours 12 minutes  5.6 seconds.
 File lengths (MBytes):  RWF=    159 Int=      0 D2E=      0 Chk=     11 Scr=      1
 Normal termination of Gaussian 09 at Wed Apr 26 13:34:18 2017.
