 Entering Gaussian System, Link 0=/home/michal/g09/g09
 Input=JOB2-gau_m1-1-1.com
 Output=JOB2-gau_m1-1-1.log
 Initial command:
 /home/michal/g09/l1.exe "/home/michal/gauss_scratch/Gau-4442.inp" -scrdir="/home/michal/gauss_scratch/"
 Entering Link 1 = /home/michal/g09/l1.exe PID=      4443.
  
 Copyright (c) 1988,1990,1992,1993,1995,1998,2003,2009,2013,
            Gaussian, Inc.  All Rights Reserved.
  
 This is part of the Gaussian(R) 09 program.  It is based on
 the Gaussian(R) 03 system (copyright 2003, Gaussian, Inc.),
 the Gaussian(R) 98 system (copyright 1998, Gaussian, Inc.),
 the Gaussian(R) 94 system (copyright 1995, Gaussian, Inc.),
 the Gaussian 92(TM) system (copyright 1992, Gaussian, Inc.),
 the Gaussian 90(TM) system (copyright 1990, Gaussian, Inc.),
 the Gaussian 88(TM) system (copyright 1988, Gaussian, Inc.),
 the Gaussian 86(TM) system (copyright 1986, Carnegie Mellon
 University), and the Gaussian 82(TM) system (copyright 1983,
 Carnegie Mellon University). Gaussian is a federally registered
 trademark of Gaussian, Inc.
  
 This software contains proprietary and confidential information,
 including trade secrets, belonging to Gaussian, Inc.
  
 This software is provided under written license and may be
 used, copied, transmitted, or stored only in accord with that
 written license.
  
 The following legend is applicable only to US Government
 contracts under FAR:
  
                    RESTRICTED RIGHTS LEGEND
  
 Use, reproduction and disclosure by the US Government is
 subject to restrictions as set forth in subparagraphs (a)
 and (c) of the Commercial Computer Software - Restricted
 Rights clause in FAR 52.227-19.
  
 Gaussian, Inc.
 340 Quinnipiac St., Bldg. 40, Wallingford CT 06492
  
  
 ---------------------------------------------------------------
 Warning -- This program may not be used in any manner that
 competes with the business of Gaussian, Inc. or will provide
 assistance to any competitor of Gaussian, Inc.  The licensee
 of this program is prohibited from giving any competitor of
 Gaussian, Inc. access to this program.  By using this program,
 the user acknowledges that Gaussian, Inc. is engaged in the
 business of creating and licensing software in the field of
 computational chemistry and represents and warrants to the
 licensee that it is not a competitor of Gaussian, Inc. and that
 it will not use this program in any manner prohibited above.
 ---------------------------------------------------------------
  

 Cite this work as:
 Gaussian 09, Revision D.01,
 M. J. Frisch, G. W. Trucks, H. B. Schlegel, G. E. Scuseria, 
 M. A. Robb, J. R. Cheeseman, G. Scalmani, V. Barone, B. Mennucci, 
 G. A. Petersson, H. Nakatsuji, M. Caricato, X. Li, H. P. Hratchian, 
 A. F. Izmaylov, J. Bloino, G. Zheng, J. L. Sonnenberg, M. Hada, 
 M. Ehara, K. Toyota, R. Fukuda, J. Hasegawa, M. Ishida, T. Nakajima, 
 Y. Honda, O. Kitao, H. Nakai, T. Vreven, J. A. Montgomery, Jr., 
 J. E. Peralta, F. Ogliaro, M. Bearpark, J. J. Heyd, E. Brothers, 
 K. N. Kudin, V. N. Staroverov, T. Keith, R. Kobayashi, J. Normand, 
 K. Raghavachari, A. Rendell, J. C. Burant, S. S. Iyengar, J. Tomasi, 
 M. Cossi, N. Rega, J. M. Millam, M. Klene, J. E. Knox, J. B. Cross, 
 V. Bakken, C. Adamo, J. Jaramillo, R. Gomperts, R. E. Stratmann, 
 O. Yazyev, A. J. Austin, R. Cammi, C. Pomelli, J. W. Ochterski, 
 R. L. Martin, K. Morokuma, V. G. Zakrzewski, G. A. Voth, 
 P. Salvador, J. J. Dannenberg, S. Dapprich, A. D. Daniels, 
 O. Farkas, J. B. Foresman, J. V. Ortiz, J. Cioslowski, 
 and D. J. Fox, Gaussian, Inc., Wallingford CT, 2013.
 
 ******************************************
 Gaussian 09:  EM64L-G09RevD.01 24-Apr-2013
                26-Apr-2017 
 ******************************************
 %Mem=256MB
 %NProc=12
 Will use up to   12 processors via shared memory.
 ----------------------------------------------------------------------
 #P HF/6-31G* SCF(Conver=6) NoSymm Test Pop=mk IOp(6/33=2) GFInput GFPr
 int
 ----------------------------------------------------------------------
 1/38=1/1;
 2/12=2,15=1,17=6,18=5,40=1/2;
 3/5=1,6=6,7=1,11=9,16=1,24=110,25=1,30=1/1,2,3;
 4//1;
 5/5=2,6=6,38=5/2;
 6/7=2,8=2,9=2,10=2,15=8,20=1,28=1,33=2/1,2;
 99/5=1,9=1/99;
 Leave Link    1 at Wed Apr 26 13:16:03 2017, MaxMem=    33554432 cpu:         0.6
 (Enter /home/michal/g09/l101.exe)
 ----------------------------------------------
 MEP - Input generated by R.E.D.-III.x MOLECULE
 ----------------------------------------------
 Symbolic Z-matrix:
 Charge =  0 Multiplicity = 1
 C                     1.75819  -1.2493    0.05058 
 H                     1.88302  -1.20498  -1.03831 
 C                     3.14655  -1.26395   0.70984 
 H                     3.72597  -2.11115   0.32993 
 H                     3.003    -1.43845   1.7878 
 C                     3.90532   0.0319    0.49026 
 C                     3.17344   1.32905   0.8569 
 C                     1.74411   1.27178   0.23433 
 H                     1.83958   1.39099  -0.85352 
 H                     1.1592    2.12679   0.59024 
 C                     0.96816  -0.02493   0.51283 
 H                     0.75255  -0.12169   1.58721 
 H                     0.        0.        0. 
 C                     5.15418   0.        0. 
 H                     5.60437  -0.96192  -0.23821 
 C                     6.00284   1.21123  -0.25854 
 H                     7.03615   1.02384   0.05984 
 C                     5.46467   2.47274   0.44039 
 H                     5.70443   2.33283   1.50394 
 C                     3.92566   2.57522   0.26943 
 H                     3.74526   2.55513  -0.81541 
 C                     3.37537   3.92364   0.79234 
 H                     3.38269   3.93024   1.887 
 H                     2.32434   4.02693   0.49875 
 C                     4.14663   5.16432   0.29688 
 H                     4.01974   5.26799  -0.79017 
 H                     3.69602   6.0533    0.74985 
 C                     5.65354   5.06271   0.60976 
 C                     6.15119   3.75218  -0.06129 
 H                     5.87935   3.85071  -1.1212 
 C                     7.68276   3.84087   0. 
 H                     8.15727   3.2411   -0.78158 
 H                     8.05941   3.47164   0.96255 
 C                     7.96739   5.36021  -0.16141 
 H                     8.61996   5.72058   0.64265 
 H                     8.4898    5.57259  -1.09937 
 C                     6.58766   6.09625  -0.11069 
 H                     6.2061    6.17277  -1.13938 
 C                     5.90037   5.08836   2.13513 
 H                     5.43087   4.24595   2.64966 
 H                     6.96701   5.05909   2.3773 
 H                     5.49078   6.0029    2.57732 
 C                     6.70493   7.53675   0.44605 
 H                     7.09267   7.46084   1.47254 
 C                     5.36077   8.28564   0.52088 
 H                     4.82384   8.25938  -0.43395 
 H                     5.5233    9.3384    0.78092 
 H                     4.69862   7.86324   1.28105 
 C                     3.06524   1.40366   2.40483 
 H                     2.38255   2.19905   2.71806 
 H                     2.68697   0.47061   2.82918 
 H                     4.04197   1.5912    2.86157 
 O                     6.05956   1.51409  -1.67998 
 O                     6.79902   0.44229  -2.32971 
 H                     6.08489  -0.0108   -2.80789 
 O                     1.05381  -2.47389   0.2713 
 H                     0.8845   -2.56787   1.21928 
 C                     7.75121   8.38176  -0.32928 
 H                     7.83928   9.35063   0.18311 
 H                     8.73754   7.90931  -0.24141 
 C                     7.46199   8.64272  -1.81711 
 H                     7.40649   7.68853  -2.35507 
 H                     6.47878   9.1166   -1.9242 
 C                     8.5364    9.5345   -2.46122 
 H                     9.51797   9.05868  -2.32134 
 H                     8.58037   10.48458  -1.90905 
 C                     8.36284   9.85427  -3.96432 
 H                     9.21214   10.4992  -4.23474 
 C                     8.44884   8.60092  -4.85117 
 H                     7.59845   7.92918  -4.68674 
 H                     8.44823   8.87375  -5.9127 
 H                     9.36594   8.0338   -4.65287 
 C                     7.08061   10.651   -4.2571 
 H                     6.18148   10.05154  -4.07355 
 H                     7.0511    10.97079  -5.30503 
 H                     7.01715   11.54946  -3.63185 
 
 NAtoms=     76 NQM=       76 NQMF=       0 NMMI=      0 NMMIF=      0
                NMic=       0 NMicF=      0.
                    Isotopes and Nuclear Properties:
 (Nuclear quadrupole moments (NQMom) in fm**2, nuclear magnetic moments (NMagM)
  in nuclear magnetons)

  Atom         1           2           3           4           5           6           7           8           9          10
 IAtWgt=          12           1          12           1           1          12          12          12           1           1
 AtmWgt=  12.0000000   1.0078250  12.0000000   1.0078250   1.0078250  12.0000000  12.0000000  12.0000000   1.0078250   1.0078250
 NucSpn=           0           1           0           1           1           0           0           0           1           1
 AtZEff=   0.0000000   0.0000000   0.0000000   0.0000000   0.0000000   0.0000000   0.0000000   0.0000000   0.0000000   0.0000000
 NQMom=    0.0000000   0.0000000   0.0000000   0.0000000   0.0000000   0.0000000   0.0000000   0.0000000   0.0000000   0.0000000
 NMagM=    0.0000000   2.7928460   0.0000000   2.7928460   2.7928460   0.0000000   0.0000000   0.0000000   2.7928460   2.7928460
 AtZNuc=   6.0000000   1.0000000   6.0000000   1.0000000   1.0000000   6.0000000   6.0000000   6.0000000   1.0000000   1.0000000

  Atom        11          12          13          14          15          16          17          18          19          20
 IAtWgt=          12           1           1          12           1          12           1          12           1          12
 AtmWgt=  12.0000000   1.0078250   1.0078250  12.0000000   1.0078250  12.0000000   1.0078250  12.0000000   1.0078250  12.0000000
 NucSpn=           0           1           1           0           1           0           1           0           1           0
 AtZEff=   0.0000000   0.0000000   0.0000000   0.0000000   0.0000000   0.0000000   0.0000000   0.0000000   0.0000000   0.0000000
 NQMom=    0.0000000   0.0000000   0.0000000   0.0000000   0.0000000   0.0000000   0.0000000   0.0000000   0.0000000   0.0000000
 NMagM=    0.0000000   2.7928460   2.7928460   0.0000000   2.7928460   0.0000000   2.7928460   0.0000000   2.7928460   0.0000000
 AtZNuc=   6.0000000   1.0000000   1.0000000   6.0000000   1.0000000   6.0000000   1.0000000   6.0000000   1.0000000   6.0000000

  Atom        21          22          23          24          25          26          27          28          29          30
 IAtWgt=           1          12           1           1          12           1           1          12          12           1
 AtmWgt=   1.0078250  12.0000000   1.0078250   1.0078250  12.0000000   1.0078250   1.0078250  12.0000000  12.0000000   1.0078250
 NucSpn=           1           0           1           1           0           1           1           0           0           1
 AtZEff=   0.0000000   0.0000000   0.0000000   0.0000000   0.0000000   0.0000000   0.0000000   0.0000000   0.0000000   0.0000000
 NQMom=    0.0000000   0.0000000   0.0000000   0.0000000   0.0000000   0.0000000   0.0000000   0.0000000   0.0000000   0.0000000
 NMagM=    2.7928460   0.0000000   2.7928460   2.7928460   0.0000000   2.7928460   2.7928460   0.0000000   0.0000000   2.7928460
 AtZNuc=   1.0000000   6.0000000   1.0000000   1.0000000   6.0000000   1.0000000   1.0000000   6.0000000   6.0000000   1.0000000

  Atom        31          32          33          34          35          36          37          38          39          40
 IAtWgt=          12           1           1          12           1           1          12           1          12           1
 AtmWgt=  12.0000000   1.0078250   1.0078250  12.0000000   1.0078250   1.0078250  12.0000000   1.0078250  12.0000000   1.0078250
 NucSpn=           0           1           1           0           1           1           0           1           0           1
 AtZEff=   0.0000000   0.0000000   0.0000000   0.0000000   0.0000000   0.0000000   0.0000000   0.0000000   0.0000000   0.0000000
 NQMom=    0.0000000   0.0000000   0.0000000   0.0000000   0.0000000   0.0000000   0.0000000   0.0000000   0.0000000   0.0000000
 NMagM=    0.0000000   2.7928460   2.7928460   0.0000000   2.7928460   2.7928460   0.0000000   2.7928460   0.0000000   2.7928460
 AtZNuc=   6.0000000   1.0000000   1.0000000   6.0000000   1.0000000   1.0000000   6.0000000   1.0000000   6.0000000   1.0000000

  Atom        41          42          43          44          45          46          47          48          49          50
 IAtWgt=           1           1          12           1          12           1           1           1          12           1
 AtmWgt=   1.0078250   1.0078250  12.0000000   1.0078250  12.0000000   1.0078250   1.0078250   1.0078250  12.0000000   1.0078250
 NucSpn=           1           1           0           1           0           1           1           1           0           1
 AtZEff=   0.0000000   0.0000000   0.0000000   0.0000000   0.0000000   0.0000000   0.0000000   0.0000000   0.0000000   0.0000000
 NQMom=    0.0000000   0.0000000   0.0000000   0.0000000   0.0000000   0.0000000   0.0000000   0.0000000   0.0000000   0.0000000
 NMagM=    2.7928460   2.7928460   0.0000000   2.7928460   0.0000000   2.7928460   2.7928460   2.7928460   0.0000000   2.7928460
 AtZNuc=   1.0000000   1.0000000   6.0000000   1.0000000   6.0000000   1.0000000   1.0000000   1.0000000   6.0000000   1.0000000

  Atom        51          52          53          54          55          56          57          58          59          60
 IAtWgt=           1           1          16          16           1          16           1          12           1           1
 AtmWgt=   1.0078250   1.0078250  15.9949146  15.9949146   1.0078250  15.9949146   1.0078250  12.0000000   1.0078250   1.0078250
 NucSpn=           1           1           0           0           1           0           1           0           1           1
 AtZEff=   0.0000000   0.0000000   0.0000000   0.0000000   0.0000000   0.0000000   0.0000000   0.0000000   0.0000000   0.0000000
 NQMom=    0.0000000   0.0000000   0.0000000   0.0000000   0.0000000   0.0000000   0.0000000   0.0000000   0.0000000   0.0000000
 NMagM=    2.7928460   2.7928460   0.0000000   0.0000000   2.7928460   0.0000000   2.7928460   0.0000000   2.7928460   2.7928460
 AtZNuc=   1.0000000   1.0000000   8.0000000   8.0000000   1.0000000   8.0000000   1.0000000   6.0000000   1.0000000   1.0000000

  Atom        61          62          63          64          65          66          67          68          69          70
 IAtWgt=          12           1           1          12           1           1          12           1          12           1
 AtmWgt=  12.0000000   1.0078250   1.0078250  12.0000000   1.0078250   1.0078250  12.0000000   1.0078250  12.0000000   1.0078250
 NucSpn=           0           1           1           0           1           1           0           1           0           1
 AtZEff=   0.0000000   0.0000000   0.0000000   0.0000000   0.0000000   0.0000000   0.0000000   0.0000000   0.0000000   0.0000000
 NQMom=    0.0000000   0.0000000   0.0000000   0.0000000   0.0000000   0.0000000   0.0000000   0.0000000   0.0000000   0.0000000
 NMagM=    0.0000000   2.7928460   2.7928460   0.0000000   2.7928460   2.7928460   0.0000000   2.7928460   0.0000000   2.7928460
 AtZNuc=   6.0000000   1.0000000   1.0000000   6.0000000   1.0000000   1.0000000   6.0000000   1.0000000   6.0000000   1.0000000

  Atom        71          72          73          74          75          76
 IAtWgt=           1           1          12           1           1           1
 AtmWgt=   1.0078250   1.0078250  12.0000000   1.0078250   1.0078250   1.0078250
 NucSpn=           1           1           0           1           1           1
 AtZEff=   0.0000000   0.0000000   0.0000000   0.0000000   0.0000000   0.0000000
 NQMom=    0.0000000   0.0000000   0.0000000   0.0000000   0.0000000   0.0000000
 NMagM=    2.7928460   2.7928460   0.0000000   2.7928460   2.7928460   2.7928460
 AtZNuc=   1.0000000   1.0000000   6.0000000   1.0000000   1.0000000   1.0000000
 Leave Link  101 at Wed Apr 26 13:16:03 2017, MaxMem=    33554432 cpu:         1.0
 (Enter /home/michal/g09/l202.exe)
 Symmetry turned off by external request.
 Stoichiometry    C27H46O3
 Framework group  C1[X(C27H46O3)]
 Deg. of freedom   222
 Full point group                 C1      NOp   1
                          Input orientation:                          
 ---------------------------------------------------------------------
 Center     Atomic      Atomic             Coordinates (Angstroms)
 Number     Number       Type             X           Y           Z
 ---------------------------------------------------------------------
      1          6           0        1.758193   -1.249304    0.050576
      2          1           0        1.883020   -1.204985   -1.038309
      3          6           0        3.146547   -1.263950    0.709839
      4          1           0        3.725967   -2.111148    0.329931
      5          1           0        3.002998   -1.438449    1.787799
      6          6           0        3.905317    0.031905    0.490260
      7          6           0        3.173437    1.329054    0.856905
      8          6           0        1.744113    1.271779    0.234327
      9          1           0        1.839580    1.390992   -0.853519
     10          1           0        1.159200    2.126790    0.590236
     11          6           0        0.968163   -0.024928    0.512831
     12          1           0        0.752547   -0.121689    1.587215
     13          1           0        0.000000    0.000000    0.000000
     14          6           0        5.154181    0.000000    0.000000
     15          1           0        5.604374   -0.961923   -0.238207
     16          6           0        6.002835    1.211229   -0.258544
     17          1           0        7.036152    1.023844    0.059840
     18          6           0        5.464666    2.472744    0.440388
     19          1           0        5.704426    2.332826    1.503937
     20          6           0        3.925662    2.575217    0.269430
     21          1           0        3.745264    2.555128   -0.815407
     22          6           0        3.375375    3.923637    0.792342
     23          1           0        3.382692    3.930245    1.887001
     24          1           0        2.324339    4.026926    0.498753
     25          6           0        4.146627    5.164316    0.296882
     26          1           0        4.019736    5.267994   -0.790172
     27          1           0        3.696025    6.053303    0.749846
     28          6           0        5.653542    5.062713    0.609756
     29          6           0        6.151189    3.752180   -0.061286
     30          1           0        5.879345    3.850708   -1.121199
     31          6           0        7.682758    3.840870    0.000000
     32          1           0        8.157274    3.241097   -0.781580
     33          1           0        8.059408    3.471641    0.962554
     34          6           0        7.967391    5.360214   -0.161411
     35          1           0        8.619957    5.720578    0.642651
     36          1           0        8.489800    5.572590   -1.099371
     37          6           0        6.587662    6.096255   -0.110689
     38          1           0        6.206100    6.172775   -1.139385
     39          6           0        5.900369    5.088360    2.135125
     40          1           0        5.430872    4.245950    2.649657
     41          1           0        6.967013    5.059091    2.377298
     42          1           0        5.490780    6.002904    2.577318
     43          6           0        6.704930    7.536753    0.446049
     44          1           0        7.092668    7.460840    1.472537
     45          6           0        5.360773    8.285638    0.520883
     46          1           0        4.823839    8.259376   -0.433950
     47          1           0        5.523301    9.338404    0.780915
     48          1           0        4.698617    7.863239    1.281055
     49          6           0        3.065236    1.403656    2.404829
     50          1           0        2.382553    2.199048    2.718056
     51          1           0        2.686967    0.470610    2.829181
     52          1           0        4.041966    1.591196    2.861575
     53          8           0        6.059557    1.514094   -1.679975
     54          8           0        6.799020    0.442292   -2.329713
     55          1           0        6.084891   -0.010796   -2.807894
     56          8           0        1.053812   -2.473889    0.271301
     57          1           0        0.884504   -2.567874    1.219279
     58          6           0        7.751210    8.381761   -0.329277
     59          1           0        7.839278    9.350631    0.183113
     60          1           0        8.737536    7.909308   -0.241410
     61          6           0        7.461986    8.642721   -1.817114
     62          1           0        7.406490    7.688533   -2.355075
     63          1           0        6.478777    9.116604   -1.924196
     64          6           0        8.536401    9.534499   -2.461219
     65          1           0        9.517966    9.058681   -2.321343
     66          1           0        8.580368   10.484582   -1.909051
     67          6           0        8.362841    9.854273   -3.964324
     68          1           0        9.212145   10.499200   -4.234738
     69          6           0        8.448840    8.600919   -4.851172
     70          1           0        7.598449    7.929178   -4.686738
     71          1           0        8.448228    8.873750   -5.912703
     72          1           0        9.365944    8.033804   -4.652874
     73          6           0        7.080606   10.651000   -4.257105
     74          1           0        6.181481   10.051544   -4.073554
     75          1           0        7.051103   10.970793   -5.305025
     76          1           0        7.017154   11.549461   -3.631852
 ---------------------------------------------------------------------
 Rotational constants (GHZ):      0.3073837      0.0605755      0.0576625
 Leave Link  202 at Wed Apr 26 13:16:03 2017, MaxMem=    33554432 cpu:         0.1
 (Enter /home/michal/g09/l301.exe)
 Standard basis: 6-31G(d) (6D, 7F)
 Ernie: Thresh=  0.10000D-02 Tol=  0.10000D-05 Strict=F.
 AO basis set in the form of general basis input (Overlap normalization):
      1 0
 S   6 1.00       0.000000000000
      0.3047524880D+04  0.1834737132D-02
      0.4573695180D+03  0.1403732281D-01
      0.1039486850D+03  0.6884262226D-01
      0.2921015530D+02  0.2321844432D+00
      0.9286662960D+01  0.4679413484D+00
      0.3163926960D+01  0.3623119853D+00
 SP   3 1.00       0.000000000000
      0.7868272350D+01 -0.1193324198D+00  0.6899906659D-01
      0.1881288540D+01 -0.1608541517D+00  0.3164239610D+00
      0.5442492580D+00  0.1143456438D+01  0.7443082909D+00
 SP   1 1.00       0.000000000000
      0.1687144782D+00  0.1000000000D+01  0.1000000000D+01
 D   1 1.00       0.000000000000
      0.8000000000D+00  0.1000000000D+01
 ****
      2 0
 S   3 1.00       0.000000000000
      0.1873113696D+02  0.3349460434D-01
      0.2825394365D+01  0.2347269535D+00
      0.6401216923D+00  0.8137573261D+00
 S   1 1.00       0.000000000000
      0.1612777588D+00  0.1000000000D+01
 ****
      3 0
 S   6 1.00       0.000000000000
      0.3047524880D+04  0.1834737132D-02
      0.4573695180D+03  0.1403732281D-01
      0.1039486850D+03  0.6884262226D-01
      0.2921015530D+02  0.2321844432D+00
      0.9286662960D+01  0.4679413484D+00
      0.3163926960D+01  0.3623119853D+00
 SP   3 1.00       0.000000000000
      0.7868272350D+01 -0.1193324198D+00  0.6899906659D-01
      0.1881288540D+01 -0.1608541517D+00  0.3164239610D+00
      0.5442492580D+00  0.1143456438D+01  0.7443082909D+00
 SP   1 1.00       0.000000000000
      0.1687144782D+00  0.1000000000D+01  0.1000000000D+01
 D   1 1.00       0.000000000000
      0.8000000000D+00  0.1000000000D+01
 ****
      4 0
 S   3 1.00       0.000000000000
      0.1873113696D+02  0.3349460434D-01
      0.2825394365D+01  0.2347269535D+00
      0.6401216923D+00  0.8137573261D+00
 S   1 1.00       0.000000000000
      0.1612777588D+00  0.1000000000D+01
 ****
      5 0
 S   3 1.00       0.000000000000
      0.1873113696D+02  0.3349460434D-01
      0.2825394365D+01  0.2347269535D+00
      0.6401216923D+00  0.8137573261D+00
 S   1 1.00       0.000000000000
      0.1612777588D+00  0.1000000000D+01
 ****
      6 0
 S   6 1.00       0.000000000000
      0.3047524880D+04  0.1834737132D-02
      0.4573695180D+03  0.1403732281D-01
      0.1039486850D+03  0.6884262226D-01
      0.2921015530D+02  0.2321844432D+00
      0.9286662960D+01  0.4679413484D+00
      0.3163926960D+01  0.3623119853D+00
 SP   3 1.00       0.000000000000
      0.7868272350D+01 -0.1193324198D+00  0.6899906659D-01
      0.1881288540D+01 -0.1608541517D+00  0.3164239610D+00
      0.5442492580D+00  0.1143456438D+01  0.7443082909D+00
 SP   1 1.00       0.000000000000
      0.1687144782D+00  0.1000000000D+01  0.1000000000D+01
 D   1 1.00       0.000000000000
      0.8000000000D+00  0.1000000000D+01
 ****
      7 0
 S   6 1.00       0.000000000000
      0.3047524880D+04  0.1834737132D-02
      0.4573695180D+03  0.1403732281D-01
      0.1039486850D+03  0.6884262226D-01
      0.2921015530D+02  0.2321844432D+00
      0.9286662960D+01  0.4679413484D+00
      0.3163926960D+01  0.3623119853D+00
 SP   3 1.00       0.000000000000
      0.7868272350D+01 -0.1193324198D+00  0.6899906659D-01
      0.1881288540D+01 -0.1608541517D+00  0.3164239610D+00
      0.5442492580D+00  0.1143456438D+01  0.7443082909D+00
 SP   1 1.00       0.000000000000
      0.1687144782D+00  0.1000000000D+01  0.1000000000D+01
 D   1 1.00       0.000000000000
      0.8000000000D+00  0.1000000000D+01
 ****
      8 0
 S   6 1.00       0.000000000000
      0.3047524880D+04  0.1834737132D-02
      0.4573695180D+03  0.1403732281D-01
      0.1039486850D+03  0.6884262226D-01
      0.2921015530D+02  0.2321844432D+00
      0.9286662960D+01  0.4679413484D+00
      0.3163926960D+01  0.3623119853D+00
 SP   3 1.00       0.000000000000
      0.7868272350D+01 -0.1193324198D+00  0.6899906659D-01
      0.1881288540D+01 -0.1608541517D+00  0.3164239610D+00
      0.5442492580D+00  0.1143456438D+01  0.7443082909D+00
 SP   1 1.00       0.000000000000
      0.1687144782D+00  0.1000000000D+01  0.1000000000D+01
 D   1 1.00       0.000000000000
      0.8000000000D+00  0.1000000000D+01
 ****
      9 0
 S   3 1.00       0.000000000000
      0.1873113696D+02  0.3349460434D-01
      0.2825394365D+01  0.2347269535D+00
      0.6401216923D+00  0.8137573261D+00
 S   1 1.00       0.000000000000
      0.1612777588D+00  0.1000000000D+01
 ****
     10 0
 S   3 1.00       0.000000000000
      0.1873113696D+02  0.3349460434D-01
      0.2825394365D+01  0.2347269535D+00
      0.6401216923D+00  0.8137573261D+00
 S   1 1.00       0.000000000000
      0.1612777588D+00  0.1000000000D+01
 ****
     11 0
 S   6 1.00       0.000000000000
      0.3047524880D+04  0.1834737132D-02
      0.4573695180D+03  0.1403732281D-01
      0.1039486850D+03  0.6884262226D-01
      0.2921015530D+02  0.2321844432D+00
      0.9286662960D+01  0.4679413484D+00
      0.3163926960D+01  0.3623119853D+00
 SP   3 1.00       0.000000000000
      0.7868272350D+01 -0.1193324198D+00  0.6899906659D-01
      0.1881288540D+01 -0.1608541517D+00  0.3164239610D+00
      0.5442492580D+00  0.1143456438D+01  0.7443082909D+00
 SP   1 1.00       0.000000000000
      0.1687144782D+00  0.1000000000D+01  0.1000000000D+01
 D   1 1.00       0.000000000000
      0.8000000000D+00  0.1000000000D+01
 ****
     12 0
 S   3 1.00       0.000000000000
      0.1873113696D+02  0.3349460434D-01
      0.2825394365D+01  0.2347269535D+00
      0.6401216923D+00  0.8137573261D+00
 S   1 1.00       0.000000000000
      0.1612777588D+00  0.1000000000D+01
 ****
     13 0
 S   3 1.00       0.000000000000
      0.1873113696D+02  0.3349460434D-01
      0.2825394365D+01  0.2347269535D+00
      0.6401216923D+00  0.8137573261D+00
 S   1 1.00       0.000000000000
      0.1612777588D+00  0.1000000000D+01
 ****
     14 0
 S   6 1.00       0.000000000000
      0.3047524880D+04  0.1834737132D-02
      0.4573695180D+03  0.1403732281D-01
      0.1039486850D+03  0.6884262226D-01
      0.2921015530D+02  0.2321844432D+00
      0.9286662960D+01  0.4679413484D+00
      0.3163926960D+01  0.3623119853D+00
 SP   3 1.00       0.000000000000
      0.7868272350D+01 -0.1193324198D+00  0.6899906659D-01
      0.1881288540D+01 -0.1608541517D+00  0.3164239610D+00
      0.5442492580D+00  0.1143456438D+01  0.7443082909D+00
 SP   1 1.00       0.000000000000
      0.1687144782D+00  0.1000000000D+01  0.1000000000D+01
 D   1 1.00       0.000000000000
      0.8000000000D+00  0.1000000000D+01
 ****
     15 0
 S   3 1.00       0.000000000000
      0.1873113696D+02  0.3349460434D-01
      0.2825394365D+01  0.2347269535D+00
      0.6401216923D+00  0.8137573261D+00
 S   1 1.00       0.000000000000
      0.1612777588D+00  0.1000000000D+01
 ****
     16 0
 S   6 1.00       0.000000000000
      0.3047524880D+04  0.1834737132D-02
      0.4573695180D+03  0.1403732281D-01
      0.1039486850D+03  0.6884262226D-01
      0.2921015530D+02  0.2321844432D+00
      0.9286662960D+01  0.4679413484D+00
      0.3163926960D+01  0.3623119853D+00
 SP   3 1.00       0.000000000000
      0.7868272350D+01 -0.1193324198D+00  0.6899906659D-01
      0.1881288540D+01 -0.1608541517D+00  0.3164239610D+00
      0.5442492580D+00  0.1143456438D+01  0.7443082909D+00
 SP   1 1.00       0.000000000000
      0.1687144782D+00  0.1000000000D+01  0.1000000000D+01
 D   1 1.00       0.000000000000
      0.8000000000D+00  0.1000000000D+01
 ****
     17 0
 S   3 1.00       0.000000000000
      0.1873113696D+02  0.3349460434D-01
      0.2825394365D+01  0.2347269535D+00
      0.6401216923D+00  0.8137573261D+00
 S   1 1.00       0.000000000000
      0.1612777588D+00  0.1000000000D+01
 ****
     18 0
 S   6 1.00       0.000000000000
      0.3047524880D+04  0.1834737132D-02
      0.4573695180D+03  0.1403732281D-01
      0.1039486850D+03  0.6884262226D-01
      0.2921015530D+02  0.2321844432D+00
      0.9286662960D+01  0.4679413484D+00
      0.3163926960D+01  0.3623119853D+00
 SP   3 1.00       0.000000000000
      0.7868272350D+01 -0.1193324198D+00  0.6899906659D-01
      0.1881288540D+01 -0.1608541517D+00  0.3164239610D+00
      0.5442492580D+00  0.1143456438D+01  0.7443082909D+00
 SP   1 1.00       0.000000000000
      0.1687144782D+00  0.1000000000D+01  0.1000000000D+01
 D   1 1.00       0.000000000000
      0.8000000000D+00  0.1000000000D+01
 ****
     19 0
 S   3 1.00       0.000000000000
      0.1873113696D+02  0.3349460434D-01
      0.2825394365D+01  0.2347269535D+00
      0.6401216923D+00  0.8137573261D+00
 S   1 1.00       0.000000000000
      0.1612777588D+00  0.1000000000D+01
 ****
     20 0
 S   6 1.00       0.000000000000
      0.3047524880D+04  0.1834737132D-02
      0.4573695180D+03  0.1403732281D-01
      0.1039486850D+03  0.6884262226D-01
      0.2921015530D+02  0.2321844432D+00
      0.9286662960D+01  0.4679413484D+00
      0.3163926960D+01  0.3623119853D+00
 SP   3 1.00       0.000000000000
      0.7868272350D+01 -0.1193324198D+00  0.6899906659D-01
      0.1881288540D+01 -0.1608541517D+00  0.3164239610D+00
      0.5442492580D+00  0.1143456438D+01  0.7443082909D+00
 SP   1 1.00       0.000000000000
      0.1687144782D+00  0.1000000000D+01  0.1000000000D+01
 D   1 1.00       0.000000000000
      0.8000000000D+00  0.1000000000D+01
 ****
     21 0
 S   3 1.00       0.000000000000
      0.1873113696D+02  0.3349460434D-01
      0.2825394365D+01  0.2347269535D+00
      0.6401216923D+00  0.8137573261D+00
 S   1 1.00       0.000000000000
      0.1612777588D+00  0.1000000000D+01
 ****
     22 0
 S   6 1.00       0.000000000000
      0.3047524880D+04  0.1834737132D-02
      0.4573695180D+03  0.1403732281D-01
      0.1039486850D+03  0.6884262226D-01
      0.2921015530D+02  0.2321844432D+00
      0.9286662960D+01  0.4679413484D+00
      0.3163926960D+01  0.3623119853D+00
 SP   3 1.00       0.000000000000
      0.7868272350D+01 -0.1193324198D+00  0.6899906659D-01
      0.1881288540D+01 -0.1608541517D+00  0.3164239610D+00
      0.5442492580D+00  0.1143456438D+01  0.7443082909D+00
 SP   1 1.00       0.000000000000
      0.1687144782D+00  0.1000000000D+01  0.1000000000D+01
 D   1 1.00       0.000000000000
      0.8000000000D+00  0.1000000000D+01
 ****
     23 0
 S   3 1.00       0.000000000000
      0.1873113696D+02  0.3349460434D-01
      0.2825394365D+01  0.2347269535D+00
      0.6401216923D+00  0.8137573261D+00
 S   1 1.00       0.000000000000
      0.1612777588D+00  0.1000000000D+01
 ****
     24 0
 S   3 1.00       0.000000000000
      0.1873113696D+02  0.3349460434D-01
      0.2825394365D+01  0.2347269535D+00
      0.6401216923D+00  0.8137573261D+00
 S   1 1.00       0.000000000000
      0.1612777588D+00  0.1000000000D+01
 ****
     25 0
 S   6 1.00       0.000000000000
      0.3047524880D+04  0.1834737132D-02
      0.4573695180D+03  0.1403732281D-01
      0.1039486850D+03  0.6884262226D-01
      0.2921015530D+02  0.2321844432D+00
      0.9286662960D+01  0.4679413484D+00
      0.3163926960D+01  0.3623119853D+00
 SP   3 1.00       0.000000000000
      0.7868272350D+01 -0.1193324198D+00  0.6899906659D-01
      0.1881288540D+01 -0.1608541517D+00  0.3164239610D+00
      0.5442492580D+00  0.1143456438D+01  0.7443082909D+00
 SP   1 1.00       0.000000000000
      0.1687144782D+00  0.1000000000D+01  0.1000000000D+01
 D   1 1.00       0.000000000000
      0.8000000000D+00  0.1000000000D+01
 ****
     26 0
 S   3 1.00       0.000000000000
      0.1873113696D+02  0.3349460434D-01
      0.2825394365D+01  0.2347269535D+00
      0.6401216923D+00  0.8137573261D+00
 S   1 1.00       0.000000000000
      0.1612777588D+00  0.1000000000D+01
 ****
     27 0
 S   3 1.00       0.000000000000
      0.1873113696D+02  0.3349460434D-01
      0.2825394365D+01  0.2347269535D+00
      0.6401216923D+00  0.8137573261D+00
 S   1 1.00       0.000000000000
      0.1612777588D+00  0.1000000000D+01
 ****
     28 0
 S   6 1.00       0.000000000000
      0.3047524880D+04  0.1834737132D-02
      0.4573695180D+03  0.1403732281D-01
      0.1039486850D+03  0.6884262226D-01
      0.2921015530D+02  0.2321844432D+00
      0.9286662960D+01  0.4679413484D+00
      0.3163926960D+01  0.3623119853D+00
 SP   3 1.00       0.000000000000
      0.7868272350D+01 -0.1193324198D+00  0.6899906659D-01
      0.1881288540D+01 -0.1608541517D+00  0.3164239610D+00
      0.5442492580D+00  0.1143456438D+01  0.7443082909D+00
 SP   1 1.00       0.000000000000
      0.1687144782D+00  0.1000000000D+01  0.1000000000D+01
 D   1 1.00       0.000000000000
      0.8000000000D+00  0.1000000000D+01
 ****
     29 0
 S   6 1.00       0.000000000000
      0.3047524880D+04  0.1834737132D-02
      0.4573695180D+03  0.1403732281D-01
      0.1039486850D+03  0.6884262226D-01
      0.2921015530D+02  0.2321844432D+00
      0.9286662960D+01  0.4679413484D+00
      0.3163926960D+01  0.3623119853D+00
 SP   3 1.00       0.000000000000
      0.7868272350D+01 -0.1193324198D+00  0.6899906659D-01
      0.1881288540D+01 -0.1608541517D+00  0.3164239610D+00
      0.5442492580D+00  0.1143456438D+01  0.7443082909D+00
 SP   1 1.00       0.000000000000
      0.1687144782D+00  0.1000000000D+01  0.1000000000D+01
 D   1 1.00       0.000000000000
      0.8000000000D+00  0.1000000000D+01
 ****
     30 0
 S   3 1.00       0.000000000000
      0.1873113696D+02  0.3349460434D-01
      0.2825394365D+01  0.2347269535D+00
      0.6401216923D+00  0.8137573261D+00
 S   1 1.00       0.000000000000
      0.1612777588D+00  0.1000000000D+01
 ****
     31 0
 S   6 1.00       0.000000000000
      0.3047524880D+04  0.1834737132D-02
      0.4573695180D+03  0.1403732281D-01
      0.1039486850D+03  0.6884262226D-01
      0.2921015530D+02  0.2321844432D+00
      0.9286662960D+01  0.4679413484D+00
      0.3163926960D+01  0.3623119853D+00
 SP   3 1.00       0.000000000000
      0.7868272350D+01 -0.1193324198D+00  0.6899906659D-01
      0.1881288540D+01 -0.1608541517D+00  0.3164239610D+00
      0.5442492580D+00  0.1143456438D+01  0.7443082909D+00
 SP   1 1.00       0.000000000000
      0.1687144782D+00  0.1000000000D+01  0.1000000000D+01
 D   1 1.00       0.000000000000
      0.8000000000D+00  0.1000000000D+01
 ****
     32 0
 S   3 1.00       0.000000000000
      0.1873113696D+02  0.3349460434D-01
      0.2825394365D+01  0.2347269535D+00
      0.6401216923D+00  0.8137573261D+00
 S   1 1.00       0.000000000000
      0.1612777588D+00  0.1000000000D+01
 ****
     33 0
 S   3 1.00       0.000000000000
      0.1873113696D+02  0.3349460434D-01
      0.2825394365D+01  0.2347269535D+00
      0.6401216923D+00  0.8137573261D+00
 S   1 1.00       0.000000000000
      0.1612777588D+00  0.1000000000D+01
 ****
     34 0
 S   6 1.00       0.000000000000
      0.3047524880D+04  0.1834737132D-02
      0.4573695180D+03  0.1403732281D-01
      0.1039486850D+03  0.6884262226D-01
      0.2921015530D+02  0.2321844432D+00
      0.9286662960D+01  0.4679413484D+00
      0.3163926960D+01  0.3623119853D+00
 SP   3 1.00       0.000000000000
      0.7868272350D+01 -0.1193324198D+00  0.6899906659D-01
      0.1881288540D+01 -0.1608541517D+00  0.3164239610D+00
      0.5442492580D+00  0.1143456438D+01  0.7443082909D+00
 SP   1 1.00       0.000000000000
      0.1687144782D+00  0.1000000000D+01  0.1000000000D+01
 D   1 1.00       0.000000000000
      0.8000000000D+00  0.1000000000D+01
 ****
     35 0
 S   3 1.00       0.000000000000
      0.1873113696D+02  0.3349460434D-01
      0.2825394365D+01  0.2347269535D+00
      0.6401216923D+00  0.8137573261D+00
 S   1 1.00       0.000000000000
      0.1612777588D+00  0.1000000000D+01
 ****
     36 0
 S   3 1.00       0.000000000000
      0.1873113696D+02  0.3349460434D-01
      0.2825394365D+01  0.2347269535D+00
      0.6401216923D+00  0.8137573261D+00
 S   1 1.00       0.000000000000
      0.1612777588D+00  0.1000000000D+01
 ****
     37 0
 S   6 1.00       0.000000000000
      0.3047524880D+04  0.1834737132D-02
      0.4573695180D+03  0.1403732281D-01
      0.1039486850D+03  0.6884262226D-01
      0.2921015530D+02  0.2321844432D+00
      0.9286662960D+01  0.4679413484D+00
      0.3163926960D+01  0.3623119853D+00
 SP   3 1.00       0.000000000000
      0.7868272350D+01 -0.1193324198D+00  0.6899906659D-01
      0.1881288540D+01 -0.1608541517D+00  0.3164239610D+00
      0.5442492580D+00  0.1143456438D+01  0.7443082909D+00
 SP   1 1.00       0.000000000000
      0.1687144782D+00  0.1000000000D+01  0.1000000000D+01
 D   1 1.00       0.000000000000
      0.8000000000D+00  0.1000000000D+01
 ****
     38 0
 S   3 1.00       0.000000000000
      0.1873113696D+02  0.3349460434D-01
      0.2825394365D+01  0.2347269535D+00
      0.6401216923D+00  0.8137573261D+00
 S   1 1.00       0.000000000000
      0.1612777588D+00  0.1000000000D+01
 ****
     39 0
 S   6 1.00       0.000000000000
      0.3047524880D+04  0.1834737132D-02
      0.4573695180D+03  0.1403732281D-01
      0.1039486850D+03  0.6884262226D-01
      0.2921015530D+02  0.2321844432D+00
      0.9286662960D+01  0.4679413484D+00
      0.3163926960D+01  0.3623119853D+00
 SP   3 1.00       0.000000000000
      0.7868272350D+01 -0.1193324198D+00  0.6899906659D-01
      0.1881288540D+01 -0.1608541517D+00  0.3164239610D+00
      0.5442492580D+00  0.1143456438D+01  0.7443082909D+00
 SP   1 1.00       0.000000000000
      0.1687144782D+00  0.1000000000D+01  0.1000000000D+01
 D   1 1.00       0.000000000000
      0.8000000000D+00  0.1000000000D+01
 ****
     40 0
 S   3 1.00       0.000000000000
      0.1873113696D+02  0.3349460434D-01
      0.2825394365D+01  0.2347269535D+00
      0.6401216923D+00  0.8137573261D+00
 S   1 1.00       0.000000000000
      0.1612777588D+00  0.1000000000D+01
 ****
     41 0
 S   3 1.00       0.000000000000
      0.1873113696D+02  0.3349460434D-01
      0.2825394365D+01  0.2347269535D+00
      0.6401216923D+00  0.8137573261D+00
 S   1 1.00       0.000000000000
      0.1612777588D+00  0.1000000000D+01
 ****
     42 0
 S   3 1.00       0.000000000000
      0.1873113696D+02  0.3349460434D-01
      0.2825394365D+01  0.2347269535D+00
      0.6401216923D+00  0.8137573261D+00
 S   1 1.00       0.000000000000
      0.1612777588D+00  0.1000000000D+01
 ****
     43 0
 S   6 1.00       0.000000000000
      0.3047524880D+04  0.1834737132D-02
      0.4573695180D+03  0.1403732281D-01
      0.1039486850D+03  0.6884262226D-01
      0.2921015530D+02  0.2321844432D+00
      0.9286662960D+01  0.4679413484D+00
      0.3163926960D+01  0.3623119853D+00
 SP   3 1.00       0.000000000000
      0.7868272350D+01 -0.1193324198D+00  0.6899906659D-01
      0.1881288540D+01 -0.1608541517D+00  0.3164239610D+00
      0.5442492580D+00  0.1143456438D+01  0.7443082909D+00
 SP   1 1.00       0.000000000000
      0.1687144782D+00  0.1000000000D+01  0.1000000000D+01
 D   1 1.00       0.000000000000
      0.8000000000D+00  0.1000000000D+01
 ****
     44 0
 S   3 1.00       0.000000000000
      0.1873113696D+02  0.3349460434D-01
      0.2825394365D+01  0.2347269535D+00
      0.6401216923D+00  0.8137573261D+00
 S   1 1.00       0.000000000000
      0.1612777588D+00  0.1000000000D+01
 ****
     45 0
 S   6 1.00       0.000000000000
      0.3047524880D+04  0.1834737132D-02
      0.4573695180D+03  0.1403732281D-01
      0.1039486850D+03  0.6884262226D-01
      0.2921015530D+02  0.2321844432D+00
      0.9286662960D+01  0.4679413484D+00
      0.3163926960D+01  0.3623119853D+00
 SP   3 1.00       0.000000000000
      0.7868272350D+01 -0.1193324198D+00  0.6899906659D-01
      0.1881288540D+01 -0.1608541517D+00  0.3164239610D+00
      0.5442492580D+00  0.1143456438D+01  0.7443082909D+00
 SP   1 1.00       0.000000000000
      0.1687144782D+00  0.1000000000D+01  0.1000000000D+01
 D   1 1.00       0.000000000000
      0.8000000000D+00  0.1000000000D+01
 ****
     46 0
 S   3 1.00       0.000000000000
      0.1873113696D+02  0.3349460434D-01
      0.2825394365D+01  0.2347269535D+00
      0.6401216923D+00  0.8137573261D+00
 S   1 1.00       0.000000000000
      0.1612777588D+00  0.1000000000D+01
 ****
     47 0
 S   3 1.00       0.000000000000
      0.1873113696D+02  0.3349460434D-01
      0.2825394365D+01  0.2347269535D+00
      0.6401216923D+00  0.8137573261D+00
 S   1 1.00       0.000000000000
      0.1612777588D+00  0.1000000000D+01
 ****
     48 0
 S   3 1.00       0.000000000000
      0.1873113696D+02  0.3349460434D-01
      0.2825394365D+01  0.2347269535D+00
      0.6401216923D+00  0.8137573261D+00
 S   1 1.00       0.000000000000
      0.1612777588D+00  0.1000000000D+01
 ****
     49 0
 S   6 1.00       0.000000000000
      0.3047524880D+04  0.1834737132D-02
      0.4573695180D+03  0.1403732281D-01
      0.1039486850D+03  0.6884262226D-01
      0.2921015530D+02  0.2321844432D+00
      0.9286662960D+01  0.4679413484D+00
      0.3163926960D+01  0.3623119853D+00
 SP   3 1.00       0.000000000000
      0.7868272350D+01 -0.1193324198D+00  0.6899906659D-01
      0.1881288540D+01 -0.1608541517D+00  0.3164239610D+00
      0.5442492580D+00  0.1143456438D+01  0.7443082909D+00
 SP   1 1.00       0.000000000000
      0.1687144782D+00  0.1000000000D+01  0.1000000000D+01
 D   1 1.00       0.000000000000
      0.8000000000D+00  0.1000000000D+01
 ****
     50 0
 S   3 1.00       0.000000000000
      0.1873113696D+02  0.3349460434D-01
      0.2825394365D+01  0.2347269535D+00
      0.6401216923D+00  0.8137573261D+00
 S   1 1.00       0.000000000000
      0.1612777588D+00  0.1000000000D+01
 ****
     51 0
 S   3 1.00       0.000000000000
      0.1873113696D+02  0.3349460434D-01
      0.2825394365D+01  0.2347269535D+00
      0.6401216923D+00  0.8137573261D+00
 S   1 1.00       0.000000000000
      0.1612777588D+00  0.1000000000D+01
 ****
     52 0
 S   3 1.00       0.000000000000
      0.1873113696D+02  0.3349460434D-01
      0.2825394365D+01  0.2347269535D+00
      0.6401216923D+00  0.8137573261D+00
 S   1 1.00       0.000000000000
      0.1612777588D+00  0.1000000000D+01
 ****
     53 0
 S   6 1.00       0.000000000000
      0.5484671660D+04  0.1831074430D-02
      0.8252349460D+03  0.1395017220D-01
      0.1880469580D+03  0.6844507810D-01
      0.5296450000D+02  0.2327143360D+00
      0.1689757040D+02  0.4701928980D+00
      0.5799635340D+01  0.3585208530D+00
 SP   3 1.00       0.000000000000
      0.1553961625D+02 -0.1107775495D+00  0.7087426823D-01
      0.3599933586D+01 -0.1480262627D+00  0.3397528391D+00
      0.1013761750D+01  0.1130767015D+01  0.7271585773D+00
 SP   1 1.00       0.000000000000
      0.2700058226D+00  0.1000000000D+01  0.1000000000D+01
 D   1 1.00       0.000000000000
      0.8000000000D+00  0.1000000000D+01
 ****
     54 0
 S   6 1.00       0.000000000000
      0.5484671660D+04  0.1831074430D-02
      0.8252349460D+03  0.1395017220D-01
      0.1880469580D+03  0.6844507810D-01
      0.5296450000D+02  0.2327143360D+00
      0.1689757040D+02  0.4701928980D+00
      0.5799635340D+01  0.3585208530D+00
 SP   3 1.00       0.000000000000
      0.1553961625D+02 -0.1107775495D+00  0.7087426823D-01
      0.3599933586D+01 -0.1480262627D+00  0.3397528391D+00
      0.1013761750D+01  0.1130767015D+01  0.7271585773D+00
 SP   1 1.00       0.000000000000
      0.2700058226D+00  0.1000000000D+01  0.1000000000D+01
 D   1 1.00       0.000000000000
      0.8000000000D+00  0.1000000000D+01
 ****
     55 0
 S   3 1.00       0.000000000000
      0.1873113696D+02  0.3349460434D-01
      0.2825394365D+01  0.2347269535D+00
      0.6401216923D+00  0.8137573261D+00
 S   1 1.00       0.000000000000
      0.1612777588D+00  0.1000000000D+01
 ****
     56 0
 S   6 1.00       0.000000000000
      0.5484671660D+04  0.1831074430D-02
      0.8252349460D+03  0.1395017220D-01
      0.1880469580D+03  0.6844507810D-01
      0.5296450000D+02  0.2327143360D+00
      0.1689757040D+02  0.4701928980D+00
      0.5799635340D+01  0.3585208530D+00
 SP   3 1.00       0.000000000000
      0.1553961625D+02 -0.1107775495D+00  0.7087426823D-01
      0.3599933586D+01 -0.1480262627D+00  0.3397528391D+00
      0.1013761750D+01  0.1130767015D+01  0.7271585773D+00
 SP   1 1.00       0.000000000000
      0.2700058226D+00  0.1000000000D+01  0.1000000000D+01
 D   1 1.00       0.000000000000
      0.8000000000D+00  0.1000000000D+01
 ****
     57 0
 S   3 1.00       0.000000000000
      0.1873113696D+02  0.3349460434D-01
      0.2825394365D+01  0.2347269535D+00
      0.6401216923D+00  0.8137573261D+00
 S   1 1.00       0.000000000000
      0.1612777588D+00  0.1000000000D+01
 ****
     58 0
 S   6 1.00       0.000000000000
      0.3047524880D+04  0.1834737132D-02
      0.4573695180D+03  0.1403732281D-01
      0.1039486850D+03  0.6884262226D-01
      0.2921015530D+02  0.2321844432D+00
      0.9286662960D+01  0.4679413484D+00
      0.3163926960D+01  0.3623119853D+00
 SP   3 1.00       0.000000000000
      0.7868272350D+01 -0.1193324198D+00  0.6899906659D-01
      0.1881288540D+01 -0.1608541517D+00  0.3164239610D+00
      0.5442492580D+00  0.1143456438D+01  0.7443082909D+00
 SP   1 1.00       0.000000000000
      0.1687144782D+00  0.1000000000D+01  0.1000000000D+01
 D   1 1.00       0.000000000000
      0.8000000000D+00  0.1000000000D+01
 ****
     59 0
 S   3 1.00       0.000000000000
      0.1873113696D+02  0.3349460434D-01
      0.2825394365D+01  0.2347269535D+00
      0.6401216923D+00  0.8137573261D+00
 S   1 1.00       0.000000000000
      0.1612777588D+00  0.1000000000D+01
 ****
     60 0
 S   3 1.00       0.000000000000
      0.1873113696D+02  0.3349460434D-01
      0.2825394365D+01  0.2347269535D+00
      0.6401216923D+00  0.8137573261D+00
 S   1 1.00       0.000000000000
      0.1612777588D+00  0.1000000000D+01
 ****
     61 0
 S   6 1.00       0.000000000000
      0.3047524880D+04  0.1834737132D-02
      0.4573695180D+03  0.1403732281D-01
      0.1039486850D+03  0.6884262226D-01
      0.2921015530D+02  0.2321844432D+00
      0.9286662960D+01  0.4679413484D+00
      0.3163926960D+01  0.3623119853D+00
 SP   3 1.00       0.000000000000
      0.7868272350D+01 -0.1193324198D+00  0.6899906659D-01
      0.1881288540D+01 -0.1608541517D+00  0.3164239610D+00
      0.5442492580D+00  0.1143456438D+01  0.7443082909D+00
 SP   1 1.00       0.000000000000
      0.1687144782D+00  0.1000000000D+01  0.1000000000D+01
 D   1 1.00       0.000000000000
      0.8000000000D+00  0.1000000000D+01
 ****
     62 0
 S   3 1.00       0.000000000000
      0.1873113696D+02  0.3349460434D-01
      0.2825394365D+01  0.2347269535D+00
      0.6401216923D+00  0.8137573261D+00
 S   1 1.00       0.000000000000
      0.1612777588D+00  0.1000000000D+01
 ****
     63 0
 S   3 1.00       0.000000000000
      0.1873113696D+02  0.3349460434D-01
      0.2825394365D+01  0.2347269535D+00
      0.6401216923D+00  0.8137573261D+00
 S   1 1.00       0.000000000000
      0.1612777588D+00  0.1000000000D+01
 ****
     64 0
 S   6 1.00       0.000000000000
      0.3047524880D+04  0.1834737132D-02
      0.4573695180D+03  0.1403732281D-01
      0.1039486850D+03  0.6884262226D-01
      0.2921015530D+02  0.2321844432D+00
      0.9286662960D+01  0.4679413484D+00
      0.3163926960D+01  0.3623119853D+00
 SP   3 1.00       0.000000000000
      0.7868272350D+01 -0.1193324198D+00  0.6899906659D-01
      0.1881288540D+01 -0.1608541517D+00  0.3164239610D+00
      0.5442492580D+00  0.1143456438D+01  0.7443082909D+00
 SP   1 1.00       0.000000000000
      0.1687144782D+00  0.1000000000D+01  0.1000000000D+01
 D   1 1.00       0.000000000000
      0.8000000000D+00  0.1000000000D+01
 ****
     65 0
 S   3 1.00       0.000000000000
      0.1873113696D+02  0.3349460434D-01
      0.2825394365D+01  0.2347269535D+00
      0.6401216923D+00  0.8137573261D+00
 S   1 1.00       0.000000000000
      0.1612777588D+00  0.1000000000D+01
 ****
     66 0
 S   3 1.00       0.000000000000
      0.1873113696D+02  0.3349460434D-01
      0.2825394365D+01  0.2347269535D+00
      0.6401216923D+00  0.8137573261D+00
 S   1 1.00       0.000000000000
      0.1612777588D+00  0.1000000000D+01
 ****
     67 0
 S   6 1.00       0.000000000000
      0.3047524880D+04  0.1834737132D-02
      0.4573695180D+03  0.1403732281D-01
      0.1039486850D+03  0.6884262226D-01
      0.2921015530D+02  0.2321844432D+00
      0.9286662960D+01  0.4679413484D+00
      0.3163926960D+01  0.3623119853D+00
 SP   3 1.00       0.000000000000
      0.7868272350D+01 -0.1193324198D+00  0.6899906659D-01
      0.1881288540D+01 -0.1608541517D+00  0.3164239610D+00
      0.5442492580D+00  0.1143456438D+01  0.7443082909D+00
 SP   1 1.00       0.000000000000
      0.1687144782D+00  0.1000000000D+01  0.1000000000D+01
 D   1 1.00       0.000000000000
      0.8000000000D+00  0.1000000000D+01
 ****
     68 0
 S   3 1.00       0.000000000000
      0.1873113696D+02  0.3349460434D-01
      0.2825394365D+01  0.2347269535D+00
      0.6401216923D+00  0.8137573261D+00
 S   1 1.00       0.000000000000
      0.1612777588D+00  0.1000000000D+01
 ****
     69 0
 S   6 1.00       0.000000000000
      0.3047524880D+04  0.1834737132D-02
      0.4573695180D+03  0.1403732281D-01
      0.1039486850D+03  0.6884262226D-01
      0.2921015530D+02  0.2321844432D+00
      0.9286662960D+01  0.4679413484D+00
      0.3163926960D+01  0.3623119853D+00
 SP   3 1.00       0.000000000000
      0.7868272350D+01 -0.1193324198D+00  0.6899906659D-01
      0.1881288540D+01 -0.1608541517D+00  0.3164239610D+00
      0.5442492580D+00  0.1143456438D+01  0.7443082909D+00
 SP   1 1.00       0.000000000000
      0.1687144782D+00  0.1000000000D+01  0.1000000000D+01
 D   1 1.00       0.000000000000
      0.8000000000D+00  0.1000000000D+01
 ****
     70 0
 S   3 1.00       0.000000000000
      0.1873113696D+02  0.3349460434D-01
      0.2825394365D+01  0.2347269535D+00
      0.6401216923D+00  0.8137573261D+00
 S   1 1.00       0.000000000000
      0.1612777588D+00  0.1000000000D+01
 ****
     71 0
 S   3 1.00       0.000000000000
      0.1873113696D+02  0.3349460434D-01
      0.2825394365D+01  0.2347269535D+00
      0.6401216923D+00  0.8137573261D+00
 S   1 1.00       0.000000000000
      0.1612777588D+00  0.1000000000D+01
 ****
     72 0
 S   3 1.00       0.000000000000
      0.1873113696D+02  0.3349460434D-01
      0.2825394365D+01  0.2347269535D+00
      0.6401216923D+00  0.8137573261D+00
 S   1 1.00       0.000000000000
      0.1612777588D+00  0.1000000000D+01
 ****
     73 0
 S   6 1.00       0.000000000000
      0.3047524880D+04  0.1834737132D-02
      0.4573695180D+03  0.1403732281D-01
      0.1039486850D+03  0.6884262226D-01
      0.2921015530D+02  0.2321844432D+00
      0.9286662960D+01  0.4679413484D+00
      0.3163926960D+01  0.3623119853D+00
 SP   3 1.00       0.000000000000
      0.7868272350D+01 -0.1193324198D+00  0.6899906659D-01
      0.1881288540D+01 -0.1608541517D+00  0.3164239610D+00
      0.5442492580D+00  0.1143456438D+01  0.7443082909D+00
 SP   1 1.00       0.000000000000
      0.1687144782D+00  0.1000000000D+01  0.1000000000D+01
 D   1 1.00       0.000000000000
      0.8000000000D+00  0.1000000000D+01
 ****
     74 0
 S   3 1.00       0.000000000000
      0.1873113696D+02  0.3349460434D-01
      0.2825394365D+01  0.2347269535D+00
      0.6401216923D+00  0.8137573261D+00
 S   1 1.00       0.000000000000
      0.1612777588D+00  0.1000000000D+01
 ****
     75 0
 S   3 1.00       0.000000000000
      0.1873113696D+02  0.3349460434D-01
      0.2825394365D+01  0.2347269535D+00
      0.6401216923D+00  0.8137573261D+00
 S   1 1.00       0.000000000000
      0.1612777588D+00  0.1000000000D+01
 ****
     76 0
 S   3 1.00       0.000000000000
      0.1873113696D+02  0.3349460434D-01
      0.2825394365D+01  0.2347269535D+00
      0.6401216923D+00  0.8137573261D+00
 S   1 1.00       0.000000000000
      0.1612777588D+00  0.1000000000D+01
 ****

 AO basis set (Overlap normalization):
 Atom C1       Shell     1 S   6     bf    1 -     1          3.322503296551         -2.360842681280          0.095575639274
      0.3047524880D+04  0.1834737132D-02
      0.4573695180D+03  0.1403732281D-01
      0.1039486850D+03  0.6884262226D-01
      0.2921015530D+02  0.2321844432D+00
      0.9286662960D+01  0.4679413484D+00
      0.3163926960D+01  0.3623119853D+00
 Atom C1       Shell     2 SP   3    bf    2 -     5          3.322503296551         -2.360842681280          0.095575639274
      0.7868272350D+01 -0.1193324198D+00  0.6899906659D-01
      0.1881288540D+01 -0.1608541517D+00  0.3164239610D+00
      0.5442492580D+00  0.1143456438D+01  0.7443082909D+00
 Atom C1       Shell     3 SP   1    bf    6 -     9          3.322503296551         -2.360842681280          0.095575639274
      0.1687144782D+00  0.1000000000D+01  0.1000000000D+01
 Atom C1       Shell     4 D   1     bf   10 -    15          3.322503296551         -2.360842681280          0.095575639274
      0.8000000000D+00  0.1000000000D+01
 Atom H2       Shell     5 S   3     bf   16 -    16          3.558392669664         -2.277090699372         -1.962119481235
      0.1873113696D+02  0.3349460434D-01
      0.2825394365D+01  0.2347269535D+00
      0.6401216923D+00  0.8137573261D+00
 Atom H2       Shell     6 S   1     bf   17 -    17          3.558392669664         -2.277090699372         -1.962119481235
      0.1612777588D+00  0.1000000000D+01
 Atom C3       Shell     7 S   6     bf   18 -    18          5.946112755657         -2.388519648017          1.341401761976
      0.3047524880D+04  0.1834737132D-02
      0.4573695180D+03  0.1403732281D-01
      0.1039486850D+03  0.6884262226D-01
      0.2921015530D+02  0.2321844432D+00
      0.9286662960D+01  0.4679413484D+00
      0.3163926960D+01  0.3623119853D+00
 Atom C3       Shell     8 SP   3    bf   19 -    22          5.946112755657         -2.388519648017          1.341401761976
      0.7868272350D+01 -0.1193324198D+00  0.6899906659D-01
      0.1881288540D+01 -0.1608541517D+00  0.3164239610D+00
      0.5442492580D+00  0.1143456438D+01  0.7443082909D+00
 Atom C3       Shell     9 SP   1    bf   23 -    26          5.946112755657         -2.388519648017          1.341401761976
      0.1687144782D+00  0.1000000000D+01  0.1000000000D+01
 Atom C3       Shell    10 D   1     bf   27 -    32          5.946112755657         -2.388519648017          1.341401761976
      0.8000000000D+00  0.1000000000D+01
 Atom H4       Shell    11 S   3     bf   33 -    33          7.041057663704         -3.989491168044          0.623479913051
      0.1873113696D+02  0.3349460434D-01
      0.2825394365D+01  0.2347269535D+00
      0.6401216923D+00  0.8137573261D+00
 Atom H4       Shell    12 S   1     bf   34 -    34          7.041057663704         -3.989491168044          0.623479913051
      0.1612777588D+00  0.1000000000D+01
 Atom H5       Shell    13 S   3     bf   35 -    35          5.674844270035         -2.718275422014          3.378450037113
      0.1873113696D+02  0.3349460434D-01
      0.2825394365D+01  0.2347269535D+00
      0.6401216923D+00  0.8137573261D+00
 Atom H5       Shell    14 S   1     bf   36 -    36          5.674844270035         -2.718275422014          3.378450037113
      0.1612777588D+00  0.1000000000D+01
 Atom C6       Shell    15 S   6     bf   37 -    37          7.379978836212          0.060291579989          0.926457077217
      0.3047524880D+04  0.1834737132D-02
      0.4573695180D+03  0.1403732281D-01
      0.1039486850D+03  0.6884262226D-01
      0.2921015530D+02  0.2321844432D+00
      0.9286662960D+01  0.4679413484D+00
      0.3163926960D+01  0.3623119853D+00
 Atom C6       Shell    16 SP   3    bf   38 -    41          7.379978836212          0.060291579989          0.926457077217
      0.7868272350D+01 -0.1193324198D+00  0.6899906659D-01
      0.1881288540D+01 -0.1608541517D+00  0.3164239610D+00
      0.5442492580D+00  0.1143456438D+01  0.7443082909D+00
 Atom C6       Shell    17 SP   1    bf   42 -    45          7.379978836212          0.060291579989          0.926457077217
      0.1687144782D+00  0.1000000000D+01  0.1000000000D+01
 Atom C6       Shell    18 D   1     bf   46 -    51          7.379978836212          0.060291579989          0.926457077217
      0.8000000000D+00  0.1000000000D+01
 Atom C7       Shell    19 S   6     bf   52 -    52          5.996926697685          2.511548945090          1.619315620722
      0.3047524880D+04  0.1834737132D-02
      0.4573695180D+03  0.1403732281D-01
      0.1039486850D+03  0.6884262226D-01
      0.2921015530D+02  0.2321844432D+00
      0.9286662960D+01  0.4679413484D+00
      0.3163926960D+01  0.3623119853D+00
 Atom C7       Shell    20 SP   3    bf   53 -    56          5.996926697685          2.511548945090          1.619315620722
      0.7868272350D+01 -0.1193324198D+00  0.6899906659D-01
      0.1881288540D+01 -0.1608541517D+00  0.3164239610D+00
      0.5442492580D+00  0.1143456438D+01  0.7443082909D+00
 Atom C7       Shell    21 SP   1    bf   57 -    60          5.996926697685          2.511548945090          1.619315620722
      0.1687144782D+00  0.1000000000D+01  0.1000000000D+01
 Atom C7       Shell    22 D   1     bf   61 -    66          5.996926697685          2.511548945090          1.619315620722
      0.8000000000D+00  0.1000000000D+01
 Atom C8       Shell    23 S   6     bf   67 -    67          3.295896651799          2.403314332809          0.442814403561
      0.3047524880D+04  0.1834737132D-02
      0.4573695180D+03  0.1403732281D-01
      0.1039486850D+03  0.6884262226D-01
      0.2921015530D+02  0.2321844432D+00
      0.9286662960D+01  0.4679413484D+00
      0.3163926960D+01  0.3623119853D+00
 Atom C8       Shell    24 SP   3    bf   68 -    71          3.295896651799          2.403314332809          0.442814403561
      0.7868272350D+01 -0.1193324198D+00  0.6899906659D-01
      0.1881288540D+01 -0.1608541517D+00  0.3164239610D+00
      0.5442492580D+00  0.1143456438D+01  0.7443082909D+00
 Atom C8       Shell    25 SP   1    bf   72 -    75          3.295896651799          2.403314332809          0.442814403561
      0.1687144782D+00  0.1000000000D+01  0.1000000000D+01
 Atom C8       Shell    26 D   1     bf   76 -    81          3.295896651799          2.403314332809          0.442814403561
      0.8000000000D+00  0.1000000000D+01
 Atom H9       Shell    27 S   3     bf   82 -    82          3.476301492465          2.628593668473         -1.612917839516
      0.1873113696D+02  0.3349460434D-01
      0.2825394365D+01  0.2347269535D+00
      0.6401216923D+00  0.8137573261D+00
 Atom H9       Shell    28 S   1     bf   83 -    83          3.476301492465          2.628593668473         -1.612917839516
      0.1612777588D+00  0.1000000000D+01
 Atom H10      Shell    29 S   3     bf   84 -    84          2.190571156851          4.019050264215          1.115384091414
      0.1873113696D+02  0.3349460434D-01
      0.2825394365D+01  0.2347269535D+00
      0.6401216923D+00  0.8137573261D+00
 Atom H10      Shell    30 S   1     bf   85 -    85          2.190571156851          4.019050264215          1.115384091414
      0.1612777588D+00  0.1000000000D+01
 Atom C11      Shell    31 S   6     bf   86 -    86          1.829562997582         -0.047106828479          0.969109556639
      0.3047524880D+04  0.1834737132D-02
      0.4573695180D+03  0.1403732281D-01
      0.1039486850D+03  0.6884262226D-01
      0.2921015530D+02  0.2321844432D+00
      0.9286662960D+01  0.4679413484D+00
      0.3163926960D+01  0.3623119853D+00
 Atom C11      Shell    32 SP   3    bf   87 -    90          1.829562997582         -0.047106828479          0.969109556639
      0.7868272350D+01 -0.1193324198D+00  0.6899906659D-01
      0.1881288540D+01 -0.1608541517D+00  0.3164239610D+00
      0.5442492580D+00  0.1143456438D+01  0.7443082909D+00
 Atom C11      Shell    33 SP   1    bf   91 -    94          1.829562997582         -0.047106828479          0.969109556639
      0.1687144782D+00  0.1000000000D+01  0.1000000000D+01
 Atom C11      Shell    34 D   1     bf   95 -   100          1.829562997582         -0.047106828479          0.969109556639
      0.8000000000D+00  0.1000000000D+01
 Atom H12      Shell    35 S   3     bf  101 -   101          1.422108242351         -0.229959355816          2.999401531727
      0.1873113696D+02  0.3349460434D-01
      0.2825394365D+01  0.2347269535D+00
      0.6401216923D+00  0.8137573261D+00
 Atom H12      Shell    36 S   1     bf  102 -   102          1.422108242351         -0.229959355816          2.999401531727
      0.1612777588D+00  0.1000000000D+01
 Atom H13      Shell    37 S   3     bf  103 -   103          0.000000000000          0.000000000000          0.000000000000
      0.1873113696D+02  0.3349460434D-01
      0.2825394365D+01  0.2347269535D+00
      0.6401216923D+00  0.8137573261D+00
 Atom H13      Shell    38 S   1     bf  104 -   104          0.000000000000          0.000000000000          0.000000000000
      0.1612777588D+00  0.1000000000D+01
 Atom C14      Shell    39 S   6     bf  105 -   105          9.739990718295          0.000000000000          0.000000000000
      0.3047524880D+04  0.1834737132D-02
      0.4573695180D+03  0.1403732281D-01
      0.1039486850D+03  0.6884262226D-01
      0.2921015530D+02  0.2321844432D+00
      0.9286662960D+01  0.4679413484D+00
      0.3163926960D+01  0.3623119853D+00
 Atom C14      Shell    40 SP   3    bf  106 -   109          9.739990718295          0.000000000000          0.000000000000
      0.7868272350D+01 -0.1193324198D+00  0.6899906659D-01
      0.1881288540D+01 -0.1608541517D+00  0.3164239610D+00
      0.5442492580D+00  0.1143456438D+01  0.7443082909D+00
 Atom C14      Shell    41 SP   1    bf  110 -   113          9.739990718295          0.000000000000          0.000000000000
      0.1687144782D+00  0.1000000000D+01  0.1000000000D+01
 Atom C14      Shell    42 D   1     bf  114 -   119          9.739990718295          0.000000000000          0.000000000000
      0.8000000000D+00  0.1000000000D+01
 Atom H15      Shell    43 S   3     bf  120 -   120         10.590731136991         -1.817771635636         -0.450145123662
      0.1873113696D+02  0.3349460434D-01
      0.2825394365D+01  0.2347269535D+00
      0.6401216923D+00  0.8137573261D+00
 Atom H15      Shell    44 S   1     bf  121 -   121         10.590731136991         -1.817771635636         -0.450145123662
      0.1612777588D+00  0.1000000000D+01
 Atom C16      Shell    45 S   6     bf  122 -   122         11.343714492154          2.288891717819         -0.488576861972
      0.3047524880D+04  0.1834737132D-02
      0.4573695180D+03  0.1403732281D-01
      0.1039486850D+03  0.6884262226D-01
      0.2921015530D+02  0.2321844432D+00
      0.9286662960D+01  0.4679413484D+00
      0.3163926960D+01  0.3623119853D+00
 Atom C16      Shell    46 SP   3    bf  123 -   126         11.343714492154          2.288891717819         -0.488576861972
      0.7868272350D+01 -0.1193324198D+00  0.6899906659D-01
      0.1881288540D+01 -0.1608541517D+00  0.3164239610D+00
      0.5442492580D+00  0.1143456438D+01  0.7443082909D+00
 Atom C16      Shell    47 SP   1    bf  127 -   130         11.343714492154          2.288891717819         -0.488576861972
      0.1687144782D+00  0.1000000000D+01  0.1000000000D+01
 Atom C16      Shell    48 D   1     bf  131 -   136         11.343714492154          2.288891717819         -0.488576861972
      0.8000000000D+00  0.1000000000D+01
 Atom H17      Shell    49 S   3     bf  137 -   137         13.296400233767          1.934785254127          0.113081665326
      0.1873113696D+02  0.3349460434D-01
      0.2825394365D+01  0.2347269535D+00
      0.6401216923D+00  0.8137573261D+00
 Atom H17      Shell    50 S   1     bf  138 -   138         13.296400233767          1.934785254127          0.113081665326
      0.1612777588D+00  0.1000000000D+01
 Atom C18      Shell    51 S   6     bf  139 -   139         10.326722544534          4.672808522099          0.832212504339
      0.3047524880D+04  0.1834737132D-02
      0.4573695180D+03  0.1403732281D-01
      0.1039486850D+03  0.6884262226D-01
      0.2921015530D+02  0.2321844432D+00
      0.9286662960D+01  0.4679413484D+00
      0.3163926960D+01  0.3623119853D+00
 Atom C18      Shell    52 SP   3    bf  140 -   143         10.326722544534          4.672808522099          0.832212504339
      0.7868272350D+01 -0.1193324198D+00  0.6899906659D-01
      0.1881288540D+01 -0.1608541517D+00  0.3164239610D+00
      0.5442492580D+00  0.1143456438D+01  0.7443082909D+00
 Atom C18      Shell    53 SP   1    bf  144 -   147         10.326722544534          4.672808522099          0.832212504339
      0.1687144782D+00  0.1000000000D+01  0.1000000000D+01
 Atom C18      Shell    54 D   1     bf  148 -   153         10.326722544534          4.672808522099          0.832212504339
      0.8000000000D+00  0.1000000000D+01
 Atom H19      Shell    55 S   3     bf  154 -   154         10.779802526264          4.408401499785          2.842028843244
      0.1873113696D+02  0.3349460434D-01
      0.2825394365D+01  0.2347269535D+00
      0.6401216923D+00  0.8137573261D+00
 Atom H19      Shell    56 S   1     bf  155 -   155         10.779802526264          4.408401499785          2.842028843244
      0.1612777588D+00  0.1000000000D+01
 Atom C20      Shell    57 S   6     bf  156 -   156          7.418425333283          4.866454900546          0.509148628524
      0.3047524880D+04  0.1834737132D-02
      0.4573695180D+03  0.1403732281D-01
      0.1039486850D+03  0.6884262226D-01
      0.2921015530D+02  0.2321844432D+00
      0.9286662960D+01  0.4679413484D+00
      0.3163926960D+01  0.3623119853D+00
 Atom C20      Shell    58 SP   3    bf  157 -   160          7.418425333283          4.866454900546          0.509148628524
      0.7868272350D+01 -0.1193324198D+00  0.6899906659D-01
      0.1881288540D+01 -0.1608541517D+00  0.3164239610D+00
      0.5442492580D+00  0.1143456438D+01  0.7443082909D+00
 Atom C20      Shell    59 SP   1    bf  161 -   164          7.418425333283          4.866454900546          0.509148628524
      0.1687144782D+00  0.1000000000D+01  0.1000000000D+01
 Atom C20      Shell    60 D   1     bf  165 -   170          7.418425333283          4.866454900546          0.509148628524
      0.8000000000D+00  0.1000000000D+01
 Atom H21      Shell    61 S   3     bf  171 -   171          7.077523746685          4.828492985947         -1.540896578242
      0.1873113696D+02  0.3349460434D-01
      0.2825394365D+01  0.2347269535D+00
      0.6401216923D+00  0.8137573261D+00
 Atom H21      Shell    62 S   1     bf  172 -   172          7.077523746685          4.828492985947         -1.540896578242
      0.1612777588D+00  0.1000000000D+01
 Atom C22      Shell    63 S   6     bf  173 -   173          6.378533948946          7.414600187439          1.497310271754
      0.3047524880D+04  0.1834737132D-02
      0.4573695180D+03  0.1403732281D-01
      0.1039486850D+03  0.6884262226D-01
      0.2921015530D+02  0.2321844432D+00
      0.9286662960D+01  0.4679413484D+00
      0.3163926960D+01  0.3623119853D+00
 Atom C22      Shell    64 SP   3    bf  174 -   177          6.378533948946          7.414600187439          1.497310271754
      0.7868272350D+01 -0.1193324198D+00  0.6899906659D-01
      0.1881288540D+01 -0.1608541517D+00  0.3164239610D+00
      0.5442492580D+00  0.1143456438D+01  0.7443082909D+00
 Atom C22      Shell    65 SP   1    bf  178 -   181          6.378533948946          7.414600187439          1.497310271754
      0.1687144782D+00  0.1000000000D+01  0.1000000000D+01
 Atom C22      Shell    66 D   1     bf  182 -   187          6.378533948946          7.414600187439          1.497310271754
      0.8000000000D+00  0.1000000000D+01
 Atom H23      Shell    67 S   3     bf  188 -   188          6.392360734910          7.427085891458          3.565914611153
      0.1873113696D+02  0.3349460434D-01
      0.2825394365D+01  0.2347269535D+00
      0.6401216923D+00  0.8137573261D+00
 Atom H23      Shell    68 S   1     bf  189 -   189          6.392360734910          7.427085891458          3.565914611153
      0.1612777588D+00  0.1000000000D+01
 Atom H24      Shell    69 S   3     bf  190 -   190          4.392364546828          7.609786371431          0.942506294496
      0.1873113696D+02  0.3349460434D-01
      0.2825394365D+01  0.2347269535D+00
      0.6401216923D+00  0.8137573261D+00
 Atom H24      Shell    70 S   1     bf  191 -   191          4.392364546828          7.609786371431          0.942506294496
      0.1612777588D+00  0.1000000000D+01
 Atom C25      Shell    71 S   6     bf  192 -   192          7.835988781620          9.759142828090          0.561025182455
      0.3047524880D+04  0.1834737132D-02
      0.4573695180D+03  0.1403732281D-01
      0.1039486850D+03  0.6884262226D-01
      0.2921015530D+02  0.2321844432D+00
      0.9286662960D+01  0.4679413484D+00
      0.3163926960D+01  0.3623119853D+00
 Atom C25      Shell    72 SP   3    bf  193 -   196          7.835988781620          9.759142828090          0.561025182455
      0.7868272350D+01 -0.1193324198D+00  0.6899906659D-01
      0.1881288540D+01 -0.1608541517D+00  0.3164239610D+00
      0.5442492580D+00  0.1143456438D+01  0.7443082909D+00
 Atom C25      Shell    73 SP   1    bf  197 -   200          7.835988781620          9.759142828090          0.561025182455
      0.1687144782D+00  0.1000000000D+01  0.1000000000D+01
 Atom C25      Shell    74 D   1     bf  201 -   206          7.835988781620          9.759142828090          0.561025182455
      0.8000000000D+00  0.1000000000D+01
 Atom H26      Shell    75 S   3     bf  207 -   207          7.596200733419          9.955065589534         -1.493209206998
      0.1873113696D+02  0.3349460434D-01
      0.2825394365D+01  0.2347269535D+00
      0.6401216923D+00  0.8137573261D+00
 Atom H26      Shell    76 S   1     bf  208 -   208          7.596200733419          9.955065589534         -1.493209206998
      0.1612777588D+00  0.1000000000D+01
 Atom H27      Shell    77 S   3     bf  209 -   209          6.984474406689         11.439084302457          1.417004262141
      0.1873113696D+02  0.3349460434D-01
      0.2825394365D+01  0.2347269535D+00
      0.6401216923D+00  0.8137573261D+00
 Atom H27      Shell    78 S   1     bf  210 -   210          6.984474406689         11.439084302457          1.417004262141
      0.1612777588D+00  0.1000000000D+01
 Atom C28      Shell    79 S   6     bf  211 -   211         10.683646249739          9.567140416893          1.152271167582
      0.3047524880D+04  0.1834737132D-02
      0.4573695180D+03  0.1403732281D-01
      0.1039486850D+03  0.6884262226D-01
      0.2921015530D+02  0.2321844432D+00
      0.9286662960D+01  0.4679413484D+00
      0.3163926960D+01  0.3623119853D+00
 Atom C28      Shell    80 SP   3    bf  212 -   215         10.683646249739          9.567140416893          1.152271167582
      0.7868272350D+01 -0.1193324198D+00  0.6899906659D-01
      0.1881288540D+01 -0.1608541517D+00  0.3164239610D+00
      0.5442492580D+00  0.1143456438D+01  0.7443082909D+00
 Atom C28      Shell    81 SP   1    bf  216 -   219         10.683646249739          9.567140416893          1.152271167582
      0.1687144782D+00  0.1000000000D+01  0.1000000000D+01
 Atom C28      Shell    82 D   1     bf  220 -   225         10.683646249739          9.567140416893          1.152271167582
      0.8000000000D+00  0.1000000000D+01
 Atom C29      Shell    83 S   6     bf  226 -   226         11.624062280365          7.090591656428         -0.115813094376
      0.3047524880D+04  0.1834737132D-02
      0.4573695180D+03  0.1403732281D-01
      0.1039486850D+03  0.6884262226D-01
      0.2921015530D+02  0.2321844432D+00
      0.9286662960D+01  0.4679413484D+00
      0.3163926960D+01  0.3623119853D+00
 Atom C29      Shell    84 SP   3    bf  227 -   230         11.624062280365          7.090591656428         -0.115813094376
      0.7868272350D+01 -0.1193324198D+00  0.6899906659D-01
      0.1881288540D+01 -0.1608541517D+00  0.3164239610D+00
      0.5442492580D+00  0.1143456438D+01  0.7443082909D+00
 Atom C29      Shell    85 SP   1    bf  231 -   234         11.624062280365          7.090591656428         -0.115813094376
      0.1687144782D+00  0.1000000000D+01  0.1000000000D+01
 Atom C29      Shell    86 D   1     bf  235 -   240         11.624062280365          7.090591656428         -0.115813094376
      0.8000000000D+00  0.1000000000D+01
 Atom H30      Shell    87 S   3     bf  241 -   241         11.110352627744          7.276784463678         -2.118759088260
      0.1873113696D+02  0.3349460434D-01
      0.2825394365D+01  0.2347269535D+00
      0.6401216923D+00  0.8137573261D+00
 Atom H30      Shell    88 S   1     bf  242 -   242         11.110352627744          7.276784463678         -2.118759088260
      0.1612777588D+00  0.1000000000D+01
 Atom C31      Shell    89 S   6     bf  243 -   243         14.518308130599          7.258193281291          0.000000000000
      0.3047524880D+04  0.1834737132D-02
      0.4573695180D+03  0.1403732281D-01
      0.1039486850D+03  0.6884262226D-01
      0.2921015530D+02  0.2321844432D+00
      0.9286662960D+01  0.4679413484D+00
      0.3163926960D+01  0.3623119853D+00
 Atom C31      Shell    90 SP   3    bf  244 -   247         14.518308130599          7.258193281291          0.000000000000
      0.7868272350D+01 -0.1193324198D+00  0.6899906659D-01
      0.1881288540D+01 -0.1608541517D+00  0.3164239610D+00
      0.5442492580D+00  0.1143456438D+01  0.7443082909D+00
 Atom C31      Shell    91 SP   1    bf  248 -   251         14.518308130599          7.258193281291          0.000000000000
      0.1687144782D+00  0.1000000000D+01  0.1000000000D+01
 Atom C31      Shell    92 D   1     bf  252 -   257         14.518308130599          7.258193281291          0.000000000000
      0.8000000000D+00  0.1000000000D+01
 Atom H32      Shell    93 S   3     bf  258 -   258         15.415014096573          6.124785643425         -1.476971640715
      0.1873113696D+02  0.3349460434D-01
      0.2825394365D+01  0.2347269535D+00
      0.6401216923D+00  0.8137573261D+00
 Atom H32      Shell    94 S   1     bf  259 -   259         15.415014096573          6.124785643425         -1.476971640715
      0.1612777588D+00  0.1000000000D+01
 Atom H33      Shell    95 S   3     bf  260 -   260         15.230074423414          6.560450230368          1.818964222901
      0.1873113696D+02  0.3349460434D-01
      0.2825394365D+01  0.2347269535D+00
      0.6401216923D+00  0.8137573261D+00
 Atom H33      Shell    96 S   1     bf  261 -   261         15.230074423414          6.560450230368          1.818964222901
      0.1612777588D+00  0.1000000000D+01
 Atom C34      Shell    97 S   6     bf  262 -   262         15.056186397803         10.129335868947         -0.305022906089
      0.3047524880D+04  0.1834737132D-02
      0.4573695180D+03  0.1403732281D-01
      0.1039486850D+03  0.6884262226D-01
      0.2921015530D+02  0.2321844432D+00
      0.9286662960D+01  0.4679413484D+00
      0.3163926960D+01  0.3623119853D+00
 Atom C34      Shell    98 SP   3    bf  263 -   266         15.056186397803         10.129335868947         -0.305022906089
      0.7868272350D+01 -0.1193324198D+00  0.6899906659D-01
      0.1881288540D+01 -0.1608541517D+00  0.3164239610D+00
      0.5442492580D+00  0.1143456438D+01  0.7443082909D+00
 Atom C34      Shell    99 SP   1    bf  267 -   270         15.056186397803         10.129335868947         -0.305022906089
      0.1687144782D+00  0.1000000000D+01  0.1000000000D+01
 Atom C34      Shell   100 D   1     bf  271 -   276         15.056186397803         10.129335868947         -0.305022906089
      0.8000000000D+00  0.1000000000D+01
 Atom H35      Shell   101 S   3     bf  277 -   277         16.289357818278         10.810325741811          1.214434918148
      0.1873113696D+02  0.3349460434D-01
      0.2825394365D+01  0.2347269535D+00
      0.6401216923D+00  0.8137573261D+00
 Atom H35      Shell   102 S   1     bf  278 -   278         16.289357818278         10.810325741811          1.214434918148
      0.1612777588D+00  0.1000000000D+01
 Atom H36      Shell   103 S   3     bf  279 -   279         16.043396318260         10.530668119378         -2.077509749389
      0.1873113696D+02  0.3349460434D-01
      0.2825394365D+01  0.2347269535D+00
      0.6401216923D+00  0.8137573261D+00
 Atom H36      Shell   104 S   1     bf  280 -   280         16.043396318260         10.530668119378         -2.077509749389
      0.1612777588D+00  0.1000000000D+01
 Atom C37      Shell   105 S   6     bf  281 -   281         12.448877961984         11.520252329543         -0.209171404594
      0.3047524880D+04  0.1834737132D-02
      0.4573695180D+03  0.1403732281D-01
      0.1039486850D+03  0.6884262226D-01
      0.2921015530D+02  0.2321844432D+00
      0.9286662960D+01  0.4679413484D+00
      0.3163926960D+01  0.3623119853D+00
 Atom C37      Shell   106 SP   3    bf  282 -   285         12.448877961984         11.520252329543         -0.209171404594
      0.7868272350D+01 -0.1193324198D+00  0.6899906659D-01
      0.1881288540D+01 -0.1608541517D+00  0.3164239610D+00
      0.5442492580D+00  0.1143456438D+01  0.7443082909D+00
[...]
 1631 Fit      -0.003671
 1632 Fit      -0.002120
 1633 Fit      -0.001686
 1634 Fit      -0.002756
 1635 Fit      -0.003284
 1636 Fit      -0.003419
 1637 Fit      -0.002074
 1638 Fit      -0.002842
 1639 Fit      -0.003153
 1640 Fit      -0.003502
 1641 Fit      -0.003722
 1642 Fit      -0.003375
 1643 Fit      -0.003882
 1644 Fit      -0.000175
 1645 Fit       0.002260
 1646 Fit      -0.000771
 1647 Fit       0.001073
 1648 Fit       0.001622
 1649 Fit       0.001200
 1650 Fit      -0.002367
 1651 Fit      -0.000731
 1652 Fit      -0.000486
 1653 Fit       0.000295
 1654 Fit      -0.000127
 1655 Fit      -0.000440
 1656 Fit      -0.000703
 1657 Fit      -0.001154
 1658 Fit      -0.001882
 1659 Fit      -0.002710
 1660 Fit      -0.003486
 1661 Fit       0.001522
 1662 Fit       0.001167
 1663 Fit       0.000741
 1664 Fit      -0.000106
 1665 Fit      -0.000528
 1666 Fit       0.001258
 1667 Fit       0.002095
 1668 Fit       0.001323
 1669 Fit      -0.000462
 1670 Fit       0.001020
 1671 Fit       0.001583
 1672 Fit       0.001586
 1673 Fit       0.000559
 1674 Fit      -0.001204
 1675 Fit      -0.000234
 1676 Fit       0.000180
 1677 Fit      -0.000178
 1678 Fit      -0.001421
 1679 Fit      -0.002449
 1680 Fit      -0.002403
 1681 Fit       0.010603
 1682 Fit       0.006823
 1683 Fit       0.000155
 1684 Fit      -0.007827
 1685 Fit      -0.013685
 1686 Fit      -0.011453
 1687 Fit      -0.003206
 1688 Fit       0.005329
 1689 Fit       0.007294
 1690 Fit       0.006649
 1691 Fit       0.004676
 1692 Fit       0.000185
 1693 Fit      -0.002574
 1694 Fit       0.001774
 1695 Fit       0.003542
 1696 Fit       0.002220
 1697 Fit       0.006380
 1698 Fit       0.004083
 1699 Fit       0.003655
 1700 Fit       0.001843
 1701 Fit       0.003195
 1702 Fit       0.003462
 1703 Fit      -0.005608
 1704 Fit       0.000728
 1705 Fit       0.003712
 1706 Fit       0.005219
 1707 Fit      -0.010134
 1708 Fit      -0.000300
 1709 Fit       0.004299
 1710 Fit      -0.005822
 1711 Fit       0.002547
 1712 Fit       0.004714
 1713 Fit       0.008916
 1714 Fit       0.015976
 1715 Fit       0.010784
 1716 Fit       0.004267
 1717 Fit       0.013198
 1718 Fit       0.008111
 1719 Fit       0.005892
 1720 Fit       0.005079
 1721 Fit       0.004858
 1722 Fit       0.003852
 1723 Fit       0.004183
 1724 Fit       0.004526
 1725 Fit       0.004901
 1726 Fit       0.002625
 1727 Fit       0.003033
 1728 Fit       0.004230
 1729 Fit       0.004807
 1730 Fit       0.005784
 1731 Fit       0.006158
 1732 Fit       0.004708
 1733 Fit       0.009297
 1734 Fit       0.008743
 1735 Fit       0.008525
 1736 Fit       0.007885
 1737 Fit       0.007261
 1738 Fit       0.007485
 1739 Fit       0.006762
 1740 Fit       0.006563
 1741 Fit       0.005724
 1742 Fit       0.007165
 1743 Fit       0.006034
 1744 Fit       0.006228
 1745 Fit       0.006042
 1746 Fit      -0.001148
 1747 Fit       0.010932
 1748 Fit       0.012509
 1749 Fit       0.017661
 1750 Fit       0.009199
 1751 Fit       0.009086
 1752 Fit       0.011240
 1753 Fit       0.018679
 1754 Fit       0.006330
 1755 Fit       0.008258
 1756 Fit       0.006286
 1757 Fit       0.004785
 1758 Fit       0.002982
 1759 Fit      -0.000441
 1760 Fit       0.005580
 1761 Fit       0.004386
 1762 Fit       0.002191
 1763 Fit      -0.002518
 1764 Fit       0.004729
 1765 Fit       0.003134
 1766 Fit      -0.000603
 1767 Fit      -0.008728
 1768 Fit       0.004291
 1769 Fit       0.001579
 1770 Fit      -0.003058
 1771 Fit       0.003134
 1772 Fit       0.001677
 1773 Fit      -0.000566
 1774 Fit       0.003167
 1775 Fit      -0.000092
 1776 Fit       0.000163
 1777 Fit       0.001367
 1778 Fit       0.003266
 1779 Fit       0.001639
 1780 Fit       0.005614
 1781 Fit       0.003335
 1782 Fit       0.000374
 1783 Fit       0.006169
 1784 Fit       0.003011
 1785 Fit      -0.003418
 1786 Fit       0.008711
 1787 Fit       0.006458
 1788 Fit       0.004860
 1789 Fit       0.003970
 1790 Fit       0.001985
 1791 Fit       0.002078
 1792 Fit       0.002067
 1793 Fit      -0.002458
 1794 Fit      -0.001425
 1795 Fit      -0.002101
 1796 Fit      -0.009376
 1797 Fit      -0.010476
 1798 Fit      -0.010468
 1799 Fit       0.006946
 1800 Fit       0.005407
 1801 Fit       0.006181
 1802 Fit       0.002278
 1803 Fit      -0.008094
 1804 Fit      -0.001002
 1805 Fit       0.001524
 1806 Fit      -0.000287
 1807 Fit      -0.006180
 1808 Fit       0.004736
 1809 Fit       0.007003
 1810 Fit       0.006110
 1811 Fit       0.004773
 1812 Fit       0.005464
 1813 Fit       0.007457
 1814 Fit       0.007120
 1815 Fit       0.004427
 1816 Fit       0.006317
 1817 Fit       0.003883
 1818 Fit       0.005828
 1819 Fit       0.003445
 1820 Fit       0.005222
 1821 Fit       0.002733
 1822 Fit       0.004133
 1823 Fit       0.000423
 1824 Fit       0.002080
 1825 Fit       0.001441
 1826 Fit       0.001000
 1827 Fit       0.001505
 1828 Fit       0.002152
 1829 Fit       0.000980
 1830 Fit       0.001145
 1831 Fit       0.001135
 1832 Fit      -0.000469
 1833 Fit      -0.000097
 1834 Fit       0.005869
 1835 Fit       0.004917
 1836 Fit       0.004769
 1837 Fit       0.004481
 1838 Fit       0.002773
 1839 Fit       0.003444
 1840 Fit       0.000784
 1841 Fit       0.001976
 1842 Fit      -0.000157
 1843 Fit      -0.017118
 1844 Fit      -0.007106
 1845 Fit      -0.004760
 1846 Fit      -0.009167
 1847 Fit      -0.014120
 1848 Fit      -0.004384
 1849 Fit      -0.004567
 1850 Fit      -0.004818
 1851 Fit      -0.005959
 1852 Fit      -0.007446
 1853 Fit      -0.006731
 1854 Fit      -0.007058
 1855 Fit      -0.014134
 1856 Fit      -0.009094
 1857 Fit      -0.008909
 1858 Fit      -0.014138
 1859 Fit      -0.012931
 1860 Fit      -0.019686
 1861 Fit       0.003082
 1862 Fit       0.005306
 1863 Fit       0.003703
 1864 Fit       0.000996
 1865 Fit       0.002104
 1866 Fit       0.005840
 1867 Fit       0.002943
 1868 Fit       0.001339
 1869 Fit      -0.001895
 1870 Fit      -0.000411
 1871 Fit      -0.001716
 1872 Fit      -0.004323
 1873 Fit      -0.003896
 1874 Fit      -0.002061
 1875 Fit      -0.005515
 1876 Fit      -0.010110
 1877 Fit       0.002618
 1878 Fit       0.002547
 1879 Fit       0.000985
 1880 Fit       0.001244
 1881 Fit       0.000833
 1882 Fit       0.000677
 1883 Fit      -0.000838
 1884 Fit       0.000008
 1885 Fit      -0.001918
 1886 Fit      -0.002787
 1887 Fit      -0.002922
 1888 Fit      -0.001096
 1889 Fit      -0.005006
 1890 Fit      -0.002440
 1891 Fit      -0.000644
 1892 Fit      -0.005164
 1893 Fit      -0.002980
 1894 Fit      -0.008033
 1895 Fit      -0.006396
 1896 Fit      -0.003829
 1897 Fit       0.000219
 1898 Fit      -0.002754
 1899 Fit      -0.004110
 1900 Fit       0.001122
 1901 Fit       0.000772
 1902 Fit       0.000543
 1903 Fit       0.002181
 1904 Fit       0.001880
 1905 Fit       0.004489
 1906 Fit       0.002980
 1907 Fit       0.004598
 1908 Fit       0.006091
 1909 Fit       0.004556
 1910 Fit       0.005240
 1911 Fit       0.007176
 1912 Fit       0.001871
 1913 Fit       0.000800
 1914 Fit       0.001896
 1915 Fit       0.002955
 1916 Fit       0.002315
 1917 Fit       0.001244
 1918 Fit       0.003214
 1919 Fit       0.003124
 1920 Fit       0.003440
 1921 Fit       0.001302
 1922 Fit       0.001542
 1923 Fit       0.002721
 1924 Fit       0.002636
 1925 Fit       0.001839
 1926 Fit       0.002953
 1927 Fit       0.004053
 1928 Fit       0.004109
 1929 Fit       0.005788
 1930 Fit       0.004876
 1931 Fit       0.001318
 1932 Fit       0.001570
 1933 Fit       0.001174
 1934 Fit       0.001260
 1935 Fit       0.001390
 1936 Fit       0.000423
 1937 Fit       0.000384
 1938 Fit       0.000316
 1939 Fit       0.000261
 1940 Fit       0.000472
 1941 Fit      -0.000167
 1942 Fit      -0.000540
 1943 Fit      -0.001091
 1944 Fit       0.000150
 1945 Fit      -0.001374
 1946 Fit      -0.001321
 1947 Fit      -0.000582
 1948 Fit      -0.001074
 1949 Fit      -0.000771
 1950 Fit      -0.000075
 1951 Fit       0.000315
 1952 Fit       0.000857
 1953 Fit       0.001225
 1954 Fit       0.001163
 1955 Fit       0.001932
 1956 Fit       0.001566
 1957 Fit       0.000669
 1958 Fit       0.000224
 1959 Fit       0.001291
 1960 Fit       0.001645
 1961 Fit       0.001262
 1962 Fit       0.000231
 1963 Fit       0.001954
 1964 Fit       0.001295
 1965 Fit       0.000162
 1966 Fit       0.001451
 1967 Fit       0.000722
 1968 Fit      -0.000443
 1969 Fit      -0.000205
 1970 Fit       0.001921
 1971 Fit       0.004281
 1972 Fit       0.000832
 1973 Fit       0.003079
 1974 Fit       0.005328
 1975 Fit       0.001097
 1976 Fit       0.003610
 1977 Fit       0.005473
 1978 Fit       0.005395
 1979 Fit       0.005609
 1980 Fit       0.006329
 1981 Fit       0.006031
 1982 Fit       0.006315
 1983 Fit       0.008644
 1984 Fit       0.010484
 1985 Fit       0.004983
 1986 Fit       0.006029
 1987 Fit       0.006818
 1988 Fit       0.006992
 1989 Fit       0.007544
 1990 Fit       0.007935
 1991 Fit       0.008140
 1992 Fit       0.008399
 1993 Fit       0.008382
 1994 Fit       0.009065
 1995 Fit       0.009233
 1996 Fit       0.008831
 1997 Fit       0.010656
 1998 Fit       0.008547
 1999 Fit       0.012871
 2000 Fit       0.015969
 2001 Fit       0.015100
 2002 Fit       0.010821
 2003 Fit       0.005611
 2004 Fit       0.006492
 2005 Fit       0.006406
 2006 Fit       0.005800
 2007 Fit       0.007483
 2008 Fit       0.005422
 2009 Fit       0.005982
 2010 Fit       0.002905
 2011 Fit       0.005653
 2012 Fit      -0.000041
 2013 Fit      -0.022656
 2014 Fit      -0.018197
 2015 Fit      -0.014643
 2016 Fit      -0.010506
 2017 Fit      -0.003036
 2018 Fit      -0.014377
 2019 Fit      -0.017639
 2020 Fit      -0.004567
 2021 Fit      -0.012083
 2022 Fit      -0.016266
 2023 Fit      -0.021188
 2024 Fit      -0.021970
 2025 Fit       0.002663
 2026 Fit      -0.006269
 2027 Fit      -0.013309
 2028 Fit      -0.018301
 2029 Fit      -0.021385
 2030 Fit      -0.023970
 2031 Fit      -0.025202
 2032 Fit       0.000771
 2033 Fit      -0.008958
 2034 Fit      -0.016392
 2035 Fit      -0.018506
 2036 Fit      -0.022140
 2037 Fit      -0.022992
 2038 Fit      -0.021307
 2039 Fit      -0.001708
 2040 Fit      -0.011618
 2041 Fit      -0.012432
 2042 Fit      -0.015281
 2043 Fit      -0.007721
 2044 Fit      -0.001165
 2045 Fit      -0.003232
 2046 Fit       0.013265
 2047 Fit       0.011452
 2048 Fit       0.015706
 2049 Fit       0.016668
 2050 Fit       0.015095
 2051 Fit       0.010083
 2052 Fit      -0.000927
 2053 Fit       0.009643
 2054 Fit       0.015487
 2055 Fit       0.016980
 2056 Fit       0.014879
 2057 Fit       0.008862
 2058 Fit       0.002526
 2059 Fit       0.011510
 2060 Fit       0.013599
 2061 Fit       0.007969
 2062 Fit       0.006378
 2063 Fit       0.001424
 2064 Fit      -0.000155
 2065 Fit      -0.002348
 2066 Fit      -0.004155
 2067 Fit      -0.005317
 2068 Fit      -0.004026
 2069 Fit      -0.009238
 2070 Fit      -0.012224
 2071 Fit      -0.013517
 2072 Fit      -0.014356
 2073 Fit      -0.015269
 2074 Fit      -0.015830
 2075 Fit      -0.014768
 2076 Fit      -0.014498
 2077 Fit      -0.019236
 2078 Fit      -0.021207
 2079 Fit      -0.022026
 2080 Fit      -0.022128
 2081 Fit      -0.020636
 2082 Fit      -0.015677
 2083 Fit      -0.018889
 2084 Fit      -0.022754
 2085 Fit      -0.023917
 2086 Fit      -0.022955
 2087 Fit      -0.018926
 2088 Fit      -0.010534
 2089 Fit      -0.016317
 2090 Fit      -0.020080
 2091 Fit      -0.015798
 2092 Fit       0.023493
 2093 Fit       0.020915
 2094 Fit       0.019349
 2095 Fit       0.019556
 2096 Fit       0.016154
 2097 Fit       0.014424
 2098 Fit       0.013296
 2099 Fit       0.012349
 2100 Fit       0.012054
 2101 Fit       0.005477
 2102 Fit       0.004369
 2103 Fit       0.003405
 2104 Fit       0.002091
 2105 Fit       0.000733
 2106 Fit      -0.001245
 2107 Fit      -0.002705
 2108 Fit      -0.000850
 2109 Fit       0.000304
 2110 Fit       0.001051
 2111 Fit      -0.000891
 2112 Fit       0.000605
 2113 Fit       0.001597
 2114 Fit      -0.002284
 2115 Fit      -0.000383
 2116 Fit       0.001077
 2117 Fit       0.001740
 2118 Fit      -0.000475
 2119 Fit      -0.000643
 2120 Fit      -0.002182
 2121 Fit      -0.000726
 2122 Fit      -0.002030
 2123 Fit      -0.000708
 2124 Fit      -0.000425
 2125 Fit      -0.001007
 2126 Fit      -0.000262
 2127 Fit      -0.000440
 2128 Fit       0.001001
 2129 Fit      -0.003118
 2130 Fit      -0.001678
 2131 Fit      -0.001435
 2132 Fit      -0.002812
 2133 Fit      -0.000456
 2134 Fit      -0.000761
 2135 Fit      -0.001844
 2136 Fit      -0.000293
 2137 Fit      -0.000215
 2138 Fit      -0.000505
 2139 Fit      -0.001358
 2140 Fit      -0.000001
 2141 Fit       0.000027
 2142 Fit      -0.000553
 2143 Fit      -0.001385
 2144 Fit       0.000282
 2145 Fit       0.001222
 2146 Fit       0.001364
 2147 Fit      -0.002088
 2148 Fit      -0.000496
 2149 Fit       0.000686
 2150 Fit       0.001427
 2151 Fit      -0.000754
 2152 Fit       0.000287
 2153 Fit      -0.001635
 2154 Fit      -0.000943
 2155 Fit      -0.000538
 2156 Fit      -0.000329
 2157 Fit      -0.000494
 2158 Fit      -0.000718
 2159 Fit      -0.000151
 2160 Fit      -0.000045
 2161 Fit      -0.000548
 2162 Fit      -0.001428
 2163 Fit      -0.001000
 2164 Fit      -0.000243
 2165 Fit      -0.000304
 2166 Fit      -0.001104
 2167 Fit      -0.000367
 2168 Fit      -0.005320
 2169 Fit      -0.001825
 2170 Fit      -0.005907
 2171 Fit      -0.002944
 2172 Fit      -0.002252
 2173 Fit      -0.005474
 2174 Fit      -0.005244
 2175 Fit      -0.003975
 2176 Fit      -0.004599
 2177 Fit      -0.004453
 2178 Fit      -0.003715
 2179 Fit       0.000389
 2180 Fit      -0.000966
 2181 Fit      -0.003394
 2182 Fit      -0.004862
 2183 Fit      -0.000667
 2184 Fit      -0.000830
 2185 Fit      -0.002152
 2186 Fit      -0.004226
 2187 Fit      -0.002344
 2188 Fit      -0.003021
 2189 Fit      -0.004630
 2190 Fit      -0.001982
 2191 Fit      -0.000766
 2192 Fit       0.000311
 2193 Fit       0.001260
 2194 Fit      -0.001148
 2195 Fit      -0.002422
 2196 Fit      -0.003364
 2197 Fit      -0.003966
 2198 Fit      -0.003821
 2199 Fit      -0.003051
 2200 Fit      -0.000790
 2201 Fit       0.000323
 2202 Fit       0.000522
 2203 Fit      -0.000634
 2204 Fit      -0.001673
 2205 Fit      -0.001730
 2206 Fit      -0.000268
 2207 Fit      -0.001329
 2208 Fit      -0.000178
 2209 Fit      -0.000270
 2210 Fit      -0.000747
 2211 Fit      -0.003429
 2212 Fit      -0.001640
 2213 Fit      -0.000502
 2214 Fit      -0.001198
 2215 Fit      -0.001670
 2216 Fit      -0.004204
 2217 Fit      -0.002388
 2218 Fit      -0.001328
 2219 Fit      -0.002554
 2220 Fit      -0.004011
 2221 Fit      -0.002772
 2222 Fit      -0.000878
 2223 Fit      -0.002392
 2224 Fit      -0.001751
 2225 Fit      -0.002648
 2226 Fit      -0.002878
 2227 Fit      -0.002369
 2228 Fit      -0.001212
 2229 Fit      -0.002632
 2230 Fit      -0.002726
 2231 Fit      -0.003064
 2232 Fit      -0.000009
 2233 Fit      -0.001238
 2234 Fit       0.000482
 2235 Fit       0.001588
 2236 Fit       0.001440
 2237 Fit      -0.001993
 2238 Fit      -0.000453
 2239 Fit       0.000418
 2240 Fit       0.000466
 2241 Fit      -0.002417
 2242 Fit      -0.001379
 2243 Fit      -0.001343
 2244 Fit      -0.001323
 2245 Fit      -0.001630
 2246 Fit      -0.001856
 2247 Fit      -0.002197
 2248 Fit       0.000114
 2249 Fit      -0.000110
 2250 Fit      -0.000338
 2251 Fit      -0.000706
 2252 Fit      -0.001246
 2253 Fit      -0.001848
 2254 Fit      -0.002445
 2255 Fit       0.001102
 2256 Fit       0.000776
 2257 Fit       0.000418
 2258 Fit      -0.000179
 2259 Fit      -0.000398
 2260 Fit       0.000753
 2261 Fit       0.001017
 2262 Fit      -0.000189
 2263 Fit       0.001380
 2264 Fit       0.001274
 2265 Fit       0.000516
 2266 Fit      -0.000664
 2267 Fit       0.000259
 2268 Fit       0.000594
 2269 Fit       0.000457
 2270 Fit      -0.000259
 2271 Fit      -0.001393
 2272 Fit      -0.001096
 2273 Fit      -0.000837
 2274 Fit      -0.000965
 2275 Fit      -0.001654
 -----------------------------------------------------------------
 Leave Link  602 at Wed Apr 26 13:17:04 2017, MaxMem=    33554432 cpu:         5.0
 (Enter /home/michal/g09/l9999.exe)

 Test job not archived.
 1\1\GINC-LINUX\SP\RHF\6-31G(d)\C27H46O3\MICHAL\26-Apr-2017\0\\#P HF/6-
 31G* SCF(Conver=6) NoSymm Test Pop=mk IOp(6/33=2) GFInput GFPrint\\MEP
  - Input generated by R.E.D.-III.x MOLECULE\\0,1\C,0,1.75819302,-1.249
 30414,0.05057645\H,0,1.8830203,-1.2049845,-1.03830891\C,0,3.14654735,-
 1.26395016,0.70983924\H,0,3.72596724,-2.1111478,0.32993136\H,0,3.00299
 825,-1.4384494,1.78779876\C,0,3.9053166,0.03190493,0.49025997\C,0,3.17
 343693,1.32905446,0.85690492\C,0,1.74411339,1.27177917,0.23432729\H,0,
 1.83957952,1.39099186,-0.85351936\H,0,1.15920033,2.1267898,0.59023584\
 C,0,0.96816304,-0.02492786,0.51283069\H,0,0.75254727,-0.12168925,1.587
 21493\H,0,0.,0.,0.\C,0,5.1541811,0.,0.\H,0,5.60437354,-0.96192332,-0.2
 3820654\C,0,6.00283517,1.21122933,-0.25854374\H,0,7.03615196,1.0238442
 6,0.05984024\C,0,5.46466621,2.47274377,0.44038789\H,0,5.70442581,2.332
 8256,1.50393689\C,0,3.92566161,2.57521702,0.26942985\H,0,3.74526426,2.
 55512844,-0.81540735\C,0,3.37537479,3.92363743,0.79234247\H,0,3.382691
 61,3.93024458,1.88700074\H,0,2.32433921,4.02692551,0.49875285\C,0,4.14
 662667,5.16431596,0.29688174\H,0,4.0197363,5.26799382,-0.79017228\H,0,
 3.69602467,6.0533027,0.74984636\C,0,5.6535421,5.06271266,0.60975564\C,
 0,6.15118883,3.7521795,-0.06128565\H,0,5.87934539,3.85070849,-1.121199
 02\C,0,7.68275777,3.84087046,0.\H,0,8.15727413,3.24109697,-0.78157973\
 H,0,8.05940827,3.47164074,0.96255441\C,0,7.96739069,5.36021368,-0.1614
 1117\H,0,8.6199569,5.720578,0.64265128\H,0,8.48979968,5.57258956,-1.09
 937081\C,0,6.58766249,6.09625497,-0.11068874\H,0,6.20609984,6.17277453
 ,-1.13938488\C,0,5.90036905,5.08835971,2.13512523\H,0,5.43087175,4.245
 94989,2.649657\H,0,6.96701251,5.05909071,2.37729799\H,0,5.49077968,6.0
 0290374,2.57731763\C,0,6.70492973,7.53675342,0.4460488\H,0,7.09266752,
 7.4608397,1.47253727\C,0,5.36077292,8.28563751,0.52088326\H,0,4.823839
 39,8.25937637,-0.43394989\H,0,5.5233011,9.33840448,0.78091536\H,0,4.69
 861744,7.86323853,1.28105467\C,0,3.0652359,1.40365555,2.40482908\H,0,2
 .38255298,2.19904755,2.71805597\H,0,2.6869669,0.47060972,2.8291807\H,0
 ,4.0419658,1.59119598,2.86157471\O,0,6.05955673,1.51409383,-1.67997523
 \O,0,6.79901998,0.44229206,-2.32971276\H,0,6.08489121,-0.01079633,-2.8
 0789372\O,0,1.05381218,-2.47388864,0.27130065\H,0,0.88450422,-2.567874
 12,1.21927928\C,0,7.75120966,8.38176051,-0.32927661\H,0,7.83927824,9.3
 506312,0.18311267\H,0,8.73753625,7.90930821,-0.24140993\C,0,7.46198596
 ,8.64272112,-1.81711354\H,0,7.40648984,7.68853251,-2.3550749\H,0,6.478
 77685,9.1166035,-1.92419612\C,0,8.53640056,9.5344986,-2.46121931\H,0,9
 .51796641,9.0586812,-2.32134282\H,0,8.58036827,10.48458191,-1.9090506\
 C,0,8.36284129,9.85427305,-3.96432424\H,0,9.21214497,10.49919989,-4.23
 47379\C,0,8.44883957,8.60091856,-4.85117236\H,0,7.59844883,7.92917759,
 -4.68673771\H,0,8.44822831,8.87374952,-5.91270276\H,0,9.36594365,8.033
 80366,-4.65287385\C,0,7.08060602,10.65099993,-4.25710494\H,0,6.1814813
 1,10.05154442,-4.07355442\H,0,7.05110323,10.97079263,-5.30502533\H,0,7
 .01715381,11.54946084,-3.63185185\\Version=EM64L-G09RevD.01\HF=-1273.6
 829869\RMSD=5.651e-07\Dipole=-0.4868073,0.1751121,0.8561753\Quadrupole
 =-8.412049,1.4649151,6.9471339,-3.4468119,6.4502976,0.8079628\PG=C01 [
 X(C27H46O3)]\\@


 HIGGLEDY-PIGGLEDY
 NIC'LAUS COPERNICUS
 LOOKED AT THE UNIVERSE,
 SPOKE TO THE THRONG;
 GIVE UP YOUR PTOLOMY,
 RISE UP AND FOLLOW ME,
 HELIOCENTRICALLY
 PTOLEMY'S WRONG.
   -- NANCY L. STARK
 Job cpu time:       0 days  0 hours 11 minutes 59.1 seconds.
 File lengths (MBytes):  RWF=    159 Int=      0 D2E=      0 Chk=     11 Scr=      1
 Normal termination of Gaussian 09 at Wed Apr 26 13:17:04 2017.
