 Entering Gaussian System, Link 0=/home/michal/g09/g09
 Input=JOB2-gau_m1-22-2.com
 Output=JOB2-gau_m1-22-2.log
 Initial command:
 /home/michal/g09/l1.exe "/home/michal/gauss_scratch/Gau-15927.inp" -scrdir="/home/michal/gauss_scratch/"
 Entering Link 1 = /home/michal/g09/l1.exe PID=     15928.
  
 Copyright (c) 1988,1990,1992,1993,1995,1998,2003,2009,2013,
            Gaussian, Inc.  All Rights Reserved.
  
 This is part of the Gaussian(R) 09 program.  It is based on
 the Gaussian(R) 03 system (copyright 2003, Gaussian, Inc.),
 the Gaussian(R) 98 system (copyright 1998, Gaussian, Inc.),
 the Gaussian(R) 94 system (copyright 1995, Gaussian, Inc.),
 the Gaussian 92(TM) system (copyright 1992, Gaussian, Inc.),
 the Gaussian 90(TM) system (copyright 1990, Gaussian, Inc.),
 the Gaussian 88(TM) system (copyright 1988, Gaussian, Inc.),
 the Gaussian 86(TM) system (copyright 1986, Carnegie Mellon
 University), and the Gaussian 82(TM) system (copyright 1983,
 Carnegie Mellon University). Gaussian is a federally registered
 trademark of Gaussian, Inc.
  
 This software contains proprietary and confidential information,
 including trade secrets, belonging to Gaussian, Inc.
  
 This software is provided under written license and may be
 used, copied, transmitted, or stored only in accord with that
 written license.
  
 The following legend is applicable only to US Government
 contracts under FAR:
  
                    RESTRICTED RIGHTS LEGEND
  
 Use, reproduction and disclosure by the US Government is
 subject to restrictions as set forth in subparagraphs (a)
 and (c) of the Commercial Computer Software - Restricted
 Rights clause in FAR 52.227-19.
  
 Gaussian, Inc.
 340 Quinnipiac St., Bldg. 40, Wallingford CT 06492
  
  
 ---------------------------------------------------------------
 Warning -- This program may not be used in any manner that
 competes with the business of Gaussian, Inc. or will provide
 assistance to any competitor of Gaussian, Inc.  The licensee
 of this program is prohibited from giving any competitor of
 Gaussian, Inc. access to this program.  By using this program,
 the user acknowledges that Gaussian, Inc. is engaged in the
 business of creating and licensing software in the field of
 computational chemistry and represents and warrants to the
 licensee that it is not a competitor of Gaussian, Inc. and that
 it will not use this program in any manner prohibited above.
 ---------------------------------------------------------------
  

 Cite this work as:
 Gaussian 09, Revision D.01,
 M. J. Frisch, G. W. Trucks, H. B. Schlegel, G. E. Scuseria, 
 M. A. Robb, J. R. Cheeseman, G. Scalmani, V. Barone, B. Mennucci, 
 G. A. Petersson, H. Nakatsuji, M. Caricato, X. Li, H. P. Hratchian, 
 A. F. Izmaylov, J. Bloino, G. Zheng, J. L. Sonnenberg, M. Hada, 
 M. Ehara, K. Toyota, R. Fukuda, J. Hasegawa, M. Ishida, T. Nakajima, 
 Y. Honda, O. Kitao, H. Nakai, T. Vreven, J. A. Montgomery, Jr., 
 J. E. Peralta, F. Ogliaro, M. Bearpark, J. J. Heyd, E. Brothers, 
 K. N. Kudin, V. N. Staroverov, T. Keith, R. Kobayashi, J. Normand, 
 K. Raghavachari, A. Rendell, J. C. Burant, S. S. Iyengar, J. Tomasi, 
 M. Cossi, N. Rega, J. M. Millam, M. Klene, J. E. Knox, J. B. Cross, 
 V. Bakken, C. Adamo, J. Jaramillo, R. Gomperts, R. E. Stratmann, 
 O. Yazyev, A. J. Austin, R. Cammi, C. Pomelli, J. W. Ochterski, 
 R. L. Martin, K. Morokuma, V. G. Zakrzewski, G. A. Voth, 
 P. Salvador, J. J. Dannenberg, S. Dapprich, A. D. Daniels, 
 O. Farkas, J. B. Foresman, J. V. Ortiz, J. Cioslowski, 
 and D. J. Fox, Gaussian, Inc., Wallingford CT, 2013.
 
 ******************************************
 Gaussian 09:  EM64L-G09RevD.01 24-Apr-2013
                26-Apr-2017 
 ******************************************
 %Mem=256MB
 %NProc=12
 Will use up to   12 processors via shared memory.
 ----------------------------------------------------------------------
 #P HF/6-31G* SCF(Conver=6) NoSymm Test Pop=mk IOp(6/33=2) GFInput GFPr
 int
 ----------------------------------------------------------------------
 1/38=1/1;
 2/12=2,15=1,17=6,18=5,40=1/2;
 3/5=1,6=6,7=1,11=9,16=1,24=110,25=1,30=1/1,2,3;
 4//1;
 5/5=2,6=6,38=5/2;
 6/7=2,8=2,9=2,10=2,15=8,20=1,28=1,33=2/1,2;
 99/5=1,9=1/99;
 Leave Link    1 at Wed Apr 26 14:50:13 2017, MaxMem=    33554432 cpu:         1.1
 (Enter /home/michal/g09/l101.exe)
 ----------------------------------------------
 MEP - Input generated by R.E.D.-III.x MOLECULE
 ----------------------------------------------
 Symbolic Z-matrix:
 Charge =  0 Multiplicity = 1
 C                     7.50835   2.15053  -0.05269 
 H                     7.40537   2.06951   1.03638 
 C                     6.75577   0.98339  -0.71133 
 H                     7.14567   0.03328  -0.33306 
 H                     6.97818   1.00818  -1.78978 
 C                     5.25657   1.06169  -0.48879 
 C                     4.57481   2.38705  -0.85129 
 C                     5.41009   3.54842  -0.22903 
 H                     5.2612    3.53226   0.85922 
 H                     5.01621   4.50761  -0.58208 
 C                     6.91892   3.48409  -0.51208 
 H                     7.11499   3.61191  -1.58694 
 H                     7.43196   4.30599   0. 
 C                     4.59707   0.        0. 
 H                     5.15316  -0.90559   0.2354 
 C                     3.11891  -0.04357   0.26014 
 H                     2.7071   -1.0087   -0.06099 
 C                     2.36046   1.10214  -0.43415 
 H                     2.34435   0.82862  -1.49865 
 C                     3.12205   2.44247  -0.25982 
 H                     3.24083   2.57835   0.82518 
 C                     2.2968    3.64509  -0.77618 
 H                     2.28412   3.64685  -1.87087 
 H                     2.7886    4.57898  -0.4803 
 C                     0.83784   3.68082  -0.27669 
 H                     0.82379   3.83659   0.81143 
 H                     0.34455   4.55048  -0.72195 
 C                     0.09111   2.36869  -0.59523 
 C                     0.91459   1.22977   0.0693 
 H                     0.98166   1.50458   1.13095 
 C                     0.        0.        0. 
 H                     0.24915  -0.73925   0.76632 
 H                     0.0894   -0.50085  -0.97254 
 C                    -1.42199   0.59474   0.19126 
 H                    -2.10341   0.23794  -0.59038 
 H                    -1.8556    0.28082   1.14516 
 C                    -1.28707   2.15496   0.12434 
 H                    -1.15338   2.52778   1.15226 
 C                    -0.06782   2.18011  -2.12117 
 H                     0.89341   2.10574  -2.63637 
 H                    -0.63379   1.27556  -2.36355 
 H                    -0.60387   3.02694  -2.5625 
 C                    -2.56279   2.8378   -0.43546 
 H                    -2.74187   2.42867  -1.43977 
 C                    -2.43144   4.36508  -0.56213 
 H                    -2.18168   4.8204    0.40469 
 H                    -3.36648   4.81664  -0.90737 
 H                    -1.65752   4.65387  -1.27651 
 C                     4.56793   2.52114  -2.39893 
 H                     4.27657   3.52879  -2.70976 
 H                     5.5546    2.32646  -2.82597 
 H                     3.87431   1.8081   -2.85528 
 O                     2.83629   0.07104   1.6822 
 O                     3.32643  -1.13758   2.32777 
 H                     4.09765  -0.79108   2.8064 
 O                     8.918     2.06584  -0.27691 
 H                     9.08731   2.15658  -1.2252 
 C                    -3.78106   2.47166   0.45111 
 H                    -3.83789   1.38148   0.55027 
 H                    -3.59347   2.85843   1.46397 
 C                    -5.16463   2.96996  -0.01127 
 H                    -5.88919   2.67192   0.75659 
 H                    -5.19115   4.06747  -0.03285 
 C                    -5.6148    2.42765  -1.37629 
 H                    -5.58173   1.327    -1.35946 
 H                    -4.89482   2.74008  -2.14411 
 C                    -7.02048   2.87595  -1.82895 
 H                    -7.05308   3.97512  -1.77129 
 C                    -7.26793   2.47734  -3.29275 
 H                    -7.23911   1.38639  -3.41038 
 H                    -8.24892   2.82195  -3.63936 
 H                    -6.50797   2.90376  -3.95759 
 C                    -8.13749   2.32361  -0.92837 
 H                    -8.13487   1.22578  -0.93682 
 H                    -9.12169   2.65508  -1.27858 
 H                    -8.03198   2.64995   0.11096 
 
 NAtoms=     76 NQM=       76 NQMF=       0 NMMI=      0 NMMIF=      0
                NMic=       0 NMicF=      0.
                    Isotopes and Nuclear Properties:
 (Nuclear quadrupole moments (NQMom) in fm**2, nuclear magnetic moments (NMagM)
  in nuclear magnetons)

  Atom         1           2           3           4           5           6           7           8           9          10
 IAtWgt=          12           1          12           1           1          12          12          12           1           1
 AtmWgt=  12.0000000   1.0078250  12.0000000   1.0078250   1.0078250  12.0000000  12.0000000  12.0000000   1.0078250   1.0078250
 NucSpn=           0           1           0           1           1           0           0           0           1           1
 AtZEff=   0.0000000   0.0000000   0.0000000   0.0000000   0.0000000   0.0000000   0.0000000   0.0000000   0.0000000   0.0000000
 NQMom=    0.0000000   0.0000000   0.0000000   0.0000000   0.0000000   0.0000000   0.0000000   0.0000000   0.0000000   0.0000000
 NMagM=    0.0000000   2.7928460   0.0000000   2.7928460   2.7928460   0.0000000   0.0000000   0.0000000   2.7928460   2.7928460
 AtZNuc=   6.0000000   1.0000000   6.0000000   1.0000000   1.0000000   6.0000000   6.0000000   6.0000000   1.0000000   1.0000000

  Atom        11          12          13          14          15          16          17          18          19          20
 IAtWgt=          12           1           1          12           1          12           1          12           1          12
 AtmWgt=  12.0000000   1.0078250   1.0078250  12.0000000   1.0078250  12.0000000   1.0078250  12.0000000   1.0078250  12.0000000
 NucSpn=           0           1           1           0           1           0           1           0           1           0
 AtZEff=   0.0000000   0.0000000   0.0000000   0.0000000   0.0000000   0.0000000   0.0000000   0.0000000   0.0000000   0.0000000
 NQMom=    0.0000000   0.0000000   0.0000000   0.0000000   0.0000000   0.0000000   0.0000000   0.0000000   0.0000000   0.0000000
 NMagM=    0.0000000   2.7928460   2.7928460   0.0000000   2.7928460   0.0000000   2.7928460   0.0000000   2.7928460   0.0000000
 AtZNuc=   6.0000000   1.0000000   1.0000000   6.0000000   1.0000000   6.0000000   1.0000000   6.0000000   1.0000000   6.0000000

  Atom        21          22          23          24          25          26          27          28          29          30
 IAtWgt=           1          12           1           1          12           1           1          12          12           1
 AtmWgt=   1.0078250  12.0000000   1.0078250   1.0078250  12.0000000   1.0078250   1.0078250  12.0000000  12.0000000   1.0078250
 NucSpn=           1           0           1           1           0           1           1           0           0           1
 AtZEff=   0.0000000   0.0000000   0.0000000   0.0000000   0.0000000   0.0000000   0.0000000   0.0000000   0.0000000   0.0000000
 NQMom=    0.0000000   0.0000000   0.0000000   0.0000000   0.0000000   0.0000000   0.0000000   0.0000000   0.0000000   0.0000000
 NMagM=    2.7928460   0.0000000   2.7928460   2.7928460   0.0000000   2.7928460   2.7928460   0.0000000   0.0000000   2.7928460
 AtZNuc=   1.0000000   6.0000000   1.0000000   1.0000000   6.0000000   1.0000000   1.0000000   6.0000000   6.0000000   1.0000000

  Atom        31          32          33          34          35          36          37          38          39          40
 IAtWgt=          12           1           1          12           1           1          12           1          12           1
 AtmWgt=  12.0000000   1.0078250   1.0078250  12.0000000   1.0078250   1.0078250  12.0000000   1.0078250  12.0000000   1.0078250
 NucSpn=           0           1           1           0           1           1           0           1           0           1
 AtZEff=   0.0000000   0.0000000   0.0000000   0.0000000   0.0000000   0.0000000   0.0000000   0.0000000   0.0000000   0.0000000
 NQMom=    0.0000000   0.0000000   0.0000000   0.0000000   0.0000000   0.0000000   0.0000000   0.0000000   0.0000000   0.0000000
 NMagM=    0.0000000   2.7928460   2.7928460   0.0000000   2.7928460   2.7928460   0.0000000   2.7928460   0.0000000   2.7928460
 AtZNuc=   6.0000000   1.0000000   1.0000000   6.0000000   1.0000000   1.0000000   6.0000000   1.0000000   6.0000000   1.0000000

  Atom        41          42          43          44          45          46          47          48          49          50
 IAtWgt=           1           1          12           1          12           1           1           1          12           1
 AtmWgt=   1.0078250   1.0078250  12.0000000   1.0078250  12.0000000   1.0078250   1.0078250   1.0078250  12.0000000   1.0078250
 NucSpn=           1           1           0           1           0           1           1           1           0           1
 AtZEff=   0.0000000   0.0000000   0.0000000   0.0000000   0.0000000   0.0000000   0.0000000   0.0000000   0.0000000   0.0000000
 NQMom=    0.0000000   0.0000000   0.0000000   0.0000000   0.0000000   0.0000000   0.0000000   0.0000000   0.0000000   0.0000000
 NMagM=    2.7928460   2.7928460   0.0000000   2.7928460   0.0000000   2.7928460   2.7928460   2.7928460   0.0000000   2.7928460
 AtZNuc=   1.0000000   1.0000000   6.0000000   1.0000000   6.0000000   1.0000000   1.0000000   1.0000000   6.0000000   1.0000000

  Atom        51          52          53          54          55          56          57          58          59          60
 IAtWgt=           1           1          16          16           1          16           1          12           1           1
 AtmWgt=   1.0078250   1.0078250  15.9949146  15.9949146   1.0078250  15.9949146   1.0078250  12.0000000   1.0078250   1.0078250
 NucSpn=           1           1           0           0           1           0           1           0           1           1
 AtZEff=   0.0000000   0.0000000   0.0000000   0.0000000   0.0000000   0.0000000   0.0000000   0.0000000   0.0000000   0.0000000
 NQMom=    0.0000000   0.0000000   0.0000000   0.0000000   0.0000000   0.0000000   0.0000000   0.0000000   0.0000000   0.0000000
 NMagM=    2.7928460   2.7928460   0.0000000   0.0000000   2.7928460   0.0000000   2.7928460   0.0000000   2.7928460   2.7928460
 AtZNuc=   1.0000000   1.0000000   8.0000000   8.0000000   1.0000000   8.0000000   1.0000000   6.0000000   1.0000000   1.0000000

  Atom        61          62          63          64          65          66          67          68          69          70
 IAtWgt=          12           1           1          12           1           1          12           1          12           1
 AtmWgt=  12.0000000   1.0078250   1.0078250  12.0000000   1.0078250   1.0078250  12.0000000   1.0078250  12.0000000   1.0078250
 NucSpn=           0           1           1           0           1           1           0           1           0           1
 AtZEff=   0.0000000   0.0000000   0.0000000   0.0000000   0.0000000   0.0000000   0.0000000   0.0000000   0.0000000   0.0000000
 NQMom=    0.0000000   0.0000000   0.0000000   0.0000000   0.0000000   0.0000000   0.0000000   0.0000000   0.0000000   0.0000000
 NMagM=    0.0000000   2.7928460   2.7928460   0.0000000   2.7928460   2.7928460   0.0000000   2.7928460   0.0000000   2.7928460
 AtZNuc=   6.0000000   1.0000000   1.0000000   6.0000000   1.0000000   1.0000000   6.0000000   1.0000000   6.0000000   1.0000000

  Atom        71          72          73          74          75          76
 IAtWgt=           1           1          12           1           1           1
 AtmWgt=   1.0078250   1.0078250  12.0000000   1.0078250   1.0078250   1.0078250
 NucSpn=           1           1           0           1           1           1
 AtZEff=   0.0000000   0.0000000   0.0000000   0.0000000   0.0000000   0.0000000
 NQMom=    0.0000000   0.0000000   0.0000000   0.0000000   0.0000000   0.0000000
 NMagM=    2.7928460   2.7928460   0.0000000   2.7928460   2.7928460   2.7928460
 AtZNuc=   1.0000000   1.0000000   6.0000000   1.0000000   1.0000000   1.0000000
 Leave Link  101 at Wed Apr 26 14:50:14 2017, MaxMem=    33554432 cpu:         1.8
 (Enter /home/michal/g09/l202.exe)
 Symmetry turned off by external request.
 Stoichiometry    C27H46O3
 Framework group  C1[X(C27H46O3)]
 Deg. of freedom   222
 Full point group                 C1      NOp   1
                          Input orientation:                          
 ---------------------------------------------------------------------
 Center     Atomic      Atomic             Coordinates (Angstroms)
 Number     Number       Type             X           Y           Z
 ---------------------------------------------------------------------
      1          6           0        7.508351    2.150526   -0.052692
      2          1           0        7.405370    2.069514    1.036378
      3          6           0        6.755774    0.983388   -0.711331
      4          1           0        7.145671    0.033281   -0.333065
      5          1           0        6.978179    1.008175   -1.789785
      6          6           0        5.256570    1.061685   -0.488795
      7          6           0        4.574809    2.387053   -0.851292
      8          6           0        5.410089    3.548425   -0.229027
      9          1           0        5.261196    3.532257    0.859224
     10          1           0        5.016206    4.507610   -0.582083
     11          6           0        6.918919    3.484090   -0.512081
     12          1           0        7.114994    3.611909   -1.586945
     13          1           0        7.431964    4.305988    0.000000
     14          6           0        4.597070    0.000000    0.000000
     15          1           0        5.153161   -0.905589    0.235396
     16          6           0        3.118907   -0.043574    0.260136
     17          1           0        2.707100   -1.008705   -0.060989
     18          6           0        2.360456    1.102140   -0.434152
     19          1           0        2.344347    0.828619   -1.498645
     20          6           0        3.122046    2.442470   -0.259819
     21          1           0        3.240835    2.578353    0.825183
     22          6           0        2.296803    3.645091   -0.776175
     23          1           0        2.284121    3.646850   -1.870867
     24          1           0        2.788605    4.578978   -0.480295
     25          6           0        0.837840    3.680818   -0.276694
     26          1           0        0.823787    3.836591    0.811431
     27          1           0        0.344552    4.550484   -0.721947
     28          6           0        0.091112    2.368686   -0.595234
     29          6           0        0.914589    1.229775    0.069301
     30          1           0        0.981655    1.504583    1.130953
     31          6           0        0.000000    0.000000    0.000000
     32          1           0        0.249151   -0.739245    0.766316
     33          1           0        0.089397   -0.500854   -0.972545
     34          6           0       -1.421985    0.594735    0.191258
     35          1           0       -2.103409    0.237938   -0.590383
     36          1           0       -1.855599    0.280816    1.145155
     37          6           0       -1.287067    2.154961    0.124336
     38          1           0       -1.153379    2.527777    1.152257
     39          6           0       -0.067821    2.180105   -2.121171
     40          1           0        0.893406    2.105737   -2.636374
     41          1           0       -0.633787    1.275562   -2.363550
     42          1           0       -0.603869    3.026935   -2.562497
     43          6           0       -2.562790    2.837798   -0.435456
     44          1           0       -2.741870    2.428672   -1.439775
     45          6           0       -2.431436    4.365083   -0.562128
     46          1           0       -2.181684    4.820400    0.404687
     47          1           0       -3.366482    4.816643   -0.907370
     48          1           0       -1.657516    4.653865   -1.276514
     49          6           0        4.567934    2.521137   -2.398934
     50          1           0        4.276570    3.528790   -2.709760
     51          1           0        5.554597    2.326456   -2.825968
     52          1           0        3.874315    1.808103   -2.855283
     53          8           0        2.836295    0.071042    1.682197
     54          8           0        3.326428   -1.137575    2.327771
     55          1           0        4.097648   -0.791084    2.806401
     56          8           0        8.917995    2.065838   -0.276908
     57          1           0        9.087311    2.156579   -1.225202
     58          6           0       -3.781057    2.471660    0.451110
     59          1           0       -3.837890    1.381483    0.550274
     60          1           0       -3.593475    2.858427    1.463965
     61          6           0       -5.164635    2.969955   -0.011272
     62          1           0       -5.889187    2.671921    0.756590
     63          1           0       -5.191150    4.067469   -0.032850
     64          6           0       -5.614803    2.427651   -1.376293
     65          1           0       -5.581728    1.326999   -1.359460
     66          1           0       -4.894821    2.740076   -2.144115
     67          6           0       -7.020479    2.875948   -1.828947
     68          1           0       -7.053081    3.975122   -1.771292
     69          6           0       -7.267933    2.477337   -3.292749
     70          1           0       -7.239114    1.386387   -3.410383
     71          1           0       -8.248922    2.821953   -3.639364
     72          1           0       -6.507973    2.903756   -3.957589
     73          6           0       -8.137493    2.323615   -0.928370
     74          1           0       -8.134870    1.225780   -0.936815
     75          1           0       -9.121694    2.655084   -1.278577
     76          1           0       -8.031982    2.649954    0.110955
 ---------------------------------------------------------------------
 Rotational constants (GHZ):      0.4018496      0.0532919      0.0501067
 Leave Link  202 at Wed Apr 26 14:50:14 2017, MaxMem=    33554432 cpu:         0.0
 (Enter /home/michal/g09/l301.exe)
 Standard basis: 6-31G(d) (6D, 7F)
 Ernie: Thresh=  0.10000D-02 Tol=  0.10000D-05 Strict=F.
 AO basis set in the form of general basis input (Overlap normalization):
      1 0
 S   6 1.00       0.000000000000
      0.3047524880D+04  0.1834737132D-02
      0.4573695180D+03  0.1403732281D-01
      0.1039486850D+03  0.6884262226D-01
      0.2921015530D+02  0.2321844432D+00
      0.9286662960D+01  0.4679413484D+00
      0.3163926960D+01  0.3623119853D+00
 SP   3 1.00       0.000000000000
      0.7868272350D+01 -0.1193324198D+00  0.6899906659D-01
      0.1881288540D+01 -0.1608541517D+00  0.3164239610D+00
      0.5442492580D+00  0.1143456438D+01  0.7443082909D+00
 SP   1 1.00       0.000000000000
      0.1687144782D+00  0.1000000000D+01  0.1000000000D+01
 D   1 1.00       0.000000000000
      0.8000000000D+00  0.1000000000D+01
 ****
      2 0
 S   3 1.00       0.000000000000
      0.1873113696D+02  0.3349460434D-01
      0.2825394365D+01  0.2347269535D+00
      0.6401216923D+00  0.8137573261D+00
 S   1 1.00       0.000000000000
      0.1612777588D+00  0.1000000000D+01
 ****
      3 0
 S   6 1.00       0.000000000000
      0.3047524880D+04  0.1834737132D-02
      0.4573695180D+03  0.1403732281D-01
      0.1039486850D+03  0.6884262226D-01
      0.2921015530D+02  0.2321844432D+00
      0.9286662960D+01  0.4679413484D+00
      0.3163926960D+01  0.3623119853D+00
 SP   3 1.00       0.000000000000
      0.7868272350D+01 -0.1193324198D+00  0.6899906659D-01
      0.1881288540D+01 -0.1608541517D+00  0.3164239610D+00
      0.5442492580D+00  0.1143456438D+01  0.7443082909D+00
 SP   1 1.00       0.000000000000
      0.1687144782D+00  0.1000000000D+01  0.1000000000D+01
 D   1 1.00       0.000000000000
      0.8000000000D+00  0.1000000000D+01
 ****
      4 0
 S   3 1.00       0.000000000000
      0.1873113696D+02  0.3349460434D-01
      0.2825394365D+01  0.2347269535D+00
      0.6401216923D+00  0.8137573261D+00
 S   1 1.00       0.000000000000
      0.1612777588D+00  0.1000000000D+01
 ****
      5 0
 S   3 1.00       0.000000000000
      0.1873113696D+02  0.3349460434D-01
      0.2825394365D+01  0.2347269535D+00
      0.6401216923D+00  0.8137573261D+00
 S   1 1.00       0.000000000000
      0.1612777588D+00  0.1000000000D+01
 ****
      6 0
 S   6 1.00       0.000000000000
      0.3047524880D+04  0.1834737132D-02
      0.4573695180D+03  0.1403732281D-01
      0.1039486850D+03  0.6884262226D-01
      0.2921015530D+02  0.2321844432D+00
      0.9286662960D+01  0.4679413484D+00
      0.3163926960D+01  0.3623119853D+00
 SP   3 1.00       0.000000000000
      0.7868272350D+01 -0.1193324198D+00  0.6899906659D-01
      0.1881288540D+01 -0.1608541517D+00  0.3164239610D+00
      0.5442492580D+00  0.1143456438D+01  0.7443082909D+00
 SP   1 1.00       0.000000000000
      0.1687144782D+00  0.1000000000D+01  0.1000000000D+01
 D   1 1.00       0.000000000000
      0.8000000000D+00  0.1000000000D+01
 ****
      7 0
 S   6 1.00       0.000000000000
      0.3047524880D+04  0.1834737132D-02
      0.4573695180D+03  0.1403732281D-01
      0.1039486850D+03  0.6884262226D-01
      0.2921015530D+02  0.2321844432D+00
      0.9286662960D+01  0.4679413484D+00
      0.3163926960D+01  0.3623119853D+00
 SP   3 1.00       0.000000000000
      0.7868272350D+01 -0.1193324198D+00  0.6899906659D-01
      0.1881288540D+01 -0.1608541517D+00  0.3164239610D+00
      0.5442492580D+00  0.1143456438D+01  0.7443082909D+00
 SP   1 1.00       0.000000000000
      0.1687144782D+00  0.1000000000D+01  0.1000000000D+01
 D   1 1.00       0.000000000000
      0.8000000000D+00  0.1000000000D+01
 ****
      8 0
 S   6 1.00       0.000000000000
      0.3047524880D+04  0.1834737132D-02
      0.4573695180D+03  0.1403732281D-01
      0.1039486850D+03  0.6884262226D-01
      0.2921015530D+02  0.2321844432D+00
      0.9286662960D+01  0.4679413484D+00
      0.3163926960D+01  0.3623119853D+00
 SP   3 1.00       0.000000000000
      0.7868272350D+01 -0.1193324198D+00  0.6899906659D-01
      0.1881288540D+01 -0.1608541517D+00  0.3164239610D+00
      0.5442492580D+00  0.1143456438D+01  0.7443082909D+00
 SP   1 1.00       0.000000000000
      0.1687144782D+00  0.1000000000D+01  0.1000000000D+01
 D   1 1.00       0.000000000000
      0.8000000000D+00  0.1000000000D+01
 ****
      9 0
 S   3 1.00       0.000000000000
      0.1873113696D+02  0.3349460434D-01
      0.2825394365D+01  0.2347269535D+00
      0.6401216923D+00  0.8137573261D+00
 S   1 1.00       0.000000000000
      0.1612777588D+00  0.1000000000D+01
 ****
     10 0
 S   3 1.00       0.000000000000
      0.1873113696D+02  0.3349460434D-01
      0.2825394365D+01  0.2347269535D+00
      0.6401216923D+00  0.8137573261D+00
 S   1 1.00       0.000000000000
      0.1612777588D+00  0.1000000000D+01
 ****
     11 0
 S   6 1.00       0.000000000000
      0.3047524880D+04  0.1834737132D-02
      0.4573695180D+03  0.1403732281D-01
      0.1039486850D+03  0.6884262226D-01
      0.2921015530D+02  0.2321844432D+00
      0.9286662960D+01  0.4679413484D+00
      0.3163926960D+01  0.3623119853D+00
 SP   3 1.00       0.000000000000
      0.7868272350D+01 -0.1193324198D+00  0.6899906659D-01
      0.1881288540D+01 -0.1608541517D+00  0.3164239610D+00
      0.5442492580D+00  0.1143456438D+01  0.7443082909D+00
 SP   1 1.00       0.000000000000
      0.1687144782D+00  0.1000000000D+01  0.1000000000D+01
 D   1 1.00       0.000000000000
      0.8000000000D+00  0.1000000000D+01
 ****
     12 0
 S   3 1.00       0.000000000000
      0.1873113696D+02  0.3349460434D-01
      0.2825394365D+01  0.2347269535D+00
      0.6401216923D+00  0.8137573261D+00
 S   1 1.00       0.000000000000
      0.1612777588D+00  0.1000000000D+01
 ****
     13 0
 S   3 1.00       0.000000000000
      0.1873113696D+02  0.3349460434D-01
      0.2825394365D+01  0.2347269535D+00
      0.6401216923D+00  0.8137573261D+00
 S   1 1.00       0.000000000000
      0.1612777588D+00  0.1000000000D+01
 ****
     14 0
 S   6 1.00       0.000000000000
      0.3047524880D+04  0.1834737132D-02
      0.4573695180D+03  0.1403732281D-01
      0.1039486850D+03  0.6884262226D-01
      0.2921015530D+02  0.2321844432D+00
      0.9286662960D+01  0.4679413484D+00
      0.3163926960D+01  0.3623119853D+00
 SP   3 1.00       0.000000000000
      0.7868272350D+01 -0.1193324198D+00  0.6899906659D-01
      0.1881288540D+01 -0.1608541517D+00  0.3164239610D+00
      0.5442492580D+00  0.1143456438D+01  0.7443082909D+00
 SP   1 1.00       0.000000000000
      0.1687144782D+00  0.1000000000D+01  0.1000000000D+01
 D   1 1.00       0.000000000000
      0.8000000000D+00  0.1000000000D+01
 ****
     15 0
 S   3 1.00       0.000000000000
      0.1873113696D+02  0.3349460434D-01
      0.2825394365D+01  0.2347269535D+00
      0.6401216923D+00  0.8137573261D+00
 S   1 1.00       0.000000000000
      0.1612777588D+00  0.1000000000D+01
 ****
     16 0
 S   6 1.00       0.000000000000
      0.3047524880D+04  0.1834737132D-02
      0.4573695180D+03  0.1403732281D-01
      0.1039486850D+03  0.6884262226D-01
      0.2921015530D+02  0.2321844432D+00
      0.9286662960D+01  0.4679413484D+00
      0.3163926960D+01  0.3623119853D+00
 SP   3 1.00       0.000000000000
      0.7868272350D+01 -0.1193324198D+00  0.6899906659D-01
      0.1881288540D+01 -0.1608541517D+00  0.3164239610D+00
      0.5442492580D+00  0.1143456438D+01  0.7443082909D+00
 SP   1 1.00       0.000000000000
      0.1687144782D+00  0.1000000000D+01  0.1000000000D+01
 D   1 1.00       0.000000000000
      0.8000000000D+00  0.1000000000D+01
 ****
     17 0
 S   3 1.00       0.000000000000
      0.1873113696D+02  0.3349460434D-01
      0.2825394365D+01  0.2347269535D+00
      0.6401216923D+00  0.8137573261D+00
 S   1 1.00       0.000000000000
      0.1612777588D+00  0.1000000000D+01
 ****
     18 0
 S   6 1.00       0.000000000000
      0.3047524880D+04  0.1834737132D-02
      0.4573695180D+03  0.1403732281D-01
      0.1039486850D+03  0.6884262226D-01
      0.2921015530D+02  0.2321844432D+00
      0.9286662960D+01  0.4679413484D+00
      0.3163926960D+01  0.3623119853D+00
 SP   3 1.00       0.000000000000
      0.7868272350D+01 -0.1193324198D+00  0.6899906659D-01
      0.1881288540D+01 -0.1608541517D+00  0.3164239610D+00
      0.5442492580D+00  0.1143456438D+01  0.7443082909D+00
 SP   1 1.00       0.000000000000
      0.1687144782D+00  0.1000000000D+01  0.1000000000D+01
 D   1 1.00       0.000000000000
      0.8000000000D+00  0.1000000000D+01
 ****
     19 0
 S   3 1.00       0.000000000000
      0.1873113696D+02  0.3349460434D-01
      0.2825394365D+01  0.2347269535D+00
      0.6401216923D+00  0.8137573261D+00
 S   1 1.00       0.000000000000
      0.1612777588D+00  0.1000000000D+01
 ****
     20 0
 S   6 1.00       0.000000000000
      0.3047524880D+04  0.1834737132D-02
      0.4573695180D+03  0.1403732281D-01
      0.1039486850D+03  0.6884262226D-01
      0.2921015530D+02  0.2321844432D+00
      0.9286662960D+01  0.4679413484D+00
      0.3163926960D+01  0.3623119853D+00
 SP   3 1.00       0.000000000000
      0.7868272350D+01 -0.1193324198D+00  0.6899906659D-01
      0.1881288540D+01 -0.1608541517D+00  0.3164239610D+00
      0.5442492580D+00  0.1143456438D+01  0.7443082909D+00
 SP   1 1.00       0.000000000000
      0.1687144782D+00  0.1000000000D+01  0.1000000000D+01
 D   1 1.00       0.000000000000
      0.8000000000D+00  0.1000000000D+01
 ****
     21 0
 S   3 1.00       0.000000000000
      0.1873113696D+02  0.3349460434D-01
      0.2825394365D+01  0.2347269535D+00
      0.6401216923D+00  0.8137573261D+00
 S   1 1.00       0.000000000000
      0.1612777588D+00  0.1000000000D+01
 ****
     22 0
 S   6 1.00       0.000000000000
      0.3047524880D+04  0.1834737132D-02
      0.4573695180D+03  0.1403732281D-01
      0.1039486850D+03  0.6884262226D-01
      0.2921015530D+02  0.2321844432D+00
      0.9286662960D+01  0.4679413484D+00
      0.3163926960D+01  0.3623119853D+00
 SP   3 1.00       0.000000000000
      0.7868272350D+01 -0.1193324198D+00  0.6899906659D-01
      0.1881288540D+01 -0.1608541517D+00  0.3164239610D+00
      0.5442492580D+00  0.1143456438D+01  0.7443082909D+00
 SP   1 1.00       0.000000000000
      0.1687144782D+00  0.1000000000D+01  0.1000000000D+01
 D   1 1.00       0.000000000000
      0.8000000000D+00  0.1000000000D+01
 ****
     23 0
 S   3 1.00       0.000000000000
      0.1873113696D+02  0.3349460434D-01
      0.2825394365D+01  0.2347269535D+00
      0.6401216923D+00  0.8137573261D+00
 S   1 1.00       0.000000000000
      0.1612777588D+00  0.1000000000D+01
 ****
     24 0
 S   3 1.00       0.000000000000
      0.1873113696D+02  0.3349460434D-01
      0.2825394365D+01  0.2347269535D+00
      0.6401216923D+00  0.8137573261D+00
 S   1 1.00       0.000000000000
      0.1612777588D+00  0.1000000000D+01
 ****
     25 0
 S   6 1.00       0.000000000000
      0.3047524880D+04  0.1834737132D-02
      0.4573695180D+03  0.1403732281D-01
      0.1039486850D+03  0.6884262226D-01
      0.2921015530D+02  0.2321844432D+00
      0.9286662960D+01  0.4679413484D+00
      0.3163926960D+01  0.3623119853D+00
 SP   3 1.00       0.000000000000
      0.7868272350D+01 -0.1193324198D+00  0.6899906659D-01
      0.1881288540D+01 -0.1608541517D+00  0.3164239610D+00
      0.5442492580D+00  0.1143456438D+01  0.7443082909D+00
 SP   1 1.00       0.000000000000
      0.1687144782D+00  0.1000000000D+01  0.1000000000D+01
 D   1 1.00       0.000000000000
      0.8000000000D+00  0.1000000000D+01
 ****
     26 0
 S   3 1.00       0.000000000000
      0.1873113696D+02  0.3349460434D-01
      0.2825394365D+01  0.2347269535D+00
      0.6401216923D+00  0.8137573261D+00
 S   1 1.00       0.000000000000
      0.1612777588D+00  0.1000000000D+01
 ****
     27 0
 S   3 1.00       0.000000000000
      0.1873113696D+02  0.3349460434D-01
      0.2825394365D+01  0.2347269535D+00
      0.6401216923D+00  0.8137573261D+00
 S   1 1.00       0.000000000000
      0.1612777588D+00  0.1000000000D+01
 ****
     28 0
 S   6 1.00       0.000000000000
      0.3047524880D+04  0.1834737132D-02
      0.4573695180D+03  0.1403732281D-01
      0.1039486850D+03  0.6884262226D-01
      0.2921015530D+02  0.2321844432D+00
      0.9286662960D+01  0.4679413484D+00
      0.3163926960D+01  0.3623119853D+00
 SP   3 1.00       0.000000000000
      0.7868272350D+01 -0.1193324198D+00  0.6899906659D-01
      0.1881288540D+01 -0.1608541517D+00  0.3164239610D+00
      0.5442492580D+00  0.1143456438D+01  0.7443082909D+00
 SP   1 1.00       0.000000000000
      0.1687144782D+00  0.1000000000D+01  0.1000000000D+01
 D   1 1.00       0.000000000000
      0.8000000000D+00  0.1000000000D+01
 ****
     29 0
 S   6 1.00       0.000000000000
      0.3047524880D+04  0.1834737132D-02
      0.4573695180D+03  0.1403732281D-01
      0.1039486850D+03  0.6884262226D-01
      0.2921015530D+02  0.2321844432D+00
      0.9286662960D+01  0.4679413484D+00
      0.3163926960D+01  0.3623119853D+00
 SP   3 1.00       0.000000000000
      0.7868272350D+01 -0.1193324198D+00  0.6899906659D-01
      0.1881288540D+01 -0.1608541517D+00  0.3164239610D+00
      0.5442492580D+00  0.1143456438D+01  0.7443082909D+00
 SP   1 1.00       0.000000000000
      0.1687144782D+00  0.1000000000D+01  0.1000000000D+01
 D   1 1.00       0.000000000000
      0.8000000000D+00  0.1000000000D+01
 ****
     30 0
 S   3 1.00       0.000000000000
      0.1873113696D+02  0.3349460434D-01
      0.2825394365D+01  0.2347269535D+00
      0.6401216923D+00  0.8137573261D+00
 S   1 1.00       0.000000000000
      0.1612777588D+00  0.1000000000D+01
 ****
     31 0
 S   6 1.00       0.000000000000
      0.3047524880D+04  0.1834737132D-02
      0.4573695180D+03  0.1403732281D-01
      0.1039486850D+03  0.6884262226D-01
      0.2921015530D+02  0.2321844432D+00
      0.9286662960D+01  0.4679413484D+00
      0.3163926960D+01  0.3623119853D+00
 SP   3 1.00       0.000000000000
      0.7868272350D+01 -0.1193324198D+00  0.6899906659D-01
      0.1881288540D+01 -0.1608541517D+00  0.3164239610D+00
      0.5442492580D+00  0.1143456438D+01  0.7443082909D+00
 SP   1 1.00       0.000000000000
      0.1687144782D+00  0.1000000000D+01  0.1000000000D+01
 D   1 1.00       0.000000000000
      0.8000000000D+00  0.1000000000D+01
 ****
     32 0
 S   3 1.00       0.000000000000
      0.1873113696D+02  0.3349460434D-01
      0.2825394365D+01  0.2347269535D+00
      0.6401216923D+00  0.8137573261D+00
 S   1 1.00       0.000000000000
      0.1612777588D+00  0.1000000000D+01
 ****
     33 0
 S   3 1.00       0.000000000000
      0.1873113696D+02  0.3349460434D-01
      0.2825394365D+01  0.2347269535D+00
      0.6401216923D+00  0.8137573261D+00
 S   1 1.00       0.000000000000
      0.1612777588D+00  0.1000000000D+01
 ****
     34 0
 S   6 1.00       0.000000000000
      0.3047524880D+04  0.1834737132D-02
      0.4573695180D+03  0.1403732281D-01
      0.1039486850D+03  0.6884262226D-01
      0.2921015530D+02  0.2321844432D+00
      0.9286662960D+01  0.4679413484D+00
      0.3163926960D+01  0.3623119853D+00
 SP   3 1.00       0.000000000000
      0.7868272350D+01 -0.1193324198D+00  0.6899906659D-01
      0.1881288540D+01 -0.1608541517D+00  0.3164239610D+00
      0.5442492580D+00  0.1143456438D+01  0.7443082909D+00
 SP   1 1.00       0.000000000000
      0.1687144782D+00  0.1000000000D+01  0.1000000000D+01
 D   1 1.00       0.000000000000
      0.8000000000D+00  0.1000000000D+01
 ****
     35 0
 S   3 1.00       0.000000000000
      0.1873113696D+02  0.3349460434D-01
      0.2825394365D+01  0.2347269535D+00
      0.6401216923D+00  0.8137573261D+00
 S   1 1.00       0.000000000000
      0.1612777588D+00  0.1000000000D+01
 ****
     36 0
 S   3 1.00       0.000000000000
      0.1873113696D+02  0.3349460434D-01
      0.2825394365D+01  0.2347269535D+00
      0.6401216923D+00  0.8137573261D+00
 S   1 1.00       0.000000000000
      0.1612777588D+00  0.1000000000D+01
 ****
     37 0
 S   6 1.00       0.000000000000
      0.3047524880D+04  0.1834737132D-02
      0.4573695180D+03  0.1403732281D-01
      0.1039486850D+03  0.6884262226D-01
      0.2921015530D+02  0.2321844432D+00
      0.9286662960D+01  0.4679413484D+00
      0.3163926960D+01  0.3623119853D+00
 SP   3 1.00       0.000000000000
      0.7868272350D+01 -0.1193324198D+00  0.6899906659D-01
      0.1881288540D+01 -0.1608541517D+00  0.3164239610D+00
      0.5442492580D+00  0.1143456438D+01  0.7443082909D+00
 SP   1 1.00       0.000000000000
      0.1687144782D+00  0.1000000000D+01  0.1000000000D+01
 D   1 1.00       0.000000000000
      0.8000000000D+00  0.1000000000D+01
 ****
     38 0
 S   3 1.00       0.000000000000
      0.1873113696D+02  0.3349460434D-01
      0.2825394365D+01  0.2347269535D+00
      0.6401216923D+00  0.8137573261D+00
 S   1 1.00       0.000000000000
      0.1612777588D+00  0.1000000000D+01
 ****
     39 0
 S   6 1.00       0.000000000000
      0.3047524880D+04  0.1834737132D-02
      0.4573695180D+03  0.1403732281D-01
      0.1039486850D+03  0.6884262226D-01
      0.2921015530D+02  0.2321844432D+00
      0.9286662960D+01  0.4679413484D+00
      0.3163926960D+01  0.3623119853D+00
 SP   3 1.00       0.000000000000
      0.7868272350D+01 -0.1193324198D+00  0.6899906659D-01
      0.1881288540D+01 -0.1608541517D+00  0.3164239610D+00
      0.5442492580D+00  0.1143456438D+01  0.7443082909D+00
 SP   1 1.00       0.000000000000
      0.1687144782D+00  0.1000000000D+01  0.1000000000D+01
 D   1 1.00       0.000000000000
      0.8000000000D+00  0.1000000000D+01
 ****
     40 0
 S   3 1.00       0.000000000000
      0.1873113696D+02  0.3349460434D-01
      0.2825394365D+01  0.2347269535D+00
      0.6401216923D+00  0.8137573261D+00
 S   1 1.00       0.000000000000
      0.1612777588D+00  0.1000000000D+01
 ****
     41 0
 S   3 1.00       0.000000000000
      0.1873113696D+02  0.3349460434D-01
      0.2825394365D+01  0.2347269535D+00
      0.6401216923D+00  0.8137573261D+00
 S   1 1.00       0.000000000000
      0.1612777588D+00  0.1000000000D+01
 ****
     42 0
 S   3 1.00       0.000000000000
      0.1873113696D+02  0.3349460434D-01
      0.2825394365D+01  0.2347269535D+00
      0.6401216923D+00  0.8137573261D+00
 S   1 1.00       0.000000000000
      0.1612777588D+00  0.1000000000D+01
 ****
     43 0
 S   6 1.00       0.000000000000
      0.3047524880D+04  0.1834737132D-02
      0.4573695180D+03  0.1403732281D-01
      0.1039486850D+03  0.6884262226D-01
      0.2921015530D+02  0.2321844432D+00
      0.9286662960D+01  0.4679413484D+00
      0.3163926960D+01  0.3623119853D+00
 SP   3 1.00       0.000000000000
      0.7868272350D+01 -0.1193324198D+00  0.6899906659D-01
      0.1881288540D+01 -0.1608541517D+00  0.3164239610D+00
      0.5442492580D+00  0.1143456438D+01  0.7443082909D+00
 SP   1 1.00       0.000000000000
      0.1687144782D+00  0.1000000000D+01  0.1000000000D+01
 D   1 1.00       0.000000000000
      0.8000000000D+00  0.1000000000D+01
 ****
     44 0
 S   3 1.00       0.000000000000
      0.1873113696D+02  0.3349460434D-01
      0.2825394365D+01  0.2347269535D+00
      0.6401216923D+00  0.8137573261D+00
 S   1 1.00       0.000000000000
      0.1612777588D+00  0.1000000000D+01
 ****
     45 0
 S   6 1.00       0.000000000000
      0.3047524880D+04  0.1834737132D-02
      0.4573695180D+03  0.1403732281D-01
      0.1039486850D+03  0.6884262226D-01
      0.2921015530D+02  0.2321844432D+00
      0.9286662960D+01  0.4679413484D+00
      0.3163926960D+01  0.3623119853D+00
 SP   3 1.00       0.000000000000
      0.7868272350D+01 -0.1193324198D+00  0.6899906659D-01
      0.1881288540D+01 -0.1608541517D+00  0.3164239610D+00
      0.5442492580D+00  0.1143456438D+01  0.7443082909D+00
 SP   1 1.00       0.000000000000
      0.1687144782D+00  0.1000000000D+01  0.1000000000D+01
 D   1 1.00       0.000000000000
      0.8000000000D+00  0.1000000000D+01
 ****
     46 0
 S   3 1.00       0.000000000000
      0.1873113696D+02  0.3349460434D-01
      0.2825394365D+01  0.2347269535D+00
      0.6401216923D+00  0.8137573261D+00
 S   1 1.00       0.000000000000
      0.1612777588D+00  0.1000000000D+01
 ****
     47 0
 S   3 1.00       0.000000000000
      0.1873113696D+02  0.3349460434D-01
      0.2825394365D+01  0.2347269535D+00
      0.6401216923D+00  0.8137573261D+00
 S   1 1.00       0.000000000000
      0.1612777588D+00  0.1000000000D+01
 ****
     48 0
 S   3 1.00       0.000000000000
      0.1873113696D+02  0.3349460434D-01
      0.2825394365D+01  0.2347269535D+00
      0.6401216923D+00  0.8137573261D+00
 S   1 1.00       0.000000000000
      0.1612777588D+00  0.1000000000D+01
 ****
     49 0
 S   6 1.00       0.000000000000
      0.3047524880D+04  0.1834737132D-02
      0.4573695180D+03  0.1403732281D-01
      0.1039486850D+03  0.6884262226D-01
      0.2921015530D+02  0.2321844432D+00
      0.9286662960D+01  0.4679413484D+00
      0.3163926960D+01  0.3623119853D+00
 SP   3 1.00       0.000000000000
      0.7868272350D+01 -0.1193324198D+00  0.6899906659D-01
      0.1881288540D+01 -0.1608541517D+00  0.3164239610D+00
      0.5442492580D+00  0.1143456438D+01  0.7443082909D+00
 SP   1 1.00       0.000000000000
      0.1687144782D+00  0.1000000000D+01  0.1000000000D+01
 D   1 1.00       0.000000000000
      0.8000000000D+00  0.1000000000D+01
 ****
     50 0
 S   3 1.00       0.000000000000
      0.1873113696D+02  0.3349460434D-01
      0.2825394365D+01  0.2347269535D+00
      0.6401216923D+00  0.8137573261D+00
 S   1 1.00       0.000000000000
      0.1612777588D+00  0.1000000000D+01
 ****
     51 0
 S   3 1.00       0.000000000000
      0.1873113696D+02  0.3349460434D-01
      0.2825394365D+01  0.2347269535D+00
      0.6401216923D+00  0.8137573261D+00
 S   1 1.00       0.000000000000
      0.1612777588D+00  0.1000000000D+01
 ****
     52 0
 S   3 1.00       0.000000000000
      0.1873113696D+02  0.3349460434D-01
      0.2825394365D+01  0.2347269535D+00
      0.6401216923D+00  0.8137573261D+00
 S   1 1.00       0.000000000000
      0.1612777588D+00  0.1000000000D+01
 ****
     53 0
 S   6 1.00       0.000000000000
      0.5484671660D+04  0.1831074430D-02
      0.8252349460D+03  0.1395017220D-01
      0.1880469580D+03  0.6844507810D-01
      0.5296450000D+02  0.2327143360D+00
      0.1689757040D+02  0.4701928980D+00
      0.5799635340D+01  0.3585208530D+00
 SP   3 1.00       0.000000000000
      0.1553961625D+02 -0.1107775495D+00  0.7087426823D-01
      0.3599933586D+01 -0.1480262627D+00  0.3397528391D+00
      0.1013761750D+01  0.1130767015D+01  0.7271585773D+00
 SP   1 1.00       0.000000000000
      0.2700058226D+00  0.1000000000D+01  0.1000000000D+01
 D   1 1.00       0.000000000000
      0.8000000000D+00  0.1000000000D+01
 ****
     54 0
 S   6 1.00       0.000000000000
      0.5484671660D+04  0.1831074430D-02
      0.8252349460D+03  0.1395017220D-01
      0.1880469580D+03  0.6844507810D-01
      0.5296450000D+02  0.2327143360D+00
      0.1689757040D+02  0.4701928980D+00
      0.5799635340D+01  0.3585208530D+00
 SP   3 1.00       0.000000000000
      0.1553961625D+02 -0.1107775495D+00  0.7087426823D-01
      0.3599933586D+01 -0.1480262627D+00  0.3397528391D+00
      0.1013761750D+01  0.1130767015D+01  0.7271585773D+00
 SP   1 1.00       0.000000000000
      0.2700058226D+00  0.1000000000D+01  0.1000000000D+01
 D   1 1.00       0.000000000000
      0.8000000000D+00  0.1000000000D+01
 ****
     55 0
 S   3 1.00       0.000000000000
      0.1873113696D+02  0.3349460434D-01
      0.2825394365D+01  0.2347269535D+00
      0.6401216923D+00  0.8137573261D+00
 S   1 1.00       0.000000000000
      0.1612777588D+00  0.1000000000D+01
 ****
     56 0
 S   6 1.00       0.000000000000
      0.5484671660D+04  0.1831074430D-02
      0.8252349460D+03  0.1395017220D-01
      0.1880469580D+03  0.6844507810D-01
      0.5296450000D+02  0.2327143360D+00
      0.1689757040D+02  0.4701928980D+00
      0.5799635340D+01  0.3585208530D+00
 SP   3 1.00       0.000000000000
      0.1553961625D+02 -0.1107775495D+00  0.7087426823D-01
      0.3599933586D+01 -0.1480262627D+00  0.3397528391D+00
      0.1013761750D+01  0.1130767015D+01  0.7271585773D+00
 SP   1 1.00       0.000000000000
      0.2700058226D+00  0.1000000000D+01  0.1000000000D+01
 D   1 1.00       0.000000000000
      0.8000000000D+00  0.1000000000D+01
 ****
     57 0
 S   3 1.00       0.000000000000
      0.1873113696D+02  0.3349460434D-01
      0.2825394365D+01  0.2347269535D+00
      0.6401216923D+00  0.8137573261D+00
 S   1 1.00       0.000000000000
      0.1612777588D+00  0.1000000000D+01
 ****
     58 0
 S   6 1.00       0.000000000000
      0.3047524880D+04  0.1834737132D-02
      0.4573695180D+03  0.1403732281D-01
      0.1039486850D+03  0.6884262226D-01
      0.2921015530D+02  0.2321844432D+00
      0.9286662960D+01  0.4679413484D+00
      0.3163926960D+01  0.3623119853D+00
 SP   3 1.00       0.000000000000
      0.7868272350D+01 -0.1193324198D+00  0.6899906659D-01
      0.1881288540D+01 -0.1608541517D+00  0.3164239610D+00
      0.5442492580D+00  0.1143456438D+01  0.7443082909D+00
 SP   1 1.00       0.000000000000
      0.1687144782D+00  0.1000000000D+01  0.1000000000D+01
 D   1 1.00       0.000000000000
      0.8000000000D+00  0.1000000000D+01
 ****
     59 0
 S   3 1.00       0.000000000000
      0.1873113696D+02  0.3349460434D-01
      0.2825394365D+01  0.2347269535D+00
      0.6401216923D+00  0.8137573261D+00
 S   1 1.00       0.000000000000
      0.1612777588D+00  0.1000000000D+01
 ****
     60 0
 S   3 1.00       0.000000000000
      0.1873113696D+02  0.3349460434D-01
      0.2825394365D+01  0.2347269535D+00
      0.6401216923D+00  0.8137573261D+00
 S   1 1.00       0.000000000000
      0.1612777588D+00  0.1000000000D+01
 ****
     61 0
 S   6 1.00       0.000000000000
      0.3047524880D+04  0.1834737132D-02
      0.4573695180D+03  0.1403732281D-01
      0.1039486850D+03  0.6884262226D-01
      0.2921015530D+02  0.2321844432D+00
      0.9286662960D+01  0.4679413484D+00
      0.3163926960D+01  0.3623119853D+00
 SP   3 1.00       0.000000000000
      0.7868272350D+01 -0.1193324198D+00  0.6899906659D-01
      0.1881288540D+01 -0.1608541517D+00  0.3164239610D+00
      0.5442492580D+00  0.1143456438D+01  0.7443082909D+00
 SP   1 1.00       0.000000000000
      0.1687144782D+00  0.1000000000D+01  0.1000000000D+01
 D   1 1.00       0.000000000000
      0.8000000000D+00  0.1000000000D+01
 ****
     62 0
 S   3 1.00       0.000000000000
      0.1873113696D+02  0.3349460434D-01
      0.2825394365D+01  0.2347269535D+00
      0.6401216923D+00  0.8137573261D+00
 S   1 1.00       0.000000000000
      0.1612777588D+00  0.1000000000D+01
 ****
     63 0
 S   3 1.00       0.000000000000
      0.1873113696D+02  0.3349460434D-01
      0.2825394365D+01  0.2347269535D+00
      0.6401216923D+00  0.8137573261D+00
 S   1 1.00       0.000000000000
      0.1612777588D+00  0.1000000000D+01
 ****
     64 0
 S   6 1.00       0.000000000000
      0.3047524880D+04  0.1834737132D-02
      0.4573695180D+03  0.1403732281D-01
      0.1039486850D+03  0.6884262226D-01
      0.2921015530D+02  0.2321844432D+00
      0.9286662960D+01  0.4679413484D+00
      0.3163926960D+01  0.3623119853D+00
 SP   3 1.00       0.000000000000
      0.7868272350D+01 -0.1193324198D+00  0.6899906659D-01
      0.1881288540D+01 -0.1608541517D+00  0.3164239610D+00
      0.5442492580D+00  0.1143456438D+01  0.7443082909D+00
 SP   1 1.00       0.000000000000
      0.1687144782D+00  0.1000000000D+01  0.1000000000D+01
 D   1 1.00       0.000000000000
      0.8000000000D+00  0.1000000000D+01
 ****
     65 0
 S   3 1.00       0.000000000000
      0.1873113696D+02  0.3349460434D-01
      0.2825394365D+01  0.2347269535D+00
      0.6401216923D+00  0.8137573261D+00
 S   1 1.00       0.000000000000
      0.1612777588D+00  0.1000000000D+01
 ****
     66 0
 S   3 1.00       0.000000000000
      0.1873113696D+02  0.3349460434D-01
      0.2825394365D+01  0.2347269535D+00
      0.6401216923D+00  0.8137573261D+00
 S   1 1.00       0.000000000000
      0.1612777588D+00  0.1000000000D+01
 ****
     67 0
 S   6 1.00       0.000000000000
      0.3047524880D+04  0.1834737132D-02
      0.4573695180D+03  0.1403732281D-01
      0.1039486850D+03  0.6884262226D-01
      0.2921015530D+02  0.2321844432D+00
      0.9286662960D+01  0.4679413484D+00
      0.3163926960D+01  0.3623119853D+00
 SP   3 1.00       0.000000000000
      0.7868272350D+01 -0.1193324198D+00  0.6899906659D-01
      0.1881288540D+01 -0.1608541517D+00  0.3164239610D+00
      0.5442492580D+00  0.1143456438D+01  0.7443082909D+00
 SP   1 1.00       0.000000000000
      0.1687144782D+00  0.1000000000D+01  0.1000000000D+01
 D   1 1.00       0.000000000000
      0.8000000000D+00  0.1000000000D+01
 ****
     68 0
 S   3 1.00       0.000000000000
      0.1873113696D+02  0.3349460434D-01
      0.2825394365D+01  0.2347269535D+00
      0.6401216923D+00  0.8137573261D+00
 S   1 1.00       0.000000000000
      0.1612777588D+00  0.1000000000D+01
 ****
     69 0
 S   6 1.00       0.000000000000
      0.3047524880D+04  0.1834737132D-02
      0.4573695180D+03  0.1403732281D-01
      0.1039486850D+03  0.6884262226D-01
      0.2921015530D+02  0.2321844432D+00
      0.9286662960D+01  0.4679413484D+00
      0.3163926960D+01  0.3623119853D+00
 SP   3 1.00       0.000000000000
      0.7868272350D+01 -0.1193324198D+00  0.6899906659D-01
      0.1881288540D+01 -0.1608541517D+00  0.3164239610D+00
      0.5442492580D+00  0.1143456438D+01  0.7443082909D+00
 SP   1 1.00       0.000000000000
      0.1687144782D+00  0.1000000000D+01  0.1000000000D+01
 D   1 1.00       0.000000000000
      0.8000000000D+00  0.1000000000D+01
 ****
     70 0
 S   3 1.00       0.000000000000
      0.1873113696D+02  0.3349460434D-01
      0.2825394365D+01  0.2347269535D+00
      0.6401216923D+00  0.8137573261D+00
 S   1 1.00       0.000000000000
      0.1612777588D+00  0.1000000000D+01
 ****
     71 0
 S   3 1.00       0.000000000000
      0.1873113696D+02  0.3349460434D-01
      0.2825394365D+01  0.2347269535D+00
      0.6401216923D+00  0.8137573261D+00
 S   1 1.00       0.000000000000
      0.1612777588D+00  0.1000000000D+01
 ****
     72 0
 S   3 1.00       0.000000000000
      0.1873113696D+02  0.3349460434D-01
      0.2825394365D+01  0.2347269535D+00
      0.6401216923D+00  0.8137573261D+00
 S   1 1.00       0.000000000000
      0.1612777588D+00  0.1000000000D+01
 ****
     73 0
 S   6 1.00       0.000000000000
      0.3047524880D+04  0.1834737132D-02
      0.4573695180D+03  0.1403732281D-01
      0.1039486850D+03  0.6884262226D-01
      0.2921015530D+02  0.2321844432D+00
      0.9286662960D+01  0.4679413484D+00
      0.3163926960D+01  0.3623119853D+00
 SP   3 1.00       0.000000000000
      0.7868272350D+01 -0.1193324198D+00  0.6899906659D-01
      0.1881288540D+01 -0.1608541517D+00  0.3164239610D+00
      0.5442492580D+00  0.1143456438D+01  0.7443082909D+00
 SP   1 1.00       0.000000000000
      0.1687144782D+00  0.1000000000D+01  0.1000000000D+01
 D   1 1.00       0.000000000000
      0.8000000000D+00  0.1000000000D+01
 ****
     74 0
 S   3 1.00       0.000000000000
      0.1873113696D+02  0.3349460434D-01
      0.2825394365D+01  0.2347269535D+00
      0.6401216923D+00  0.8137573261D+00
 S   1 1.00       0.000000000000
      0.1612777588D+00  0.1000000000D+01
 ****
     75 0
 S   3 1.00       0.000000000000
      0.1873113696D+02  0.3349460434D-01
      0.2825394365D+01  0.2347269535D+00
      0.6401216923D+00  0.8137573261D+00
 S   1 1.00       0.000000000000
      0.1612777588D+00  0.1000000000D+01
 ****
     76 0
 S   3 1.00       0.000000000000
      0.1873113696D+02  0.3349460434D-01
      0.2825394365D+01  0.2347269535D+00
      0.6401216923D+00  0.8137573261D+00
 S   1 1.00       0.000000000000
      0.1612777588D+00  0.1000000000D+01
 ****

 AO basis set (Overlap normalization):
 Atom C1       Shell     1 S   6     bf    1 -     1         14.188726532660          4.063905824157         -0.099573921826
      0.3047524880D+04  0.1834737132D-02
      0.4573695180D+03  0.1403732281D-01
      0.1039486850D+03  0.6884262226D-01
      0.2921015530D+02  0.2321844432D+00
      0.9286662960D+01  0.4679413484D+00
      0.3163926960D+01  0.3623119853D+00
 Atom C1       Shell     2 SP   3    bf    2 -     5         14.188726532660          4.063905824157         -0.099573921826
      0.7868272350D+01 -0.1193324198D+00  0.6899906659D-01
      0.1881288540D+01 -0.1608541517D+00  0.3164239610D+00
      0.5442492580D+00  0.1143456438D+01  0.7443082909D+00
 Atom C1       Shell     3 SP   1    bf    6 -     9         14.188726532660          4.063905824157         -0.099573921826
      0.1687144782D+00  0.1000000000D+01  0.1000000000D+01
 Atom C1       Shell     4 D   1     bf   10 -    15         14.188726532660          4.063905824157         -0.099573921826
      0.8000000000D+00  0.1000000000D+01
 Atom H2       Shell     5 S   3     bf   16 -    16         13.994121685119          3.910815236193          1.958471478319
      0.1873113696D+02  0.3349460434D-01
      0.2825394365D+01  0.2347269535D+00
      0.6401216923D+00  0.8137573261D+00
 Atom H2       Shell     6 S   1     bf   17 -    17         13.994121685119          3.910815236193          1.958471478319
      0.1612777588D+00  0.1000000000D+01
 Atom C3       Shell     7 S   6     bf   18 -    18         12.766563318176          1.858334777154         -1.344221025496
      0.3047524880D+04  0.1834737132D-02
      0.4573695180D+03  0.1403732281D-01
      0.1039486850D+03  0.6884262226D-01
      0.2921015530D+02  0.2321844432D+00
      0.9286662960D+01  0.4679413484D+00
      0.3163926960D+01  0.3623119853D+00
 Atom C3       Shell     8 SP   3    bf   19 -    22         12.766563318176          1.858334777154         -1.344221025496
      0.7868272350D+01 -0.1193324198D+00  0.6899906659D-01
      0.1881288540D+01 -0.1608541517D+00  0.3164239610D+00
      0.5442492580D+00  0.1143456438D+01  0.7443082909D+00
 Atom C3       Shell     9 SP   1    bf   23 -    26         12.766563318176          1.858334777154         -1.344221025496
      0.1687144782D+00  0.1000000000D+01  0.1000000000D+01
 Atom C3       Shell    10 D   1     bf   27 -    32         12.766563318176          1.858334777154         -1.344221025496
      0.8000000000D+00  0.1000000000D+01
 Atom H4       Shell    11 S   3     bf   33 -    33         13.503360980039          0.062891899840         -0.629401143121
      0.1873113696D+02  0.3349460434D-01
      0.2825394365D+01  0.2347269535D+00
      0.6401216923D+00  0.8137573261D+00
 Atom H4       Shell    12 S   1     bf   34 -    34         13.503360980039          0.062891899840         -0.629401143121
      0.1612777588D+00  0.1000000000D+01
 Atom H5       Shell    13 S   3     bf   35 -    35         13.186847102870          1.905174644022         -3.382203448952
      0.1873113696D+02  0.3349460434D-01
      0.2825394365D+01  0.2347269535D+00
      0.6401216923D+00  0.8137573261D+00
 Atom H5       Shell    14 S   1     bf   36 -    36         13.186847102870          1.905174644022         -3.382203448952
      0.1612777588D+00  0.1000000000D+01
 Atom C6       Shell    15 S   6     bf   37 -    37          9.933476999144          2.006294324030         -0.923688344973
      0.3047524880D+04  0.1834737132D-02
      0.4573695180D+03  0.1403732281D-01
      0.1039486850D+03  0.6884262226D-01
      0.2921015530D+02  0.2321844432D+00
      0.9286662960D+01  0.4679413484D+00
      0.3163926960D+01  0.3623119853D+00
 Atom C6       Shell    16 SP   3    bf   38 -    41          9.933476999144          2.006294324030         -0.923688344973
      0.7868272350D+01 -0.1193324198D+00  0.6899906659D-01
      0.1881288540D+01 -0.1608541517D+00  0.3164239610D+00
      0.5442492580D+00  0.1143456438D+01  0.7443082909D+00
 Atom C6       Shell    17 SP   1    bf   42 -    45          9.933476999144          2.006294324030         -0.923688344973
      0.1687144782D+00  0.1000000000D+01  0.1000000000D+01
 Atom C6       Shell    18 D   1     bf   46 -    51          9.933476999144          2.006294324030         -0.923688344973
      0.8000000000D+00  0.1000000000D+01
 Atom C7       Shell    19 S   6     bf   52 -    52          8.645136876151          4.510876472478         -1.608708965884
      0.3047524880D+04  0.1834737132D-02
      0.4573695180D+03  0.1403732281D-01
      0.1039486850D+03  0.6884262226D-01
      0.2921015530D+02  0.2321844432D+00
      0.9286662960D+01  0.4679413484D+00
      0.3163926960D+01  0.3623119853D+00
 Atom C7       Shell    20 SP   3    bf   53 -    56          8.645136876151          4.510876472478         -1.608708965884
      0.7868272350D+01 -0.1193324198D+00  0.6899906659D-01
      0.1881288540D+01 -0.1608541517D+00  0.3164239610D+00
      0.5442492580D+00  0.1143456438D+01  0.7443082909D+00
 Atom C7       Shell    21 SP   1    bf   57 -    60          8.645136876151          4.510876472478         -1.608708965884
      0.1687144782D+00  0.1000000000D+01  0.1000000000D+01
 Atom C7       Shell    22 D   1     bf   61 -    66          8.645136876151          4.510876472478         -1.608708965884
      0.8000000000D+00  0.1000000000D+01
 Atom C8       Shell    23 S   6     bf   67 -    67         10.223585903133          6.705550999550         -0.432798231447
      0.3047524880D+04  0.1834737132D-02
      0.4573695180D+03  0.1403732281D-01
      0.1039486850D+03  0.6884262226D-01
      0.2921015530D+02  0.2321844432D+00
      0.9286662960D+01  0.4679413484D+00
      0.3163926960D+01  0.3623119853D+00
 Atom C8       Shell    24 SP   3    bf   68 -    71         10.223585903133          6.705550999550         -0.432798231447
      0.7868272350D+01 -0.1193324198D+00  0.6899906659D-01
      0.1881288540D+01 -0.1608541517D+00  0.3164239610D+00
      0.5442492580D+00  0.1143456438D+01  0.7443082909D+00
 Atom C8       Shell    25 SP   1    bf   72 -    75         10.223585903133          6.705550999550         -0.432798231447
      0.1687144782D+00  0.1000000000D+01  0.1000000000D+01
 Atom C8       Shell    26 D   1     bf   76 -    81         10.223585903133          6.705550999550         -0.432798231447
      0.8000000000D+00  0.1000000000D+01
 Atom H9       Shell    27 S   3     bf   82 -    82          9.942219495844          6.674998247585          1.623698764898
      0.1873113696D+02  0.3349460434D-01
      0.2825394365D+01  0.2347269535D+00
      0.6401216923D+00  0.8137573261D+00
 Atom H9       Shell    28 S   1     bf   83 -    83          9.942219495844          6.674998247585          1.623698764898
      0.1612777588D+00  0.1000000000D+01
 Atom H10      Shell    29 S   3     bf   84 -    84          9.479255282679          8.518148754007         -1.099978250293
      0.1873113696D+02  0.3349460434D-01
      0.2825394365D+01  0.2347269535D+00
      0.6401216923D+00  0.8137573261D+00
 Atom H10      Shell    30 S   1     bf   85 -    85          9.479255282679          8.518148754007         -1.099978250293
      0.1612777588D+00  0.1000000000D+01
 Atom C11      Shell    31 S   6     bf   86 -    86         13.074862045619          6.583976451449         -0.967693225799
      0.3047524880D+04  0.1834737132D-02
      0.4573695180D+03  0.1403732281D-01
      0.1039486850D+03  0.6884262226D-01
      0.2921015530D+02  0.2321844432D+00
      0.9286662960D+01  0.4679413484D+00
      0.3163926960D+01  0.3623119853D+00
 Atom C11      Shell    32 SP   3    bf   87 -    90         13.074862045619          6.583976451449         -0.967693225799
      0.7868272350D+01 -0.1193324198D+00  0.6899906659D-01
      0.1881288540D+01 -0.1608541517D+00  0.3164239610D+00
      0.5442492580D+00  0.1143456438D+01  0.7443082909D+00
 Atom C11      Shell    33 SP   1    bf   91 -    94         13.074862045619          6.583976451449         -0.967693225799
      0.1687144782D+00  0.1000000000D+01  0.1000000000D+01
 Atom C11      Shell    34 D   1     bf   95 -   100         13.074862045619          6.583976451449         -0.967693225799
      0.8000000000D+00  0.1000000000D+01
 Atom H12      Shell    35 S   3     bf  101 -   101         13.445389284542          6.825519337131         -2.998890927726
      0.1873113696D+02  0.3349460434D-01
      0.2825394365D+01  0.2347269535D+00
      0.6401216923D+00  0.8137573261D+00
 Atom H12      Shell    36 S   1     bf  102 -   102         13.445389284542          6.825519337131         -2.998890927726
      0.1612777588D+00  0.1000000000D+01
 Atom H13      Shell    37 S   3     bf  103 -   103         14.044376910719          8.137137843622          0.000000000000
      0.1873113696D+02  0.3349460434D-01
      0.2825394365D+01  0.2347269535D+00
      0.6401216923D+00  0.8137573261D+00
 Atom H13      Shell    38 S   1     bf  104 -   104         14.044376910719          8.137137843622          0.000000000000
      0.1612777588D+00  0.1000000000D+01
 Atom C14      Shell    39 S   6     bf  105 -   105          8.687203918417          0.000000000000          0.000000000000
      0.3047524880D+04  0.1834737132D-02
      0.4573695180D+03  0.1403732281D-01
      0.1039486850D+03  0.6884262226D-01
      0.2921015530D+02  0.2321844432D+00
      0.9286662960D+01  0.4679413484D+00
      0.3163926960D+01  0.3623119853D+00
 Atom C14      Shell    40 SP   3    bf  106 -   109          8.687203918417          0.000000000000          0.000000000000
      0.7868272350D+01 -0.1193324198D+00  0.6899906659D-01
      0.1881288540D+01 -0.1608541517D+00  0.3164239610D+00
      0.5442492580D+00  0.1143456438D+01  0.7443082909D+00
 Atom C14      Shell    41 SP   1    bf  110 -   113          8.687203918417          0.000000000000          0.000000000000
      0.1687144782D+00  0.1000000000D+01  0.1000000000D+01
 Atom C14      Shell    42 D   1     bf  114 -   119          8.687203918417          0.000000000000          0.000000000000
      0.8000000000D+00  0.1000000000D+01
 Atom H15      Shell    43 S   3     bf  120 -   120          9.738062744105         -1.711314613139          0.444834596386
      0.1873113696D+02  0.3349460434D-01
      0.2825394365D+01  0.2347269535D+00
      0.6401216923D+00  0.8137573261D+00
 Atom H15      Shell    44 S   1     bf  121 -   121          9.738062744105         -1.711314613139          0.444834596386
      0.1612777588D+00  0.1000000000D+01
 Atom C16      Shell    45 S   6     bf  122 -   122          5.893879818276         -0.082343247768          0.491585362667
      0.3047524880D+04  0.1834737132D-02
      0.4573695180D+03  0.1403732281D-01
      0.1039486850D+03  0.6884262226D-01
      0.2921015530D+02  0.2321844432D+00
      0.9286662960D+01  0.4679413484D+00
      0.3163926960D+01  0.3623119853D+00
 Atom C16      Shell    46 SP   3    bf  123 -   126          5.893879818276         -0.082343247768          0.491585362667
      0.7868272350D+01 -0.1193324198D+00  0.6899906659D-01
      0.1881288540D+01 -0.1608541517D+00  0.3164239610D+00
      0.5442492580D+00  0.1143456438D+01  0.7443082909D+00
 Atom C16      Shell    47 SP   1    bf  127 -   130          5.893879818276         -0.082343247768          0.491585362667
      0.1687144782D+00  0.1000000000D+01  0.1000000000D+01
 Atom C16      Shell    48 D   1     bf  131 -   136          5.893879818276         -0.082343247768          0.491585362667
      0.8000000000D+00  0.1000000000D+01
 Atom H17      Shell    49 S   3     bf  137 -   137          5.115678313533         -1.906175802030         -0.115252828372
      0.1873113696D+02  0.3349460434D-01
      0.2825394365D+01  0.2347269535D+00
      0.6401216923D+00  0.8137573261D+00
 Atom H17      Shell    50 S   1     bf  138 -   138          5.115678313533         -1.906175802030         -0.115252828372
      0.1612777588D+00  0.1000000000D+01
 Atom C18      Shell    51 S   6     bf  139 -   139          4.460614557247          2.082743232530         -0.820427850921
      0.3047524880D+04  0.1834737132D-02
      0.4573695180D+03  0.1403732281D-01
      0.1039486850D+03  0.6884262226D-01
      0.2921015530D+02  0.2321844432D+00
      0.9286662960D+01  0.4679413484D+00
      0.3163926960D+01  0.3623119853D+00
 Atom C18      Shell    52 SP   3    bf  140 -   143          4.460614557247          2.082743232530         -0.820427850921
      0.7868272350D+01 -0.1193324198D+00  0.6899906659D-01
      0.1881288540D+01 -0.1608541517D+00  0.3164239610D+00
      0.5442492580D+00  0.1143456438D+01  0.7443082909D+00
 Atom C18      Shell    53 SP   1    bf  144 -   147          4.460614557247          2.082743232530         -0.820427850921
      0.1687144782D+00  0.1000000000D+01  0.1000000000D+01
 Atom C18      Shell    54 D   1     bf  148 -   153          4.460614557247          2.082743232530         -0.820427850921
      0.8000000000D+00  0.1000000000D+01
 Atom H19      Shell    55 S   3     bf  154 -   154          4.430174527445          1.565863261964         -2.832029206234
      0.1873113696D+02  0.3349460434D-01
      0.2825394365D+01  0.2347269535D+00
      0.6401216923D+00  0.8137573261D+00
 Atom H19      Shell    56 S   1     bf  155 -   155          4.430174527445          1.565863261964         -2.832029206234
      0.1612777588D+00  0.1000000000D+01
 Atom C20      Shell    57 S   6     bf  156 -   156          5.899811857579          4.615599009844         -0.490986640737
      0.3047524880D+04  0.1834737132D-02
      0.4573695180D+03  0.1403732281D-01
      0.1039486850D+03  0.6884262226D-01
      0.2921015530D+02  0.2321844432D+00
      0.9286662960D+01  0.4679413484D+00
      0.3163926960D+01  0.3623119853D+00
 Atom C20      Shell    58 SP   3    bf  157 -   160          5.899811857579          4.615599009844         -0.490986640737
      0.7868272350D+01 -0.1193324198D+00  0.6899906659D-01
      0.1881288540D+01 -0.1608541517D+00  0.3164239610D+00
      0.5442492580D+00  0.1143456438D+01  0.7443082909D+00
 Atom C20      Shell    59 SP   1    bf  161 -   164          5.899811857579          4.615599009844         -0.490986640737
      0.1687144782D+00  0.1000000000D+01  0.1000000000D+01
 Atom C20      Shell    60 D   1     bf  165 -   170          5.899811857579          4.615599009844         -0.490986640737
      0.8000000000D+00  0.1000000000D+01
 Atom H21      Shell    61 S   3     bf  171 -   171          6.124289968261          4.872380817137          1.559368991342
      0.1873113696D+02  0.3349460434D-01
      0.2825394365D+01  0.2347269535D+00
      0.6401216923D+00  0.8137573261D+00
 Atom H21      Shell    62 S   1     bf  172 -   172          6.124289968261          4.872380817137          1.559368991342
      0.1612777588D+00  0.1000000000D+01
 Atom C22      Shell    63 S   6     bf  173 -   173          4.340328972444          6.888223927316         -1.466758313473
      0.3047524880D+04  0.1834737132D-02
      0.4573695180D+03  0.1403732281D-01
      0.1039486850D+03  0.6884262226D-01
      0.2921015530D+02  0.2321844432D+00
      0.9286662960D+01  0.4679413484D+00
      0.3163926960D+01  0.3623119853D+00
 Atom C22      Shell    64 SP   3    bf  174 -   177          4.340328972444          6.888223927316         -1.466758313473
      0.7868272350D+01 -0.1193324198D+00  0.6899906659D-01
      0.1881288540D+01 -0.1608541517D+00  0.3164239610D+00
      0.5442492580D+00  0.1143456438D+01  0.7443082909D+00
 Atom C22      Shell    65 SP   1    bf  178 -   181          4.340328972444          6.888223927316         -1.466758313473
      0.1687144782D+00  0.1000000000D+01  0.1000000000D+01
 Atom C22      Shell    66 D   1     bf  182 -   187          4.340328972444          6.888223927316         -1.466758313473
      0.8000000000D+00  0.1000000000D+01
 Atom H23      Shell    67 S   3     bf  188 -   188          4.316363843572          6.891548220146         -3.535426506718
      0.1873113696D+02  0.3349460434D-01
      0.2825394365D+01  0.2347269535D+00
      0.6401216923D+00  0.8137573261D+00
 Atom H23      Shell    68 S   1     bf  189 -   189          4.316363843572          6.891548220146         -3.535426506718
      0.1612777588D+00  0.1000000000D+01
 Atom H24      Shell    69 S   3     bf  190 -   190          5.269699062494          8.653013519234         -0.907626220864
      0.1873113696D+02  0.3349460434D-01
      0.2825394365D+01  0.2347269535D+00
      0.6401216923D+00  0.8137573261D+00
 Atom H24      Shell    70 S   1     bf  191 -   191          5.269699062494          8.653013519234         -0.907626220864
      0.1612777588D+00  0.1000000000D+01
 Atom C25      Shell    71 S   6     bf  192 -   192          1.583287349492          6.955737549256         -0.522875599154
      0.3047524880D+04  0.1834737132D-02
      0.4573695180D+03  0.1403732281D-01
      0.1039486850D+03  0.6884262226D-01
      0.2921015530D+02  0.2321844432D+00
      0.9286662960D+01  0.4679413484D+00
      0.3163926960D+01  0.3623119853D+00
 Atom C25      Shell    72 SP   3    bf  193 -   196          1.583287349492          6.955737549256         -0.522875599154
      0.7868272350D+01 -0.1193324198D+00  0.6899906659D-01
      0.1881288540D+01 -0.1608541517D+00  0.3164239610D+00
      0.5442492580D+00  0.1143456438D+01  0.7443082909D+00
 Atom C25      Shell    73 SP   1    bf  197 -   200          1.583287349492          6.955737549256         -0.522875599154
      0.1687144782D+00  0.1000000000D+01  0.1000000000D+01
 Atom C25      Shell    74 D   1     bf  201 -   206          1.583287349492          6.955737549256         -0.522875599154
      0.8000000000D+00  0.1000000000D+01
 Atom H26      Shell    75 S   3     bf  207 -   207          1.556732445441          7.250107180962          1.533382630295
      0.1873113696D+02  0.3349460434D-01
      0.2825394365D+01  0.2347269535D+00
      0.6401216923D+00  0.8137573261D+00
 Atom H26      Shell    76 S   1     bf  208 -   208          1.556732445441          7.250107180962          1.533382630295
      0.1612777588D+00  0.1000000000D+01
 Atom H27      Shell    77 S   3     bf  209 -   209          0.651108219339          8.599168834434         -1.364281999075
      0.1873113696D+02  0.3349460434D-01
      0.2825394365D+01  0.2347269535D+00
      0.6401216923D+00  0.8137573261D+00
 Atom H27      Shell    78 S   1     bf  210 -   210          0.651108219339          8.599168834434         -1.364281999075
      0.1612777588D+00  0.1000000000D+01
 Atom C28      Shell    79 S   6     bf  211 -   211          0.172176273885          4.476167834800         -1.124829056009
      0.3047524880D+04  0.1834737132D-02
      0.4573695180D+03  0.1403732281D-01
      0.1039486850D+03  0.6884262226D-01
      0.2921015530D+02  0.2321844432D+00
      0.9286662960D+01  0.4679413484D+00
      0.3163926960D+01  0.3623119853D+00
 Atom C28      Shell    80 SP   3    bf  212 -   215          0.172176273885          4.476167834800         -1.124829056009
      0.7868272350D+01 -0.1193324198D+00  0.6899906659D-01
      0.1881288540D+01 -0.1608541517D+00  0.3164239610D+00
      0.5442492580D+00  0.1143456438D+01  0.7443082909D+00
 Atom C28      Shell    81 SP   1    bf  216 -   219          0.172176273885          4.476167834800         -1.124829056009
      0.1687144782D+00  0.1000000000D+01  0.1000000000D+01
 Atom C28      Shell    82 D   1     bf  220 -   225          0.172176273885          4.476167834800         -1.124829056009
      0.8000000000D+00  0.1000000000D+01
 Atom C29      Shell    83 S   6     bf  226 -   226          1.728322696355          2.323937388152          0.130959740660
      0.3047524880D+04  0.1834737132D-02
      0.4573695180D+03  0.1403732281D-01
      0.1039486850D+03  0.6884262226D-01
      0.2921015530D+02  0.2321844432D+00
      0.9286662960D+01  0.4679413484D+00
      0.3163926960D+01  0.3623119853D+00
 Atom C29      Shell    84 SP   3    bf  227 -   230          1.728322696355          2.323937388152          0.130959740660
      0.7868272350D+01 -0.1193324198D+00  0.6899906659D-01
      0.1881288540D+01 -0.1608541517D+00  0.3164239610D+00
      0.5442492580D+00  0.1143456438D+01  0.7443082909D+00
 Atom C29      Shell    85 SP   1    bf  231 -   234          1.728322696355          2.323937388152          0.130959740660
      0.1687144782D+00  0.1000000000D+01  0.1000000000D+01
 Atom C29      Shell    86 D   1     bf  235 -   240          1.728322696355          2.323937388152          0.130959740660
      0.8000000000D+00  0.1000000000D+01
 Atom H30      Shell    87 S   3     bf  241 -   241          1.855059106978          2.843249285072          2.137191854905
      0.1873113696D+02  0.3349460434D-01
      0.2825394365D+01  0.2347269535D+00
      0.6401216923D+00  0.8137573261D+00
 Atom H30      Shell    88 S   1     bf  242 -   242          1.855059106978          2.843249285072          2.137191854905
      0.1612777588D+00  0.1000000000D+01
 Atom C31      Shell    89 S   6     bf  243 -   243          0.000000000000          0.000000000000          0.000000000000
      0.3047524880D+04  0.1834737132D-02
      0.4573695180D+03  0.1403732281D-01
      0.1039486850D+03  0.6884262226D-01
      0.2921015530D+02  0.2321844432D+00
      0.9286662960D+01  0.4679413484D+00
      0.3163926960D+01  0.3623119853D+00
 Atom C31      Shell    90 SP   3    bf  244 -   247          0.000000000000          0.000000000000          0.000000000000
      0.7868272350D+01 -0.1193324198D+00  0.6899906659D-01
      0.1881288540D+01 -0.1608541517D+00  0.3164239610D+00
      0.5442492580D+00  0.1143456438D+01  0.7443082909D+00
 Atom C31      Shell    91 SP   1    bf  248 -   251          0.000000000000          0.000000000000          0.000000000000
      0.1687144782D+00  0.1000000000D+01  0.1000000000D+01
 Atom C31      Shell    92 D   1     bf  252 -   257          0.000000000000          0.000000000000          0.000000000000
      0.8000000000D+00  0.1000000000D+01
 Atom H32      Shell    93 S   3     bf  258 -   258          0.470827382502         -1.396970840769          1.448127465735
      0.1873113696D+02  0.3349460434D-01
      0.2825394365D+01  0.2347269535D+00
      0.6401216923D+00  0.8137573261D+00
 Atom H32      Shell    94 S   1     bf  259 -   259          0.470827382502         -1.396970840769          1.448127465735
      0.1612777588D+00  0.1000000000D+01
 Atom H33      Shell    95 S   3     bf  260 -   260          0.168936225047         -0.946476949252         -1.837843210578
      0.1873113696D+02  0.3349460434D-01
      0.2825394365D+01  0.2347269535D+00
      0.6401216923D+00  0.8137573261D+00
 Atom H33      Shell    96 S   1     bf  261 -   261          0.168936225047         -0.946476949252         -1.837843210578
      0.1612777588D+00  0.1000000000D+01
 Atom C34      Shell    97 S   6     bf  262 -   262         -2.687162441839          1.123886914149          0.361424787189
      0.3047524880D+04  0.1834737132D-02
      0.4573695180D+03  0.1403732281D-01
      0.1039486850D+03  0.6884262226D-01
      0.2921015530D+02  0.2321844432D+00
      0.9286662960D+01  0.4679413484D+00
      0.3163926960D+01  0.3623119853D+00
 Atom C34      Shell    98 SP   3    bf  263 -   266         -2.687162441839          1.123886914149          0.361424787189
      0.7868272350D+01 -0.1193324198D+00  0.6899906659D-01
      0.1881288540D+01 -0.1608541517D+00  0.3164239610D+00
      0.5442492580D+00  0.1143456438D+01  0.7443082909D+00
 Atom C34      Shell    99 SP   1    bf  267 -   270         -2.687162441839          1.123886914149          0.361424787189
      0.1687144782D+00  0.1000000000D+01  0.1000000000D+01
 Atom C34      Shell   100 D   1     bf  271 -   276         -2.687162441839          1.123886914149          0.361424787189
      0.8000000000D+00  0.1000000000D+01
 Atom H35      Shell   101 S   3     bf  277 -   277         -3.974867182214          0.449637618812         -1.115662466970
      0.1873113696D+02  0.3349460434D-01
      0.2825394365D+01  0.2347269535D+00
      0.6401216923D+00  0.8137573261D+00
 Atom H35      Shell   102 S   1     bf  278 -   278         -3.974867182214          0.449637618812         -1.115662466970
      0.1612777588D+00  0.1000000000D+01
 Atom H36      Shell   103 S   3     bf  279 -   279         -3.506573355539          0.530664804609          2.164030047801
      0.1873113696D+02  0.3349460434D-01
      0.2825394365D+01  0.2347269535D+00
      0.6401216923D+00  0.8137573261D+00
 Atom H36      Shell   104 S   1     bf  280 -   280         -3.506573355539          0.530664804609          2.164030047801
      0.1612777588D+00  0.1000000000D+01
 Atom C37      Shell   105 S   6     bf  281 -   281         -2.432204787182          4.072285890282          0.234961045150
      0.3047524880D+04  0.1834737132D-02
      0.4573695180D+03  0.1403732281D-01
      0.1039486850D+03  0.6884262226D-01
      0.2921015530D+02  0.2321844432D+00
      0.9286662960D+01  0.4679413484D+00
      0.3163926960D+01  0.3623119853D+00
 Atom C37      Shell   106 SP   3    bf  282 -   285         -2.432204787182          4.072285890282          0.234961045150
      0.7868272350D+01 -0.1193324198D+00  0.6899906659D-01
      0.1881288540D+01 -0.1608541517D+00  0.3164239610D+00
      0.5442492580D+00  0.1143456438D+01  0.7443082909D+00
[...]
 1637 Fit      -0.001851
 1638 Fit      -0.001669
 1639 Fit      -0.002260
 1640 Fit      -0.003525
 1641 Fit      -0.001099
 1642 Fit      -0.002272
 1643 Fit      -0.001659
 1644 Fit      -0.001299
 1645 Fit       0.000166
 1646 Fit       0.000413
 1647 Fit      -0.001190
 1648 Fit       0.000730
 1649 Fit       0.001736
 1650 Fit       0.002060
 1651 Fit      -0.000824
 1652 Fit       0.001279
 1653 Fit       0.002552
 1654 Fit      -0.001048
 1655 Fit      -0.000723
 1656 Fit      -0.001798
 1657 Fit       0.000235
 1658 Fit       0.001218
 1659 Fit       0.001247
 1660 Fit       0.000058
 1661 Fit      -0.002084
 1662 Fit       0.001209
 1663 Fit       0.002258
 1664 Fit       0.002208
 1665 Fit       0.000720
 1666 Fit      -0.001855
 1667 Fit       0.001859
 1668 Fit       0.001896
 1669 Fit       0.001218
 1670 Fit       0.000133
 1671 Fit      -0.000299
 1672 Fit       0.001331
 1673 Fit      -0.000542
 1674 Fit       0.000113
 1675 Fit      -0.000706
 1676 Fit      -0.001757
 1677 Fit      -0.002698
 1678 Fit      -0.000952
 1679 Fit       0.003531
 1680 Fit      -0.002587
 1681 Fit       0.000472
 1682 Fit       0.004842
 1683 Fit       0.006697
 1684 Fit       0.007097
 1685 Fit       0.001405
 1686 Fit      -0.013902
 1687 Fit      -0.009607
 1688 Fit      -0.001514
 1689 Fit       0.004481
 1690 Fit       0.005711
 1691 Fit       0.010503
 1692 Fit       0.006955
 1693 Fit      -0.001107
 1694 Fit      -0.009804
 1695 Fit       0.002233
 1696 Fit       0.003720
 1697 Fit       0.004113
 1698 Fit       0.007222
 1699 Fit       0.004303
 1700 Fit       0.003856
 1701 Fit      -0.003358
 1702 Fit       0.004969
 1703 Fit       0.000858
 1704 Fit      -0.007379
 1705 Fit       0.004071
 1706 Fit       0.001486
 1707 Fit      -0.003937
 1708 Fit       0.003222
 1709 Fit       0.003349
 1710 Fit       0.008750
 1711 Fit       0.003975
 1712 Fit       0.005455
 1713 Fit       0.007436
 1714 Fit       0.011519
 1715 Fit       0.016286
 1716 Fit       0.008903
 1717 Fit       0.010958
 1718 Fit       0.005211
 1719 Fit       0.004841
 1720 Fit       0.005113
 1721 Fit       0.004663
 1722 Fit       0.005663
 1723 Fit       0.004741
 1724 Fit       0.004140
 1725 Fit       0.002876
 1726 Fit       0.002750
 1727 Fit       0.006203
 1728 Fit       0.004904
 1729 Fit       0.004601
 1730 Fit       0.004207
 1731 Fit       0.003890
 1732 Fit       0.005583
 1733 Fit       0.006653
 1734 Fit       0.007290
 1735 Fit       0.007746
 1736 Fit       0.008387
 1737 Fit       0.008606
 1738 Fit       0.009182
 1739 Fit       0.009131
 1740 Fit       0.006066
 1741 Fit       0.006111
 1742 Fit       0.007415
 1743 Fit       0.009276
 1744 Fit       0.006444
 1745 Fit       0.012323
 1746 Fit       0.009311
 1747 Fit       0.009044
 1748 Fit       0.017334
 1749 Fit       0.012344
 1750 Fit       0.010899
 1751 Fit       0.003136
 1752 Fit      -0.002820
 1753 Fit       0.001800
 1754 Fit       0.004386
 1755 Fit      -0.011474
 1756 Fit      -0.001967
 1757 Fit       0.002522
 1758 Fit       0.004471
 1759 Fit      -0.004059
 1760 Fit       0.001508
 1761 Fit       0.004052
 1762 Fit       0.005366
 1763 Fit      -0.001546
 1764 Fit       0.002457
 1765 Fit       0.004477
 1766 Fit       0.005928
 1767 Fit       0.004727
 1768 Fit       0.010617
 1769 Fit       0.001144
 1770 Fit       0.000558
 1771 Fit      -0.000264
 1772 Fit       0.001377
 1773 Fit      -0.000576
 1774 Fit       0.005246
 1775 Fit       0.008493
 1776 Fit      -0.005410
 1777 Fit       0.001984
 1778 Fit       0.005669
 1779 Fit      -0.000295
 1780 Fit       0.002741
 1781 Fit       0.005152
 1782 Fit       0.001326
 1783 Fit       0.002853
 1784 Fit      -0.010360
 1785 Fit      -0.010828
 1786 Fit      -0.002724
 1787 Fit      -0.002230
 1788 Fit      -0.001742
 1789 Fit       0.001858
 1790 Fit       0.001962
 1791 Fit       0.002059
 1792 Fit       0.004698
 1793 Fit       0.003828
 1794 Fit       0.006071
 1795 Fit       0.005693
 1796 Fit       0.007014
 1797 Fit      -0.006246
 1798 Fit      -0.000019
 1799 Fit       0.001360
 1800 Fit      -0.001356
 1801 Fit      -0.008974
 1802 Fit       0.002492
 1803 Fit       0.004632
 1804 Fit       0.005808
 1805 Fit       0.005061
 1806 Fit       0.006087
 1807 Fit       0.007026
 1808 Fit       0.004002
 1809 Fit       0.005462
 1810 Fit       0.003853
 1811 Fit       0.006200
 1812 Fit       0.004263
 1813 Fit       0.006790
 1814 Fit       0.004767
 1815 Fit       0.007885
 1816 Fit       0.005242
 1817 Fit       0.001670
 1818 Fit       0.000053
 1819 Fit       0.001701
 1820 Fit      -0.000549
 1821 Fit      -0.000549
 1822 Fit       0.000868
 1823 Fit       0.000692
 1824 Fit       0.000257
 1825 Fit       0.002057
 1826 Fit       0.001475
 1827 Fit       0.000724
 1828 Fit       0.000663
 1829 Fit      -0.000184
 1830 Fit       0.002144
 1831 Fit       0.001096
 1832 Fit       0.003586
 1833 Fit       0.002989
 1834 Fit       0.004532
 1835 Fit       0.004739
 1836 Fit       0.005070
 1837 Fit      -0.014492
 1838 Fit      -0.008991
 1839 Fit      -0.005441
 1840 Fit      -0.008412
 1841 Fit      -0.018354
 1842 Fit      -0.004333
 1843 Fit      -0.004837
 1844 Fit      -0.004794
 1845 Fit      -0.020119
 1846 Fit      -0.013568
 1847 Fit      -0.008460
 1848 Fit      -0.012564
 1849 Fit      -0.006972
 1850 Fit      -0.008567
 1851 Fit      -0.012699
 1852 Fit      -0.006598
 1853 Fit      -0.007283
 1854 Fit      -0.001868
 1855 Fit      -0.001900
 1856 Fit      -0.000926
 1857 Fit       0.001040
 1858 Fit       0.001075
 1859 Fit       0.002349
 1860 Fit       0.004983
 1861 Fit       0.005278
 1862 Fit       0.002994
 1863 Fit       0.003709
 1864 Fit      -0.003737
 1865 Fit      -0.005365
 1866 Fit      -0.004136
 1867 Fit      -0.002295
 1868 Fit       0.000779
 1869 Fit      -0.000429
 1870 Fit      -0.001713
 1871 Fit       0.001168
 1872 Fit       0.001112
 1873 Fit       0.000574
 1874 Fit       0.002119
 1875 Fit       0.002448
 1876 Fit      -0.004556
 1877 Fit      -0.008776
 1878 Fit      -0.004898
 1879 Fit      -0.003140
 1880 Fit      -0.002708
 1881 Fit      -0.003762
 1882 Fit      -0.007129
 1883 Fit      -0.001962
 1884 Fit      -0.002786
 1885 Fit      -0.004946
 1886 Fit      -0.001465
 1887 Fit      -0.003039
 1888 Fit      -0.004912
 1889 Fit      -0.002303
 1890 Fit      -0.003536
 1891 Fit      -0.000678
 1892 Fit      -0.000191
 1893 Fit      -0.003483
 1894 Fit      -0.005700
 1895 Fit       0.001111
 1896 Fit       0.003811
 1897 Fit       0.003386
 1898 Fit       0.000793
 1899 Fit       0.002977
 1900 Fit       0.002205
 1901 Fit       0.000660
 1902 Fit       0.000857
 1903 Fit       0.002005
 1904 Fit       0.001202
 1905 Fit       0.006259
 1906 Fit       0.006086
 1907 Fit       0.004497
 1908 Fit       0.004740
 1909 Fit       0.003023
 1910 Fit       0.003321
 1911 Fit       0.002009
 1912 Fit       0.002768
 1913 Fit       0.003047
 1914 Fit       0.003140
 1915 Fit       0.000950
 1916 Fit       0.001880
 1917 Fit       0.001864
 1918 Fit       0.005800
 1919 Fit       0.004180
 1920 Fit       0.004384
 1921 Fit       0.003648
 1922 Fit       0.002804
 1923 Fit       0.001602
 1924 Fit       0.002832
 1925 Fit       0.002950
 1926 Fit       0.001774
 1927 Fit       0.001464
 1928 Fit       0.002252
 1929 Fit       0.001674
 1930 Fit       0.002067
 1931 Fit      -0.001067
 1932 Fit      -0.000459
 1933 Fit      -0.001138
 1934 Fit      -0.001143
 1935 Fit       0.000618
 1936 Fit      -0.000714
 1937 Fit      -0.000100
 1938 Fit       0.000644
 1939 Fit       0.001322
 1940 Fit       0.002182
 1941 Fit       0.002767
 1942 Fit       0.001080
 1943 Fit       0.001081
 1944 Fit       0.001159
 1945 Fit       0.000737
 1946 Fit       0.000508
 1947 Fit       0.000788
 1948 Fit       0.000414
 1949 Fit      -0.000250
 1950 Fit      -0.000970
 1951 Fit      -0.000025
 1952 Fit      -0.000153
 1953 Fit      -0.000688
 1954 Fit      -0.000131
 1955 Fit       0.001638
 1956 Fit       0.000746
 1957 Fit       0.002274
 1958 Fit       0.000974
 1959 Fit       0.002291
 1960 Fit       0.002874
 1961 Fit       0.001641
 1962 Fit       0.001766
 1963 Fit       0.003844
 1964 Fit       0.001581
 1965 Fit       0.004423
 1966 Fit       0.002262
 1967 Fit       0.010009
 1968 Fit       0.005295
 1969 Fit       0.006182
 1970 Fit       0.006501
 1971 Fit       0.007275
 1972 Fit       0.006270
 1973 Fit       0.005572
 1974 Fit       0.005408
 1975 Fit       0.006107
 1976 Fit       0.005469
 1977 Fit       0.009303
 1978 Fit       0.009111
 1979 Fit       0.008584
 1980 Fit       0.008588
 1981 Fit       0.008154
 1982 Fit       0.008019
 1983 Fit       0.007641
 1984 Fit       0.006992
 1985 Fit       0.006792
 1986 Fit       0.016219
 1987 Fit       0.013791
 1988 Fit       0.009879
 1989 Fit       0.009706
 1990 Fit       0.014319
 1991 Fit       0.010665
 1992 Fit       0.008672
 1993 Fit       0.008730
 1994 Fit       0.007179
 1995 Fit       0.006372
 1996 Fit       0.003153
 1997 Fit       0.007705
 1998 Fit       0.006307
 1999 Fit       0.005313
 2000 Fit       0.006434
 2001 Fit       0.006440
 2002 Fit       0.005766
 2003 Fit       0.005600
 2004 Fit      -0.004105
 2005 Fit      -0.014947
 2006 Fit      -0.004289
 2007 Fit      -0.011223
 2008 Fit      -0.015255
 2009 Fit      -0.018963
 2010 Fit      -0.023444
 2011 Fit      -0.000913
 2012 Fit      -0.003262
 2013 Fit      -0.008505
 2014 Fit      -0.015434
 2015 Fit      -0.012023
 2016 Fit      -0.000399
 2017 Fit      -0.021818
 2018 Fit      -0.023111
 2019 Fit      -0.021946
 2020 Fit      -0.017938
 2021 Fit      -0.010676
 2022 Fit      -0.000440
 2023 Fit      -0.025173
 2024 Fit      -0.023812
 2025 Fit      -0.020888
 2026 Fit      -0.015526
 2027 Fit      -0.007748
 2028 Fit       0.002307
 2029 Fit      -0.021979
 2030 Fit      -0.021534
 2031 Fit      -0.019003
 2032 Fit      -0.014362
 2033 Fit      -0.007666
 2034 Fit       0.000968
 2035 Fit      -0.017657
 2036 Fit      -0.015918
 2037 Fit      -0.011300
 2038 Fit       0.006349
 2039 Fit       0.013668
 2040 Fit       0.011121
 2041 Fit       0.001865
 2042 Fit       0.008451
 2043 Fit       0.016793
 2044 Fit       0.016138
 2045 Fit       0.011375
 2046 Fit       0.001731
 2047 Fit       0.006851
 2048 Fit       0.013842
 2049 Fit       0.016554
 2050 Fit       0.016066
 2051 Fit       0.012624
 2052 Fit       0.004107
 2053 Fit       0.008576
 2054 Fit       0.014365
 2055 Fit       0.013975
 2056 Fit       0.012443
 2057 Fit      -0.020054
 2058 Fit      -0.015833
 2059 Fit      -0.016228
 2060 Fit      -0.023897
 2061 Fit      -0.022479
 2062 Fit      -0.018207
 2063 Fit      -0.011665
 2064 Fit      -0.019573
 2065 Fit      -0.023192
 2066 Fit      -0.021992
 2067 Fit      -0.021057
 2068 Fit      -0.018801
 2069 Fit      -0.013455
 2070 Fit      -0.016684
 2071 Fit      -0.021035
 2072 Fit      -0.022218
 2073 Fit      -0.014584
 2074 Fit      -0.013730
 2075 Fit      -0.012568
 2076 Fit      -0.009966
 2077 Fit      -0.014340
 2078 Fit      -0.015876
 2079 Fit      -0.015496
 2080 Fit      -0.002230
 2081 Fit      -0.000046
 2082 Fit       0.001729
 2083 Fit      -0.004487
 2084 Fit      -0.005357
 2085 Fit      -0.004011
 2086 Fit       0.003092
 2087 Fit       0.004127
 2088 Fit       0.005173
 2089 Fit       0.006894
 2090 Fit       0.000463
 2091 Fit       0.001700
 2092 Fit       0.013004
 2093 Fit       0.014095
 2094 Fit       0.015638
 2095 Fit       0.012146
 2096 Fit       0.012119
 2097 Fit       0.019356
 2098 Fit       0.021021
 2099 Fit       0.019420
 2100 Fit       0.023456
 2101 Fit      -0.002316
 2102 Fit      -0.002583
 2103 Fit      -0.001335
 2104 Fit      -0.001497
 2105 Fit      -0.000365
 2106 Fit      -0.001007
 2107 Fit      -0.000293
 2108 Fit      -0.000925
 2109 Fit      -0.000932
 2110 Fit       0.000033
 2111 Fit      -0.000322
 2112 Fit      -0.001080
 2113 Fit      -0.002070
 2114 Fit      -0.002217
 2115 Fit       0.000740
 2116 Fit       0.000720
 2117 Fit      -0.000093
 2118 Fit      -0.000874
 2119 Fit      -0.001047
 2120 Fit      -0.001570
 2121 Fit      -0.000510
 2122 Fit      -0.000563
 2123 Fit      -0.000358
 2124 Fit       0.000648
 2125 Fit      -0.000035
 2126 Fit      -0.001595
 2127 Fit      -0.000021
 2128 Fit       0.000236
 2129 Fit      -0.000672
 2130 Fit      -0.000749
 2131 Fit      -0.000827
 2132 Fit      -0.000216
 2133 Fit      -0.000743
 2134 Fit       0.000525
 2135 Fit       0.001055
 2136 Fit       0.000412
 2137 Fit      -0.000677
 2138 Fit       0.002266
 2139 Fit       0.003305
 2140 Fit       0.000033
 2141 Fit      -0.001457
 2142 Fit       0.000417
 2143 Fit       0.001204
 2144 Fit       0.000866
 2145 Fit       0.001550
 2146 Fit       0.001065
 2147 Fit       0.001073
 2148 Fit       0.001190
 2149 Fit       0.000333
 2150 Fit      -0.000006
 2151 Fit       0.002943
 2152 Fit       0.002812
 2153 Fit      -0.000321
 2154 Fit       0.002567
 2155 Fit       0.000552
 2156 Fit       0.000677
 2157 Fit      -0.000388
 2158 Fit       0.002009
 2159 Fit       0.001253
 2160 Fit       0.000444
 2161 Fit       0.002486
 2162 Fit       0.001829
 2163 Fit       0.001283
 2164 Fit       0.000705
 2165 Fit       0.000567
 2166 Fit       0.001259
 2167 Fit       0.000672
 2168 Fit       0.000149
 2169 Fit       0.000017
 2170 Fit      -0.000339
 2171 Fit      -0.001962
 2172 Fit      -0.000854
 2173 Fit      -0.001988
 2174 Fit      -0.001123
 2175 Fit      -0.002235
 2176 Fit      -0.001714
 2177 Fit      -0.001631
 2178 Fit      -0.001942
 2179 Fit      -0.002309
 2180 Fit      -0.001921
 2181 Fit      -0.001813
 2182 Fit       0.000081
 2183 Fit       0.001385
 2184 Fit       0.001668
 2185 Fit      -0.001824
 2186 Fit      -0.000262
 2187 Fit       0.000850
 2188 Fit       0.001087
 2189 Fit       0.000420
 2190 Fit      -0.001005
 2191 Fit      -0.000959
 2192 Fit       0.000019
 2193 Fit      -0.000036
 2194 Fit      -0.001001
 2195 Fit      -0.001670
 2196 Fit      -0.001439
 2197 Fit       0.000401
 2198 Fit       0.001469
 2199 Fit       0.002285
 2200 Fit       0.000166
 2201 Fit       0.001292
 2202 Fit       0.001799
 2203 Fit       0.001320
 2204 Fit      -0.000127
 2205 Fit      -0.000443
 2206 Fit       0.000739
 2207 Fit       0.001017
 2208 Fit       0.000131
 2209 Fit      -0.001520
 2210 Fit      -0.000580
 2211 Fit      -0.000442
 2212 Fit       0.002731
 2213 Fit       0.003199
 2214 Fit       0.002534
 2215 Fit       0.001252
 2216 Fit       0.000676
 2217 Fit       0.002022
 2218 Fit       0.002497
 2219 Fit       0.001701
 2220 Fit       0.000097
 2221 Fit       0.000359
 2222 Fit       0.001064
 2223 Fit       0.001047
 2224 Fit      -0.000592
 2225 Fit      -0.000661
 2226 Fit      -0.000408
 2227 Fit      -0.002340
 2228 Fit      -0.002444
 2229 Fit      -0.001968
 2230 Fit      -0.001271
 2231 Fit      -0.001440
 2232 Fit      -0.001766
 2233 Fit      -0.002039
 2234 Fit      -0.002581
 2235 Fit      -0.002787
 2236 Fit      -0.000956
 2237 Fit      -0.002592
 2238 Fit      -0.002212
 2239 Fit      -0.002143
 2240 Fit      -0.001552
 2241 Fit      -0.000533
 2242 Fit      -0.000315
 2243 Fit      -0.000684
 2244 Fit      -0.002270
 2245 Fit      -0.000750
 2246 Fit       0.000378
 2247 Fit       0.000900
 2248 Fit       0.001091
 2249 Fit      -0.002081
 2250 Fit      -0.000532
 2251 Fit       0.000774
 2252 Fit       0.001566
 2253 Fit      -0.000993
 2254 Fit       0.000859
 2255 Fit      -0.001407
 2256 Fit      -0.001295
 2257 Fit      -0.002085
 2258 Fit      -0.000708
 2259 Fit       0.000023
 2260 Fit       0.000322
 2261 Fit      -0.000129
 2262 Fit      -0.001307
 2263 Fit       0.000507
 2264 Fit       0.001195
 2265 Fit       0.001403
 2266 Fit       0.000844
 2267 Fit      -0.000455
 2268 Fit       0.002082
 2269 Fit       0.001809
 2270 Fit       0.000532
 2271 Fit      -0.001492
 2272 Fit       0.001208
 2273 Fit       0.000825
 2274 Fit       0.000076
 2275 Fit      -0.000184
 2276 Fit       0.000963
 2277 Fit       0.000227
 2278 Fit      -0.000291
 2279 Fit      -0.001055
 2280 Fit      -0.001759
 2281 Fit      -0.000703
 2282 Fit      -0.000783
 -----------------------------------------------------------------
 Leave Link  602 at Wed Apr 26 14:51:18 2017, MaxMem=    33554432 cpu:         3.7
 (Enter /home/michal/g09/l9999.exe)

 Test job not archived.
 1\1\GINC-LINUX\SP\RHF\6-31G(d)\C27H46O3\MICHAL\26-Apr-2017\0\\#P HF/6-
 31G* SCF(Conver=6) NoSymm Test Pop=mk IOp(6/33=2) GFInput GFPrint\\MEP
  - Input generated by R.E.D.-III.x MOLECULE\\0,1\C,0,7.5083507,2.15052
 634,-0.05269225\H,0,7.40537025,2.06951429,1.03637847\C,0,6.75577434,0.
 98338841,-0.71133113\H,0,7.14567087,0.03328096,-0.33306474\H,0,6.97817
 894,1.008175,-1.78978498\C,0,5.25656963,1.06168523,-0.48879482\C,0,4.5
 748094,2.38705302,-0.85129212\C,0,5.41008865,3.54842476,-0.22902696\H,
 0,5.26119596,3.53225694,0.85922438\H,0,5.01620585,4.50761018,-0.582083
 42\C,0,6.918919,3.48409028,-0.5120812\H,0,7.11499357,3.61190927,-1.586
 94473\H,0,7.43196417,4.30598789,0.\C,0,4.59707032,0.,0.\H,0,5.15316086
 ,-0.90558869,0.23539633\C,0,3.11890687,-0.04357417,0.26013577\H,0,2.70
 710037,-1.00870479,-0.06098917\C,0,2.36045556,1.10214025,-0.43415172\H
 ,0,2.34434739,0.82861915,-1.49864531\C,0,3.12204597,2.4424698,-0.25981
 894\H,0,3.24083467,2.57835288,0.82518253\C,0,2.29680317,3.64509111,-0.
 77617507\H,0,2.28412137,3.64685025,-1.87086713\H,0,2.78860464,4.578977
 54,-0.48029511\C,0,0.83783958,3.68081778,-0.27669385\H,0,0.82378733,3.
 83659148,0.81143114\H,0,0.34455163,4.55048416,-0.72194694\C,0,0.091111
 76,2.368686,-0.5952339\C,0,0.91458898,1.2297747,0.06930091\H,0,0.98165
 5,1.50458272,1.13095322\C,0,0.,0.,0.\H,0,0.24915112,-0.73924513,0.7663
 1605\H,0,0.0893972,-0.50085403,-0.97254474\C,0,-1.42198512,0.59473534,
 0.19125776\H,0,-2.10340912,0.23793798,-0.59038315\H,0,-1.8555987,0.280
 81572,1.14515538\C,0,-1.28706734,2.15496088,0.12433603\H,0,-1.15337851
 ,2.52777673,1.15225735\C,0,-0.06782135,2.1801051,-2.12117118\H,0,0.893
 40648,2.10573729,-2.63637394\H,0,-0.63378744,1.27556189,-2.36355013\H,
 0,-0.60386891,3.02693516,-2.56249668\C,0,-2.56278997,2.83779829,-0.435
 45617\H,0,-2.74187036,2.42867181,-1.43977477\C,0,-2.43143585,4.3650826
 1,-0.56212799\H,0,-2.18168395,4.82039997,0.40468674\H,0,-3.3664815,4.8
 1664279,-0.90737039\H,0,-1.65751573,4.65386518,-1.27651443\C,0,4.56793
 444,2.52113685,-2.39893438\H,0,4.2765697,3.52879016,-2.70975995\H,0,5.
 55459677,2.32645561,-2.82596758\H,0,3.8743148,1.80810302,-2.8552832\O,
 0,2.83629492,0.0710421,1.6821968\O,0,3.32642784,-1.13757539,2.3277712\
 H,0,4.09764815,-0.7910841,2.80640137\O,0,8.9179954,2.0658377,-0.276908
 43\H,0,9.08731124,2.15657855,-1.22520154\C,0,-3.78105689,2.47166004,0.
 45110973\H,0,-3.83788956,1.38148283,0.55027357\H,0,-3.59347493,2.85842
 711,1.46396527\C,0,-5.16463451,2.96995521,-0.0112718\H,0,-5.88918703,2
 .67192135,0.75658987\H,0,-5.19114986,4.06746935,-0.03284951\C,0,-5.614
 80322,2.42765083,-1.37629338\H,0,-5.581728,1.32699894,-1.35945974\H,0,
 -4.89482095,2.74007577,-2.14411472\C,0,-7.02047932,2.87594789,-1.82894
 729\H,0,-7.05308123,3.9751219,-1.7712924\C,0,-7.26793342,2.47733746,-3
 .29274884\H,0,-7.23911378,1.38638669,-3.41038282\H,0,-8.24892193,2.821
 95299,-3.63936424\H,0,-6.50797273,2.90375587,-3.95758935\C,0,-8.137493
 48,2.3236149,-0.92836961\H,0,-8.13486951,1.22578045,-0.93681519\H,0,-9
 .1216943,2.65508408,-1.27857702\H,0,-8.03198249,2.64995365,0.11095538\
 \Version=EM64L-G09RevD.01\HF=-1273.6831422\RMSD=5.553e-07\Dipole=0.137
 231,0.5408016,-0.827916\Quadrupole=-5.9268294,2.8498694,3.07696,1.7784
 094,-8.0272395,-1.8912184\PG=C01 [X(C27H46O3)]\\@


 THAT'S WHAT MAKES US A GREAT COUNTRY.
 THE LITTLE THINGS ARE SERIOUS AND THE BIG ONES ARE NOT.
           WILL ROGERS
 Job cpu time:       0 days  0 hours 12 minutes  4.0 seconds.
 File lengths (MBytes):  RWF=    159 Int=      0 D2E=      0 Chk=     11 Scr=      1
 Normal termination of Gaussian 09 at Wed Apr 26 14:51:19 2017.
