 Entering Gaussian System, Link 0=/home/michal/g09/g09
 Input=JOB2-gau_m1-4-1.com
 Output=JOB2-gau_m1-4-1.log
 Initial command:
 /home/michal/g09/l1.exe "/home/michal/gauss_scratch/Gau-6131.inp" -scrdir="/home/michal/gauss_scratch/"
 Entering Link 1 = /home/michal/g09/l1.exe PID=      6132.
  
 Copyright (c) 1988,1990,1992,1993,1995,1998,2003,2009,2013,
            Gaussian, Inc.  All Rights Reserved.
  
 This is part of the Gaussian(R) 09 program.  It is based on
 the Gaussian(R) 03 system (copyright 2003, Gaussian, Inc.),
 the Gaussian(R) 98 system (copyright 1998, Gaussian, Inc.),
 the Gaussian(R) 94 system (copyright 1995, Gaussian, Inc.),
 the Gaussian 92(TM) system (copyright 1992, Gaussian, Inc.),
 the Gaussian 90(TM) system (copyright 1990, Gaussian, Inc.),
 the Gaussian 88(TM) system (copyright 1988, Gaussian, Inc.),
 the Gaussian 86(TM) system (copyright 1986, Carnegie Mellon
 University), and the Gaussian 82(TM) system (copyright 1983,
 Carnegie Mellon University). Gaussian is a federally registered
 trademark of Gaussian, Inc.
  
 This software contains proprietary and confidential information,
 including trade secrets, belonging to Gaussian, Inc.
  
 This software is provided under written license and may be
 used, copied, transmitted, or stored only in accord with that
 written license.
  
 The following legend is applicable only to US Government
 contracts under FAR:
  
                    RESTRICTED RIGHTS LEGEND
  
 Use, reproduction and disclosure by the US Government is
 subject to restrictions as set forth in subparagraphs (a)
 and (c) of the Commercial Computer Software - Restricted
 Rights clause in FAR 52.227-19.
  
 Gaussian, Inc.
 340 Quinnipiac St., Bldg. 40, Wallingford CT 06492
  
  
 ---------------------------------------------------------------
 Warning -- This program may not be used in any manner that
 competes with the business of Gaussian, Inc. or will provide
 assistance to any competitor of Gaussian, Inc.  The licensee
 of this program is prohibited from giving any competitor of
 Gaussian, Inc. access to this program.  By using this program,
 the user acknowledges that Gaussian, Inc. is engaged in the
 business of creating and licensing software in the field of
 computational chemistry and represents and warrants to the
 licensee that it is not a competitor of Gaussian, Inc. and that
 it will not use this program in any manner prohibited above.
 ---------------------------------------------------------------
  

 Cite this work as:
 Gaussian 09, Revision D.01,
 M. J. Frisch, G. W. Trucks, H. B. Schlegel, G. E. Scuseria, 
 M. A. Robb, J. R. Cheeseman, G. Scalmani, V. Barone, B. Mennucci, 
 G. A. Petersson, H. Nakatsuji, M. Caricato, X. Li, H. P. Hratchian, 
 A. F. Izmaylov, J. Bloino, G. Zheng, J. L. Sonnenberg, M. Hada, 
 M. Ehara, K. Toyota, R. Fukuda, J. Hasegawa, M. Ishida, T. Nakajima, 
 Y. Honda, O. Kitao, H. Nakai, T. Vreven, J. A. Montgomery, Jr., 
 J. E. Peralta, F. Ogliaro, M. Bearpark, J. J. Heyd, E. Brothers, 
 K. N. Kudin, V. N. Staroverov, T. Keith, R. Kobayashi, J. Normand, 
 K. Raghavachari, A. Rendell, J. C. Burant, S. S. Iyengar, J. Tomasi, 
 M. Cossi, N. Rega, J. M. Millam, M. Klene, J. E. Knox, J. B. Cross, 
 V. Bakken, C. Adamo, J. Jaramillo, R. Gomperts, R. E. Stratmann, 
 O. Yazyev, A. J. Austin, R. Cammi, C. Pomelli, J. W. Ochterski, 
 R. L. Martin, K. Morokuma, V. G. Zakrzewski, G. A. Voth, 
 P. Salvador, J. J. Dannenberg, S. Dapprich, A. D. Daniels, 
 O. Farkas, J. B. Foresman, J. V. Ortiz, J. Cioslowski, 
 and D. J. Fox, Gaussian, Inc., Wallingford CT, 2013.
 
 ******************************************
 Gaussian 09:  EM64L-G09RevD.01 24-Apr-2013
                26-Apr-2017 
 ******************************************
 %Mem=256MB
 %NProc=12
 Will use up to   12 processors via shared memory.
 ----------------------------------------------------------------------
 #P HF/6-31G* SCF(Conver=6) NoSymm Test Pop=mk IOp(6/33=2) GFInput GFPr
 int
 ----------------------------------------------------------------------
 1/38=1/1;
 2/12=2,15=1,17=6,18=5,40=1/2;
 3/5=1,6=6,7=1,11=9,16=1,24=110,25=1,30=1/1,2,3;
 4//1;
 5/5=2,6=6,38=5/2;
 6/7=2,8=2,9=2,10=2,15=8,20=1,28=1,33=2/1,2;
 99/5=1,9=1/99;
 Leave Link    1 at Wed Apr 26 13:28:24 2017, MaxMem=    33554432 cpu:         0.7
 (Enter /home/michal/g09/l101.exe)
 ----------------------------------------------
 MEP - Input generated by R.E.D.-III.x MOLECULE
 ----------------------------------------------
 Symbolic Z-matrix:
 Charge =  0 Multiplicity = 1
 C                     1.75839  -1.24901   0.05034 
 H                     1.88301  -1.2052   -1.0386 
 C                     3.14684  -1.26353   0.70928 
 H                     3.72608  -2.11094   0.32956 
 H                     3.00364  -1.43757   1.78739 
 C                     3.90576   0.03215   0.48901 
 C                     3.17391   1.32972   0.85404 
 C                     1.74427   1.27198   0.23218 
 H                     1.83929   1.39023  -0.85581 
 H                     1.15963   2.12738   0.58756 
 C                     0.96851  -0.02445   0.5122 
 H                     0.75372  -0.12029   1.58684 
 H                     0.        0.        0. 
 C                     5.15508   0.        0. 
 H                     5.60563  -0.96204  -0.23707 
 C                     6.0041    1.21097  -0.25898 
 H                     7.03676   1.02393   0.06172 
 C                     5.46454   2.47401   0.43666 
 H                     5.70334   2.33655   1.50075 
 C                     3.92603   2.57486   0.26454 
 H                     3.74586   2.55294  -0.8203 
 C                     3.37577   3.92393   0.785 
 H                     3.38472   3.93345   1.8797 
 H                     2.32435   4.02638   0.49253 
 C                     4.14582   5.16336   0.28513 
 H                     4.02002   5.26198  -0.80251 
 H                     3.69187   6.05291   0.73297 
 C                     5.65345   5.0659    0.59892 
 C                     6.15151   3.75252  -0.06725 
 H                     5.8836    3.84786  -1.12851 
 C                     7.68151   3.8419    0. 
 H                     8.16193   3.22549  -0.76486 
 H                     8.05204   3.49544   0.9733 
 C                     7.96415   5.35642  -0.1969 
 H                     8.64334   5.73239   0.57779 
 H                     8.4568    5.54208  -1.15567 
 C                     6.58648   6.10114  -0.12232 
 H                     6.19729   6.1967   -1.14837 
 C                     5.90285   5.09339   2.12432 
 H                     5.44018   4.24737   2.63917 
 H                     6.97031   5.07101   2.36357 
 H                     5.48935   6.00474   2.56877 
 C                     6.71786   7.54047   0.44066 
 H                     7.17122   7.46946   1.44133 
 C                     5.36677   8.2639    0.58136 
 H                     4.8316    8.28328  -0.37644 
 H                     5.50379   9.30002   0.90474 
 H                     4.71617   7.78544   1.31677 
 C                     3.06637   1.40632   2.40189 
 H                     2.38505   2.20312   2.71462 
 H                     2.68681   0.47428   2.82731 
 H                     4.04358   1.5929    2.85804 
 O                     6.06367   1.51116  -1.68081 
 O                     6.80547   0.43864  -2.32684 
 H                     6.09331  -0.01373  -2.80861 
 O                     1.05394  -2.47346   0.27176 
 H                     0.88445  -2.56678   1.21977 
 C                     7.68394   8.37246  -0.43941 
 H                     8.58828   7.78657  -0.6388 
 H                     7.21075   8.54202  -1.41896 
 C                     8.1239    9.72172   0.15286 
 H                     7.25519   10.37481   0.2932 
 H                     8.5459    9.54748   1.1521 
 C                     9.159     10.43289  -0.73422 
 H                     8.72902   10.56449  -1.7378 
 H                     10.02697   9.77006  -0.86236 
 C                     9.66723   11.80761  -0.2407 
 H                     10.39386   12.14768  -0.99347 
 C                     8.55313   12.86592  -0.18012 
 H                     7.81495   12.63272   0.59593 
 H                     8.96677   13.85447   0.04997 
 H                     8.02139   12.94086  -1.13601 
 C                     10.4156   11.71638   1.09955 
 H                     9.74291   11.44236   1.92047 
 H                     10.87089   12.67923   1.35823 
 H                     11.21632   10.96846   1.0595 
 
 NAtoms=     76 NQM=       76 NQMF=       0 NMMI=      0 NMMIF=      0
                NMic=       0 NMicF=      0.
                    Isotopes and Nuclear Properties:
 (Nuclear quadrupole moments (NQMom) in fm**2, nuclear magnetic moments (NMagM)
  in nuclear magnetons)

  Atom         1           2           3           4           5           6           7           8           9          10
 IAtWgt=          12           1          12           1           1          12          12          12           1           1
 AtmWgt=  12.0000000   1.0078250  12.0000000   1.0078250   1.0078250  12.0000000  12.0000000  12.0000000   1.0078250   1.0078250
 NucSpn=           0           1           0           1           1           0           0           0           1           1
 AtZEff=   0.0000000   0.0000000   0.0000000   0.0000000   0.0000000   0.0000000   0.0000000   0.0000000   0.0000000   0.0000000
 NQMom=    0.0000000   0.0000000   0.0000000   0.0000000   0.0000000   0.0000000   0.0000000   0.0000000   0.0000000   0.0000000
 NMagM=    0.0000000   2.7928460   0.0000000   2.7928460   2.7928460   0.0000000   0.0000000   0.0000000   2.7928460   2.7928460
 AtZNuc=   6.0000000   1.0000000   6.0000000   1.0000000   1.0000000   6.0000000   6.0000000   6.0000000   1.0000000   1.0000000

  Atom        11          12          13          14          15          16          17          18          19          20
 IAtWgt=          12           1           1          12           1          12           1          12           1          12
 AtmWgt=  12.0000000   1.0078250   1.0078250  12.0000000   1.0078250  12.0000000   1.0078250  12.0000000   1.0078250  12.0000000
 NucSpn=           0           1           1           0           1           0           1           0           1           0
 AtZEff=   0.0000000   0.0000000   0.0000000   0.0000000   0.0000000   0.0000000   0.0000000   0.0000000   0.0000000   0.0000000
 NQMom=    0.0000000   0.0000000   0.0000000   0.0000000   0.0000000   0.0000000   0.0000000   0.0000000   0.0000000   0.0000000
 NMagM=    0.0000000   2.7928460   2.7928460   0.0000000   2.7928460   0.0000000   2.7928460   0.0000000   2.7928460   0.0000000
 AtZNuc=   6.0000000   1.0000000   1.0000000   6.0000000   1.0000000   6.0000000   1.0000000   6.0000000   1.0000000   6.0000000

  Atom        21          22          23          24          25          26          27          28          29          30
 IAtWgt=           1          12           1           1          12           1           1          12          12           1
 AtmWgt=   1.0078250  12.0000000   1.0078250   1.0078250  12.0000000   1.0078250   1.0078250  12.0000000  12.0000000   1.0078250
 NucSpn=           1           0           1           1           0           1           1           0           0           1
 AtZEff=   0.0000000   0.0000000   0.0000000   0.0000000   0.0000000   0.0000000   0.0000000   0.0000000   0.0000000   0.0000000
 NQMom=    0.0000000   0.0000000   0.0000000   0.0000000   0.0000000   0.0000000   0.0000000   0.0000000   0.0000000   0.0000000
 NMagM=    2.7928460   0.0000000   2.7928460   2.7928460   0.0000000   2.7928460   2.7928460   0.0000000   0.0000000   2.7928460
 AtZNuc=   1.0000000   6.0000000   1.0000000   1.0000000   6.0000000   1.0000000   1.0000000   6.0000000   6.0000000   1.0000000

  Atom        31          32          33          34          35          36          37          38          39          40
 IAtWgt=          12           1           1          12           1           1          12           1          12           1
 AtmWgt=  12.0000000   1.0078250   1.0078250  12.0000000   1.0078250   1.0078250  12.0000000   1.0078250  12.0000000   1.0078250
 NucSpn=           0           1           1           0           1           1           0           1           0           1
 AtZEff=   0.0000000   0.0000000   0.0000000   0.0000000   0.0000000   0.0000000   0.0000000   0.0000000   0.0000000   0.0000000
 NQMom=    0.0000000   0.0000000   0.0000000   0.0000000   0.0000000   0.0000000   0.0000000   0.0000000   0.0000000   0.0000000
 NMagM=    0.0000000   2.7928460   2.7928460   0.0000000   2.7928460   2.7928460   0.0000000   2.7928460   0.0000000   2.7928460
 AtZNuc=   6.0000000   1.0000000   1.0000000   6.0000000   1.0000000   1.0000000   6.0000000   1.0000000   6.0000000   1.0000000

  Atom        41          42          43          44          45          46          47          48          49          50
 IAtWgt=           1           1          12           1          12           1           1           1          12           1
 AtmWgt=   1.0078250   1.0078250  12.0000000   1.0078250  12.0000000   1.0078250   1.0078250   1.0078250  12.0000000   1.0078250
 NucSpn=           1           1           0           1           0           1           1           1           0           1
 AtZEff=   0.0000000   0.0000000   0.0000000   0.0000000   0.0000000   0.0000000   0.0000000   0.0000000   0.0000000   0.0000000
 NQMom=    0.0000000   0.0000000   0.0000000   0.0000000   0.0000000   0.0000000   0.0000000   0.0000000   0.0000000   0.0000000
 NMagM=    2.7928460   2.7928460   0.0000000   2.7928460   0.0000000   2.7928460   2.7928460   2.7928460   0.0000000   2.7928460
 AtZNuc=   1.0000000   1.0000000   6.0000000   1.0000000   6.0000000   1.0000000   1.0000000   1.0000000   6.0000000   1.0000000

  Atom        51          52          53          54          55          56          57          58          59          60
 IAtWgt=           1           1          16          16           1          16           1          12           1           1
 AtmWgt=   1.0078250   1.0078250  15.9949146  15.9949146   1.0078250  15.9949146   1.0078250  12.0000000   1.0078250   1.0078250
 NucSpn=           1           1           0           0           1           0           1           0           1           1
 AtZEff=   0.0000000   0.0000000   0.0000000   0.0000000   0.0000000   0.0000000   0.0000000   0.0000000   0.0000000   0.0000000
 NQMom=    0.0000000   0.0000000   0.0000000   0.0000000   0.0000000   0.0000000   0.0000000   0.0000000   0.0000000   0.0000000
 NMagM=    2.7928460   2.7928460   0.0000000   0.0000000   2.7928460   0.0000000   2.7928460   0.0000000   2.7928460   2.7928460
 AtZNuc=   1.0000000   1.0000000   8.0000000   8.0000000   1.0000000   8.0000000   1.0000000   6.0000000   1.0000000   1.0000000

  Atom        61          62          63          64          65          66          67          68          69          70
 IAtWgt=          12           1           1          12           1           1          12           1          12           1
 AtmWgt=  12.0000000   1.0078250   1.0078250  12.0000000   1.0078250   1.0078250  12.0000000   1.0078250  12.0000000   1.0078250
 NucSpn=           0           1           1           0           1           1           0           1           0           1
 AtZEff=   0.0000000   0.0000000   0.0000000   0.0000000   0.0000000   0.0000000   0.0000000   0.0000000   0.0000000   0.0000000
 NQMom=    0.0000000   0.0000000   0.0000000   0.0000000   0.0000000   0.0000000   0.0000000   0.0000000   0.0000000   0.0000000
 NMagM=    0.0000000   2.7928460   2.7928460   0.0000000   2.7928460   2.7928460   0.0000000   2.7928460   0.0000000   2.7928460
 AtZNuc=   6.0000000   1.0000000   1.0000000   6.0000000   1.0000000   1.0000000   6.0000000   1.0000000   6.0000000   1.0000000

  Atom        71          72          73          74          75          76
 IAtWgt=           1           1          12           1           1           1
 AtmWgt=   1.0078250   1.0078250  12.0000000   1.0078250   1.0078250   1.0078250
 NucSpn=           1           1           0           1           1           1
 AtZEff=   0.0000000   0.0000000   0.0000000   0.0000000   0.0000000   0.0000000
 NQMom=    0.0000000   0.0000000   0.0000000   0.0000000   0.0000000   0.0000000
 NMagM=    2.7928460   2.7928460   0.0000000   2.7928460   2.7928460   2.7928460
 AtZNuc=   1.0000000   1.0000000   6.0000000   1.0000000   1.0000000   1.0000000
 Leave Link  101 at Wed Apr 26 13:28:24 2017, MaxMem=    33554432 cpu:         1.0
 (Enter /home/michal/g09/l202.exe)
 Symmetry turned off by external request.
 Stoichiometry    C27H46O3
 Framework group  C1[X(C27H46O3)]
 Deg. of freedom   222
 Full point group                 C1      NOp   1
                          Input orientation:                          
 ---------------------------------------------------------------------
 Center     Atomic      Atomic             Coordinates (Angstroms)
 Number     Number       Type             X           Y           Z
 ---------------------------------------------------------------------
      1          6           0        1.758389   -1.249011    0.050344
      2          1           0        1.883013   -1.205201   -1.038598
      3          6           0        3.146842   -1.263527    0.709284
      4          1           0        3.726075   -2.110936    0.329565
      5          1           0        3.003645   -1.437574    1.787393
      6          6           0        3.905756    0.032146    0.489014
      7          6           0        3.173906    1.329720    0.854036
      8          6           0        1.744266    1.271975    0.232180
      9          1           0        1.839286    1.390232   -0.855808
     10          1           0        1.159632    2.127382    0.587560
     11          6           0        0.968508   -0.024448    0.512195
     12          1           0        0.753722   -0.120288    1.586836
     13          1           0        0.000000    0.000000    0.000000
     14          6           0        5.155080    0.000000    0.000000
     15          1           0        5.605629   -0.962045   -0.237070
     16          6           0        6.004102    1.210969   -0.258982
     17          1           0        7.036764    1.023932    0.061724
     18          6           0        5.464544    2.474014    0.436658
     19          1           0        5.703343    2.336554    1.500752
     20          6           0        3.926033    2.574865    0.264540
     21          1           0        3.745857    2.552938   -0.820298
     22          6           0        3.375770    3.923934    0.785001
     23          1           0        3.384719    3.933451    1.879695
     24          1           0        2.324346    4.026380    0.492534
     25          6           0        4.145821    5.163361    0.285132
     26          1           0        4.020021    5.261982   -0.802515
     27          1           0        3.691868    6.052907    0.732968
     28          6           0        5.653448    5.065896    0.598919
     29          6           0        6.151511    3.752517   -0.067246
     30          1           0        5.883599    3.847860   -1.128515
     31          6           0        7.681511    3.841901    0.000000
     32          1           0        8.161928    3.225491   -0.764865
     33          1           0        8.052039    3.495435    0.973298
     34          6           0        7.964150    5.356419   -0.196903
     35          1           0        8.643344    5.732391    0.577789
     36          1           0        8.456797    5.542081   -1.155672
     37          6           0        6.586482    6.101140   -0.122318
     38          1           0        6.197289    6.196704   -1.148366
     39          6           0        5.902846    5.093387    2.124315
     40          1           0        5.440180    4.247369    2.639174
     41          1           0        6.970310    5.071014    2.363569
     42          1           0        5.489348    6.004736    2.568766
     43          6           0        6.717857    7.540472    0.440656
     44          1           0        7.171219    7.469462    1.441333
     45          6           0        5.366768    8.263896    0.581364
     46          1           0        4.831597    8.283281   -0.376437
     47          1           0        5.503794    9.300017    0.904742
     48          1           0        4.716174    7.785437    1.316773
     49          6           0        3.066374    1.406318    2.401888
     50          1           0        2.385045    2.203120    2.714618
     51          1           0        2.686811    0.474277    2.827311
     52          1           0        4.043579    1.592901    2.858036
     53          8           0        6.063668    1.511163   -1.680811
     54          8           0        6.805471    0.438639   -2.326843
     55          1           0        6.093314   -0.013726   -2.808612
     56          8           0        1.053937   -2.473465    0.271759
     57          1           0        0.884454   -2.566779    1.219772
     58          6           0        7.683942    8.372459   -0.439407
     59          1           0        8.588277    7.786575   -0.638800
     60          1           0        7.210751    8.542024   -1.418956
     61          6           0        8.123901    9.721717    0.152855
     62          1           0        7.255191   10.374813    0.293197
     63          1           0        8.545900    9.547480    1.152102
     64          6           0        9.158997   10.432891   -0.734224
     65          1           0        8.729018   10.564491   -1.737797
     66          1           0       10.026975    9.770063   -0.862361
     67          6           0        9.667228   11.807612   -0.240705
     68          1           0       10.393856   12.147678   -0.993470
     69          6           0        8.553132   12.865918   -0.180117
     70          1           0        7.814953   12.632722    0.595932
     71          1           0        8.966770   13.854473    0.049974
     72          1           0        8.021386   12.940855   -1.136012
     73          6           0       10.415604   11.716380    1.099548
     74          1           0        9.742906   11.442358    1.920467
     75          1           0       10.870888   12.679230    1.358225
     76          1           0       11.216316   10.968463    1.059503
 ---------------------------------------------------------------------
 Rotational constants (GHZ):      0.4235038      0.0512032      0.0480225
 Leave Link  202 at Wed Apr 26 13:28:24 2017, MaxMem=    33554432 cpu:         0.1
 (Enter /home/michal/g09/l301.exe)
 Standard basis: 6-31G(d) (6D, 7F)
 Ernie: Thresh=  0.10000D-02 Tol=  0.10000D-05 Strict=F.
 AO basis set in the form of general basis input (Overlap normalization):
      1 0
 S   6 1.00       0.000000000000
      0.3047524880D+04  0.1834737132D-02
      0.4573695180D+03  0.1403732281D-01
      0.1039486850D+03  0.6884262226D-01
      0.2921015530D+02  0.2321844432D+00
      0.9286662960D+01  0.4679413484D+00
      0.3163926960D+01  0.3623119853D+00
 SP   3 1.00       0.000000000000
      0.7868272350D+01 -0.1193324198D+00  0.6899906659D-01
      0.1881288540D+01 -0.1608541517D+00  0.3164239610D+00
      0.5442492580D+00  0.1143456438D+01  0.7443082909D+00
 SP   1 1.00       0.000000000000
      0.1687144782D+00  0.1000000000D+01  0.1000000000D+01
 D   1 1.00       0.000000000000
      0.8000000000D+00  0.1000000000D+01
 ****
      2 0
 S   3 1.00       0.000000000000
      0.1873113696D+02  0.3349460434D-01
      0.2825394365D+01  0.2347269535D+00
      0.6401216923D+00  0.8137573261D+00
 S   1 1.00       0.000000000000
      0.1612777588D+00  0.1000000000D+01
 ****
      3 0
 S   6 1.00       0.000000000000
      0.3047524880D+04  0.1834737132D-02
      0.4573695180D+03  0.1403732281D-01
      0.1039486850D+03  0.6884262226D-01
      0.2921015530D+02  0.2321844432D+00
      0.9286662960D+01  0.4679413484D+00
      0.3163926960D+01  0.3623119853D+00
 SP   3 1.00       0.000000000000
      0.7868272350D+01 -0.1193324198D+00  0.6899906659D-01
      0.1881288540D+01 -0.1608541517D+00  0.3164239610D+00
      0.5442492580D+00  0.1143456438D+01  0.7443082909D+00
 SP   1 1.00       0.000000000000
      0.1687144782D+00  0.1000000000D+01  0.1000000000D+01
 D   1 1.00       0.000000000000
      0.8000000000D+00  0.1000000000D+01
 ****
      4 0
 S   3 1.00       0.000000000000
      0.1873113696D+02  0.3349460434D-01
      0.2825394365D+01  0.2347269535D+00
      0.6401216923D+00  0.8137573261D+00
 S   1 1.00       0.000000000000
      0.1612777588D+00  0.1000000000D+01
 ****
      5 0
 S   3 1.00       0.000000000000
      0.1873113696D+02  0.3349460434D-01
      0.2825394365D+01  0.2347269535D+00
      0.6401216923D+00  0.8137573261D+00
 S   1 1.00       0.000000000000
      0.1612777588D+00  0.1000000000D+01
 ****
      6 0
 S   6 1.00       0.000000000000
      0.3047524880D+04  0.1834737132D-02
      0.4573695180D+03  0.1403732281D-01
      0.1039486850D+03  0.6884262226D-01
      0.2921015530D+02  0.2321844432D+00
      0.9286662960D+01  0.4679413484D+00
      0.3163926960D+01  0.3623119853D+00
 SP   3 1.00       0.000000000000
      0.7868272350D+01 -0.1193324198D+00  0.6899906659D-01
      0.1881288540D+01 -0.1608541517D+00  0.3164239610D+00
      0.5442492580D+00  0.1143456438D+01  0.7443082909D+00
 SP   1 1.00       0.000000000000
      0.1687144782D+00  0.1000000000D+01  0.1000000000D+01
 D   1 1.00       0.000000000000
      0.8000000000D+00  0.1000000000D+01
 ****
      7 0
 S   6 1.00       0.000000000000
      0.3047524880D+04  0.1834737132D-02
      0.4573695180D+03  0.1403732281D-01
      0.1039486850D+03  0.6884262226D-01
      0.2921015530D+02  0.2321844432D+00
      0.9286662960D+01  0.4679413484D+00
      0.3163926960D+01  0.3623119853D+00
 SP   3 1.00       0.000000000000
      0.7868272350D+01 -0.1193324198D+00  0.6899906659D-01
      0.1881288540D+01 -0.1608541517D+00  0.3164239610D+00
      0.5442492580D+00  0.1143456438D+01  0.7443082909D+00
 SP   1 1.00       0.000000000000
      0.1687144782D+00  0.1000000000D+01  0.1000000000D+01
 D   1 1.00       0.000000000000
      0.8000000000D+00  0.1000000000D+01
 ****
      8 0
 S   6 1.00       0.000000000000
      0.3047524880D+04  0.1834737132D-02
      0.4573695180D+03  0.1403732281D-01
      0.1039486850D+03  0.6884262226D-01
      0.2921015530D+02  0.2321844432D+00
      0.9286662960D+01  0.4679413484D+00
      0.3163926960D+01  0.3623119853D+00
 SP   3 1.00       0.000000000000
      0.7868272350D+01 -0.1193324198D+00  0.6899906659D-01
      0.1881288540D+01 -0.1608541517D+00  0.3164239610D+00
      0.5442492580D+00  0.1143456438D+01  0.7443082909D+00
 SP   1 1.00       0.000000000000
      0.1687144782D+00  0.1000000000D+01  0.1000000000D+01
 D   1 1.00       0.000000000000
      0.8000000000D+00  0.1000000000D+01
 ****
      9 0
 S   3 1.00       0.000000000000
      0.1873113696D+02  0.3349460434D-01
      0.2825394365D+01  0.2347269535D+00
      0.6401216923D+00  0.8137573261D+00
 S   1 1.00       0.000000000000
      0.1612777588D+00  0.1000000000D+01
 ****
     10 0
 S   3 1.00       0.000000000000
      0.1873113696D+02  0.3349460434D-01
      0.2825394365D+01  0.2347269535D+00
      0.6401216923D+00  0.8137573261D+00
 S   1 1.00       0.000000000000
      0.1612777588D+00  0.1000000000D+01
 ****
     11 0
 S   6 1.00       0.000000000000
      0.3047524880D+04  0.1834737132D-02
      0.4573695180D+03  0.1403732281D-01
      0.1039486850D+03  0.6884262226D-01
      0.2921015530D+02  0.2321844432D+00
      0.9286662960D+01  0.4679413484D+00
      0.3163926960D+01  0.3623119853D+00
 SP   3 1.00       0.000000000000
      0.7868272350D+01 -0.1193324198D+00  0.6899906659D-01
      0.1881288540D+01 -0.1608541517D+00  0.3164239610D+00
      0.5442492580D+00  0.1143456438D+01  0.7443082909D+00
 SP   1 1.00       0.000000000000
      0.1687144782D+00  0.1000000000D+01  0.1000000000D+01
 D   1 1.00       0.000000000000
      0.8000000000D+00  0.1000000000D+01
 ****
     12 0
 S   3 1.00       0.000000000000
      0.1873113696D+02  0.3349460434D-01
      0.2825394365D+01  0.2347269535D+00
      0.6401216923D+00  0.8137573261D+00
 S   1 1.00       0.000000000000
      0.1612777588D+00  0.1000000000D+01
 ****
     13 0
 S   3 1.00       0.000000000000
      0.1873113696D+02  0.3349460434D-01
      0.2825394365D+01  0.2347269535D+00
      0.6401216923D+00  0.8137573261D+00
 S   1 1.00       0.000000000000
      0.1612777588D+00  0.1000000000D+01
 ****
     14 0
 S   6 1.00       0.000000000000
      0.3047524880D+04  0.1834737132D-02
      0.4573695180D+03  0.1403732281D-01
      0.1039486850D+03  0.6884262226D-01
      0.2921015530D+02  0.2321844432D+00
      0.9286662960D+01  0.4679413484D+00
      0.3163926960D+01  0.3623119853D+00
 SP   3 1.00       0.000000000000
      0.7868272350D+01 -0.1193324198D+00  0.6899906659D-01
      0.1881288540D+01 -0.1608541517D+00  0.3164239610D+00
      0.5442492580D+00  0.1143456438D+01  0.7443082909D+00
 SP   1 1.00       0.000000000000
      0.1687144782D+00  0.1000000000D+01  0.1000000000D+01
 D   1 1.00       0.000000000000
      0.8000000000D+00  0.1000000000D+01
 ****
     15 0
 S   3 1.00       0.000000000000
      0.1873113696D+02  0.3349460434D-01
      0.2825394365D+01  0.2347269535D+00
      0.6401216923D+00  0.8137573261D+00
 S   1 1.00       0.000000000000
      0.1612777588D+00  0.1000000000D+01
 ****
     16 0
 S   6 1.00       0.000000000000
      0.3047524880D+04  0.1834737132D-02
      0.4573695180D+03  0.1403732281D-01
      0.1039486850D+03  0.6884262226D-01
      0.2921015530D+02  0.2321844432D+00
      0.9286662960D+01  0.4679413484D+00
      0.3163926960D+01  0.3623119853D+00
 SP   3 1.00       0.000000000000
      0.7868272350D+01 -0.1193324198D+00  0.6899906659D-01
      0.1881288540D+01 -0.1608541517D+00  0.3164239610D+00
      0.5442492580D+00  0.1143456438D+01  0.7443082909D+00
 SP   1 1.00       0.000000000000
      0.1687144782D+00  0.1000000000D+01  0.1000000000D+01
 D   1 1.00       0.000000000000
      0.8000000000D+00  0.1000000000D+01
 ****
     17 0
 S   3 1.00       0.000000000000
      0.1873113696D+02  0.3349460434D-01
      0.2825394365D+01  0.2347269535D+00
      0.6401216923D+00  0.8137573261D+00
 S   1 1.00       0.000000000000
      0.1612777588D+00  0.1000000000D+01
 ****
     18 0
 S   6 1.00       0.000000000000
      0.3047524880D+04  0.1834737132D-02
      0.4573695180D+03  0.1403732281D-01
      0.1039486850D+03  0.6884262226D-01
      0.2921015530D+02  0.2321844432D+00
      0.9286662960D+01  0.4679413484D+00
      0.3163926960D+01  0.3623119853D+00
 SP   3 1.00       0.000000000000
      0.7868272350D+01 -0.1193324198D+00  0.6899906659D-01
      0.1881288540D+01 -0.1608541517D+00  0.3164239610D+00
      0.5442492580D+00  0.1143456438D+01  0.7443082909D+00
 SP   1 1.00       0.000000000000
      0.1687144782D+00  0.1000000000D+01  0.1000000000D+01
 D   1 1.00       0.000000000000
      0.8000000000D+00  0.1000000000D+01
 ****
     19 0
 S   3 1.00       0.000000000000
      0.1873113696D+02  0.3349460434D-01
      0.2825394365D+01  0.2347269535D+00
      0.6401216923D+00  0.8137573261D+00
 S   1 1.00       0.000000000000
      0.1612777588D+00  0.1000000000D+01
 ****
     20 0
 S   6 1.00       0.000000000000
      0.3047524880D+04  0.1834737132D-02
      0.4573695180D+03  0.1403732281D-01
      0.1039486850D+03  0.6884262226D-01
      0.2921015530D+02  0.2321844432D+00
      0.9286662960D+01  0.4679413484D+00
      0.3163926960D+01  0.3623119853D+00
 SP   3 1.00       0.000000000000
      0.7868272350D+01 -0.1193324198D+00  0.6899906659D-01
      0.1881288540D+01 -0.1608541517D+00  0.3164239610D+00
      0.5442492580D+00  0.1143456438D+01  0.7443082909D+00
 SP   1 1.00       0.000000000000
      0.1687144782D+00  0.1000000000D+01  0.1000000000D+01
 D   1 1.00       0.000000000000
      0.8000000000D+00  0.1000000000D+01
 ****
     21 0
 S   3 1.00       0.000000000000
      0.1873113696D+02  0.3349460434D-01
      0.2825394365D+01  0.2347269535D+00
      0.6401216923D+00  0.8137573261D+00
 S   1 1.00       0.000000000000
      0.1612777588D+00  0.1000000000D+01
 ****
     22 0
 S   6 1.00       0.000000000000
      0.3047524880D+04  0.1834737132D-02
      0.4573695180D+03  0.1403732281D-01
      0.1039486850D+03  0.6884262226D-01
      0.2921015530D+02  0.2321844432D+00
      0.9286662960D+01  0.4679413484D+00
      0.3163926960D+01  0.3623119853D+00
 SP   3 1.00       0.000000000000
      0.7868272350D+01 -0.1193324198D+00  0.6899906659D-01
      0.1881288540D+01 -0.1608541517D+00  0.3164239610D+00
      0.5442492580D+00  0.1143456438D+01  0.7443082909D+00
 SP   1 1.00       0.000000000000
      0.1687144782D+00  0.1000000000D+01  0.1000000000D+01
 D   1 1.00       0.000000000000
      0.8000000000D+00  0.1000000000D+01
 ****
     23 0
 S   3 1.00       0.000000000000
      0.1873113696D+02  0.3349460434D-01
      0.2825394365D+01  0.2347269535D+00
      0.6401216923D+00  0.8137573261D+00
 S   1 1.00       0.000000000000
      0.1612777588D+00  0.1000000000D+01
 ****
     24 0
 S   3 1.00       0.000000000000
      0.1873113696D+02  0.3349460434D-01
      0.2825394365D+01  0.2347269535D+00
      0.6401216923D+00  0.8137573261D+00
 S   1 1.00       0.000000000000
      0.1612777588D+00  0.1000000000D+01
 ****
     25 0
 S   6 1.00       0.000000000000
      0.3047524880D+04  0.1834737132D-02
      0.4573695180D+03  0.1403732281D-01
      0.1039486850D+03  0.6884262226D-01
      0.2921015530D+02  0.2321844432D+00
      0.9286662960D+01  0.4679413484D+00
      0.3163926960D+01  0.3623119853D+00
 SP   3 1.00       0.000000000000
      0.7868272350D+01 -0.1193324198D+00  0.6899906659D-01
      0.1881288540D+01 -0.1608541517D+00  0.3164239610D+00
      0.5442492580D+00  0.1143456438D+01  0.7443082909D+00
 SP   1 1.00       0.000000000000
      0.1687144782D+00  0.1000000000D+01  0.1000000000D+01
 D   1 1.00       0.000000000000
      0.8000000000D+00  0.1000000000D+01
 ****
     26 0
 S   3 1.00       0.000000000000
      0.1873113696D+02  0.3349460434D-01
      0.2825394365D+01  0.2347269535D+00
      0.6401216923D+00  0.8137573261D+00
 S   1 1.00       0.000000000000
      0.1612777588D+00  0.1000000000D+01
 ****
     27 0
 S   3 1.00       0.000000000000
      0.1873113696D+02  0.3349460434D-01
      0.2825394365D+01  0.2347269535D+00
      0.6401216923D+00  0.8137573261D+00
 S   1 1.00       0.000000000000
      0.1612777588D+00  0.1000000000D+01
 ****
     28 0
 S   6 1.00       0.000000000000
      0.3047524880D+04  0.1834737132D-02
      0.4573695180D+03  0.1403732281D-01
      0.1039486850D+03  0.6884262226D-01
      0.2921015530D+02  0.2321844432D+00
      0.9286662960D+01  0.4679413484D+00
      0.3163926960D+01  0.3623119853D+00
 SP   3 1.00       0.000000000000
      0.7868272350D+01 -0.1193324198D+00  0.6899906659D-01
      0.1881288540D+01 -0.1608541517D+00  0.3164239610D+00
      0.5442492580D+00  0.1143456438D+01  0.7443082909D+00
 SP   1 1.00       0.000000000000
      0.1687144782D+00  0.1000000000D+01  0.1000000000D+01
 D   1 1.00       0.000000000000
      0.8000000000D+00  0.1000000000D+01
 ****
     29 0
 S   6 1.00       0.000000000000
      0.3047524880D+04  0.1834737132D-02
      0.4573695180D+03  0.1403732281D-01
      0.1039486850D+03  0.6884262226D-01
      0.2921015530D+02  0.2321844432D+00
      0.9286662960D+01  0.4679413484D+00
      0.3163926960D+01  0.3623119853D+00
 SP   3 1.00       0.000000000000
      0.7868272350D+01 -0.1193324198D+00  0.6899906659D-01
      0.1881288540D+01 -0.1608541517D+00  0.3164239610D+00
      0.5442492580D+00  0.1143456438D+01  0.7443082909D+00
 SP   1 1.00       0.000000000000
      0.1687144782D+00  0.1000000000D+01  0.1000000000D+01
 D   1 1.00       0.000000000000
      0.8000000000D+00  0.1000000000D+01
 ****
     30 0
 S   3 1.00       0.000000000000
      0.1873113696D+02  0.3349460434D-01
      0.2825394365D+01  0.2347269535D+00
      0.6401216923D+00  0.8137573261D+00
 S   1 1.00       0.000000000000
      0.1612777588D+00  0.1000000000D+01
 ****
     31 0
 S   6 1.00       0.000000000000
      0.3047524880D+04  0.1834737132D-02
      0.4573695180D+03  0.1403732281D-01
      0.1039486850D+03  0.6884262226D-01
      0.2921015530D+02  0.2321844432D+00
      0.9286662960D+01  0.4679413484D+00
      0.3163926960D+01  0.3623119853D+00
 SP   3 1.00       0.000000000000
      0.7868272350D+01 -0.1193324198D+00  0.6899906659D-01
      0.1881288540D+01 -0.1608541517D+00  0.3164239610D+00
      0.5442492580D+00  0.1143456438D+01  0.7443082909D+00
 SP   1 1.00       0.000000000000
      0.1687144782D+00  0.1000000000D+01  0.1000000000D+01
 D   1 1.00       0.000000000000
      0.8000000000D+00  0.1000000000D+01
 ****
     32 0
 S   3 1.00       0.000000000000
      0.1873113696D+02  0.3349460434D-01
      0.2825394365D+01  0.2347269535D+00
      0.6401216923D+00  0.8137573261D+00
 S   1 1.00       0.000000000000
      0.1612777588D+00  0.1000000000D+01
 ****
     33 0
 S   3 1.00       0.000000000000
      0.1873113696D+02  0.3349460434D-01
      0.2825394365D+01  0.2347269535D+00
      0.6401216923D+00  0.8137573261D+00
 S   1 1.00       0.000000000000
      0.1612777588D+00  0.1000000000D+01
 ****
     34 0
 S   6 1.00       0.000000000000
      0.3047524880D+04  0.1834737132D-02
      0.4573695180D+03  0.1403732281D-01
      0.1039486850D+03  0.6884262226D-01
      0.2921015530D+02  0.2321844432D+00
      0.9286662960D+01  0.4679413484D+00
      0.3163926960D+01  0.3623119853D+00
 SP   3 1.00       0.000000000000
      0.7868272350D+01 -0.1193324198D+00  0.6899906659D-01
      0.1881288540D+01 -0.1608541517D+00  0.3164239610D+00
      0.5442492580D+00  0.1143456438D+01  0.7443082909D+00
 SP   1 1.00       0.000000000000
      0.1687144782D+00  0.1000000000D+01  0.1000000000D+01
 D   1 1.00       0.000000000000
      0.8000000000D+00  0.1000000000D+01
 ****
     35 0
 S   3 1.00       0.000000000000
      0.1873113696D+02  0.3349460434D-01
      0.2825394365D+01  0.2347269535D+00
      0.6401216923D+00  0.8137573261D+00
 S   1 1.00       0.000000000000
      0.1612777588D+00  0.1000000000D+01
 ****
     36 0
 S   3 1.00       0.000000000000
      0.1873113696D+02  0.3349460434D-01
      0.2825394365D+01  0.2347269535D+00
      0.6401216923D+00  0.8137573261D+00
 S   1 1.00       0.000000000000
      0.1612777588D+00  0.1000000000D+01
 ****
     37 0
 S   6 1.00       0.000000000000
      0.3047524880D+04  0.1834737132D-02
      0.4573695180D+03  0.1403732281D-01
      0.1039486850D+03  0.6884262226D-01
      0.2921015530D+02  0.2321844432D+00
      0.9286662960D+01  0.4679413484D+00
      0.3163926960D+01  0.3623119853D+00
 SP   3 1.00       0.000000000000
      0.7868272350D+01 -0.1193324198D+00  0.6899906659D-01
      0.1881288540D+01 -0.1608541517D+00  0.3164239610D+00
      0.5442492580D+00  0.1143456438D+01  0.7443082909D+00
 SP   1 1.00       0.000000000000
      0.1687144782D+00  0.1000000000D+01  0.1000000000D+01
 D   1 1.00       0.000000000000
      0.8000000000D+00  0.1000000000D+01
 ****
     38 0
 S   3 1.00       0.000000000000
      0.1873113696D+02  0.3349460434D-01
      0.2825394365D+01  0.2347269535D+00
      0.6401216923D+00  0.8137573261D+00
 S   1 1.00       0.000000000000
      0.1612777588D+00  0.1000000000D+01
 ****
     39 0
 S   6 1.00       0.000000000000
      0.3047524880D+04  0.1834737132D-02
      0.4573695180D+03  0.1403732281D-01
      0.1039486850D+03  0.6884262226D-01
      0.2921015530D+02  0.2321844432D+00
      0.9286662960D+01  0.4679413484D+00
      0.3163926960D+01  0.3623119853D+00
 SP   3 1.00       0.000000000000
      0.7868272350D+01 -0.1193324198D+00  0.6899906659D-01
      0.1881288540D+01 -0.1608541517D+00  0.3164239610D+00
      0.5442492580D+00  0.1143456438D+01  0.7443082909D+00
 SP   1 1.00       0.000000000000
      0.1687144782D+00  0.1000000000D+01  0.1000000000D+01
 D   1 1.00       0.000000000000
      0.8000000000D+00  0.1000000000D+01
 ****
     40 0
 S   3 1.00       0.000000000000
      0.1873113696D+02  0.3349460434D-01
      0.2825394365D+01  0.2347269535D+00
      0.6401216923D+00  0.8137573261D+00
 S   1 1.00       0.000000000000
      0.1612777588D+00  0.1000000000D+01
 ****
     41 0
 S   3 1.00       0.000000000000
      0.1873113696D+02  0.3349460434D-01
      0.2825394365D+01  0.2347269535D+00
      0.6401216923D+00  0.8137573261D+00
 S   1 1.00       0.000000000000
      0.1612777588D+00  0.1000000000D+01
 ****
     42 0
 S   3 1.00       0.000000000000
      0.1873113696D+02  0.3349460434D-01
      0.2825394365D+01  0.2347269535D+00
      0.6401216923D+00  0.8137573261D+00
 S   1 1.00       0.000000000000
      0.1612777588D+00  0.1000000000D+01
 ****
     43 0
 S   6 1.00       0.000000000000
      0.3047524880D+04  0.1834737132D-02
      0.4573695180D+03  0.1403732281D-01
      0.1039486850D+03  0.6884262226D-01
      0.2921015530D+02  0.2321844432D+00
      0.9286662960D+01  0.4679413484D+00
      0.3163926960D+01  0.3623119853D+00
 SP   3 1.00       0.000000000000
      0.7868272350D+01 -0.1193324198D+00  0.6899906659D-01
      0.1881288540D+01 -0.1608541517D+00  0.3164239610D+00
      0.5442492580D+00  0.1143456438D+01  0.7443082909D+00
 SP   1 1.00       0.000000000000
      0.1687144782D+00  0.1000000000D+01  0.1000000000D+01
 D   1 1.00       0.000000000000
      0.8000000000D+00  0.1000000000D+01
 ****
     44 0
 S   3 1.00       0.000000000000
      0.1873113696D+02  0.3349460434D-01
      0.2825394365D+01  0.2347269535D+00
      0.6401216923D+00  0.8137573261D+00
 S   1 1.00       0.000000000000
      0.1612777588D+00  0.1000000000D+01
 ****
     45 0
 S   6 1.00       0.000000000000
      0.3047524880D+04  0.1834737132D-02
      0.4573695180D+03  0.1403732281D-01
      0.1039486850D+03  0.6884262226D-01
      0.2921015530D+02  0.2321844432D+00
      0.9286662960D+01  0.4679413484D+00
      0.3163926960D+01  0.3623119853D+00
 SP   3 1.00       0.000000000000
      0.7868272350D+01 -0.1193324198D+00  0.6899906659D-01
      0.1881288540D+01 -0.1608541517D+00  0.3164239610D+00
      0.5442492580D+00  0.1143456438D+01  0.7443082909D+00
 SP   1 1.00       0.000000000000
      0.1687144782D+00  0.1000000000D+01  0.1000000000D+01
 D   1 1.00       0.000000000000
      0.8000000000D+00  0.1000000000D+01
 ****
     46 0
 S   3 1.00       0.000000000000
      0.1873113696D+02  0.3349460434D-01
      0.2825394365D+01  0.2347269535D+00
      0.6401216923D+00  0.8137573261D+00
 S   1 1.00       0.000000000000
      0.1612777588D+00  0.1000000000D+01
 ****
     47 0
 S   3 1.00       0.000000000000
      0.1873113696D+02  0.3349460434D-01
      0.2825394365D+01  0.2347269535D+00
      0.6401216923D+00  0.8137573261D+00
 S   1 1.00       0.000000000000
      0.1612777588D+00  0.1000000000D+01
 ****
     48 0
 S   3 1.00       0.000000000000
      0.1873113696D+02  0.3349460434D-01
      0.2825394365D+01  0.2347269535D+00
      0.6401216923D+00  0.8137573261D+00
 S   1 1.00       0.000000000000
      0.1612777588D+00  0.1000000000D+01
 ****
     49 0
 S   6 1.00       0.000000000000
      0.3047524880D+04  0.1834737132D-02
      0.4573695180D+03  0.1403732281D-01
      0.1039486850D+03  0.6884262226D-01
      0.2921015530D+02  0.2321844432D+00
      0.9286662960D+01  0.4679413484D+00
      0.3163926960D+01  0.3623119853D+00
 SP   3 1.00       0.000000000000
      0.7868272350D+01 -0.1193324198D+00  0.6899906659D-01
      0.1881288540D+01 -0.1608541517D+00  0.3164239610D+00
      0.5442492580D+00  0.1143456438D+01  0.7443082909D+00
 SP   1 1.00       0.000000000000
      0.1687144782D+00  0.1000000000D+01  0.1000000000D+01
 D   1 1.00       0.000000000000
      0.8000000000D+00  0.1000000000D+01
 ****
     50 0
 S   3 1.00       0.000000000000
      0.1873113696D+02  0.3349460434D-01
      0.2825394365D+01  0.2347269535D+00
      0.6401216923D+00  0.8137573261D+00
 S   1 1.00       0.000000000000
      0.1612777588D+00  0.1000000000D+01
 ****
     51 0
 S   3 1.00       0.000000000000
      0.1873113696D+02  0.3349460434D-01
      0.2825394365D+01  0.2347269535D+00
      0.6401216923D+00  0.8137573261D+00
 S   1 1.00       0.000000000000
      0.1612777588D+00  0.1000000000D+01
 ****
     52 0
 S   3 1.00       0.000000000000
      0.1873113696D+02  0.3349460434D-01
      0.2825394365D+01  0.2347269535D+00
      0.6401216923D+00  0.8137573261D+00
 S   1 1.00       0.000000000000
      0.1612777588D+00  0.1000000000D+01
 ****
     53 0
 S   6 1.00       0.000000000000
      0.5484671660D+04  0.1831074430D-02
      0.8252349460D+03  0.1395017220D-01
      0.1880469580D+03  0.6844507810D-01
      0.5296450000D+02  0.2327143360D+00
      0.1689757040D+02  0.4701928980D+00
      0.5799635340D+01  0.3585208530D+00
 SP   3 1.00       0.000000000000
      0.1553961625D+02 -0.1107775495D+00  0.7087426823D-01
      0.3599933586D+01 -0.1480262627D+00  0.3397528391D+00
      0.1013761750D+01  0.1130767015D+01  0.7271585773D+00
 SP   1 1.00       0.000000000000
      0.2700058226D+00  0.1000000000D+01  0.1000000000D+01
 D   1 1.00       0.000000000000
      0.8000000000D+00  0.1000000000D+01
 ****
     54 0
 S   6 1.00       0.000000000000
      0.5484671660D+04  0.1831074430D-02
      0.8252349460D+03  0.1395017220D-01
      0.1880469580D+03  0.6844507810D-01
      0.5296450000D+02  0.2327143360D+00
      0.1689757040D+02  0.4701928980D+00
      0.5799635340D+01  0.3585208530D+00
 SP   3 1.00       0.000000000000
      0.1553961625D+02 -0.1107775495D+00  0.7087426823D-01
      0.3599933586D+01 -0.1480262627D+00  0.3397528391D+00
      0.1013761750D+01  0.1130767015D+01  0.7271585773D+00
 SP   1 1.00       0.000000000000
      0.2700058226D+00  0.1000000000D+01  0.1000000000D+01
 D   1 1.00       0.000000000000
      0.8000000000D+00  0.1000000000D+01
 ****
     55 0
 S   3 1.00       0.000000000000
      0.1873113696D+02  0.3349460434D-01
      0.2825394365D+01  0.2347269535D+00
      0.6401216923D+00  0.8137573261D+00
 S   1 1.00       0.000000000000
      0.1612777588D+00  0.1000000000D+01
 ****
     56 0
 S   6 1.00       0.000000000000
      0.5484671660D+04  0.1831074430D-02
      0.8252349460D+03  0.1395017220D-01
      0.1880469580D+03  0.6844507810D-01
      0.5296450000D+02  0.2327143360D+00
      0.1689757040D+02  0.4701928980D+00
      0.5799635340D+01  0.3585208530D+00
 SP   3 1.00       0.000000000000
      0.1553961625D+02 -0.1107775495D+00  0.7087426823D-01
      0.3599933586D+01 -0.1480262627D+00  0.3397528391D+00
      0.1013761750D+01  0.1130767015D+01  0.7271585773D+00
 SP   1 1.00       0.000000000000
      0.2700058226D+00  0.1000000000D+01  0.1000000000D+01
 D   1 1.00       0.000000000000
      0.8000000000D+00  0.1000000000D+01
 ****
     57 0
 S   3 1.00       0.000000000000
      0.1873113696D+02  0.3349460434D-01
      0.2825394365D+01  0.2347269535D+00
      0.6401216923D+00  0.8137573261D+00
 S   1 1.00       0.000000000000
      0.1612777588D+00  0.1000000000D+01
 ****
     58 0
 S   6 1.00       0.000000000000
      0.3047524880D+04  0.1834737132D-02
      0.4573695180D+03  0.1403732281D-01
      0.1039486850D+03  0.6884262226D-01
      0.2921015530D+02  0.2321844432D+00
      0.9286662960D+01  0.4679413484D+00
      0.3163926960D+01  0.3623119853D+00
 SP   3 1.00       0.000000000000
      0.7868272350D+01 -0.1193324198D+00  0.6899906659D-01
      0.1881288540D+01 -0.1608541517D+00  0.3164239610D+00
      0.5442492580D+00  0.1143456438D+01  0.7443082909D+00
 SP   1 1.00       0.000000000000
      0.1687144782D+00  0.1000000000D+01  0.1000000000D+01
 D   1 1.00       0.000000000000
      0.8000000000D+00  0.1000000000D+01
 ****
     59 0
 S   3 1.00       0.000000000000
      0.1873113696D+02  0.3349460434D-01
      0.2825394365D+01  0.2347269535D+00
      0.6401216923D+00  0.8137573261D+00
 S   1 1.00       0.000000000000
      0.1612777588D+00  0.1000000000D+01
 ****
     60 0
 S   3 1.00       0.000000000000
      0.1873113696D+02  0.3349460434D-01
      0.2825394365D+01  0.2347269535D+00
      0.6401216923D+00  0.8137573261D+00
 S   1 1.00       0.000000000000
      0.1612777588D+00  0.1000000000D+01
 ****
     61 0
 S   6 1.00       0.000000000000
      0.3047524880D+04  0.1834737132D-02
      0.4573695180D+03  0.1403732281D-01
      0.1039486850D+03  0.6884262226D-01
      0.2921015530D+02  0.2321844432D+00
      0.9286662960D+01  0.4679413484D+00
      0.3163926960D+01  0.3623119853D+00
 SP   3 1.00       0.000000000000
      0.7868272350D+01 -0.1193324198D+00  0.6899906659D-01
      0.1881288540D+01 -0.1608541517D+00  0.3164239610D+00
      0.5442492580D+00  0.1143456438D+01  0.7443082909D+00
 SP   1 1.00       0.000000000000
      0.1687144782D+00  0.1000000000D+01  0.1000000000D+01
 D   1 1.00       0.000000000000
      0.8000000000D+00  0.1000000000D+01
 ****
     62 0
 S   3 1.00       0.000000000000
      0.1873113696D+02  0.3349460434D-01
      0.2825394365D+01  0.2347269535D+00
      0.6401216923D+00  0.8137573261D+00
 S   1 1.00       0.000000000000
      0.1612777588D+00  0.1000000000D+01
 ****
     63 0
 S   3 1.00       0.000000000000
      0.1873113696D+02  0.3349460434D-01
      0.2825394365D+01  0.2347269535D+00
      0.6401216923D+00  0.8137573261D+00
 S   1 1.00       0.000000000000
      0.1612777588D+00  0.1000000000D+01
 ****
     64 0
 S   6 1.00       0.000000000000
      0.3047524880D+04  0.1834737132D-02
      0.4573695180D+03  0.1403732281D-01
      0.1039486850D+03  0.6884262226D-01
      0.2921015530D+02  0.2321844432D+00
      0.9286662960D+01  0.4679413484D+00
      0.3163926960D+01  0.3623119853D+00
 SP   3 1.00       0.000000000000
      0.7868272350D+01 -0.1193324198D+00  0.6899906659D-01
      0.1881288540D+01 -0.1608541517D+00  0.3164239610D+00
      0.5442492580D+00  0.1143456438D+01  0.7443082909D+00
 SP   1 1.00       0.000000000000
      0.1687144782D+00  0.1000000000D+01  0.1000000000D+01
 D   1 1.00       0.000000000000
      0.8000000000D+00  0.1000000000D+01
 ****
     65 0
 S   3 1.00       0.000000000000
      0.1873113696D+02  0.3349460434D-01
      0.2825394365D+01  0.2347269535D+00
      0.6401216923D+00  0.8137573261D+00
 S   1 1.00       0.000000000000
      0.1612777588D+00  0.1000000000D+01
 ****
     66 0
 S   3 1.00       0.000000000000
      0.1873113696D+02  0.3349460434D-01
      0.2825394365D+01  0.2347269535D+00
      0.6401216923D+00  0.8137573261D+00
 S   1 1.00       0.000000000000
      0.1612777588D+00  0.1000000000D+01
 ****
     67 0
 S   6 1.00       0.000000000000
      0.3047524880D+04  0.1834737132D-02
      0.4573695180D+03  0.1403732281D-01
      0.1039486850D+03  0.6884262226D-01
      0.2921015530D+02  0.2321844432D+00
      0.9286662960D+01  0.4679413484D+00
      0.3163926960D+01  0.3623119853D+00
 SP   3 1.00       0.000000000000
      0.7868272350D+01 -0.1193324198D+00  0.6899906659D-01
      0.1881288540D+01 -0.1608541517D+00  0.3164239610D+00
      0.5442492580D+00  0.1143456438D+01  0.7443082909D+00
 SP   1 1.00       0.000000000000
      0.1687144782D+00  0.1000000000D+01  0.1000000000D+01
 D   1 1.00       0.000000000000
      0.8000000000D+00  0.1000000000D+01
 ****
     68 0
 S   3 1.00       0.000000000000
      0.1873113696D+02  0.3349460434D-01
      0.2825394365D+01  0.2347269535D+00
      0.6401216923D+00  0.8137573261D+00
 S   1 1.00       0.000000000000
      0.1612777588D+00  0.1000000000D+01
 ****
     69 0
 S   6 1.00       0.000000000000
      0.3047524880D+04  0.1834737132D-02
      0.4573695180D+03  0.1403732281D-01
      0.1039486850D+03  0.6884262226D-01
      0.2921015530D+02  0.2321844432D+00
      0.9286662960D+01  0.4679413484D+00
      0.3163926960D+01  0.3623119853D+00
 SP   3 1.00       0.000000000000
      0.7868272350D+01 -0.1193324198D+00  0.6899906659D-01
      0.1881288540D+01 -0.1608541517D+00  0.3164239610D+00
      0.5442492580D+00  0.1143456438D+01  0.7443082909D+00
 SP   1 1.00       0.000000000000
      0.1687144782D+00  0.1000000000D+01  0.1000000000D+01
 D   1 1.00       0.000000000000
      0.8000000000D+00  0.1000000000D+01
 ****
     70 0
 S   3 1.00       0.000000000000
      0.1873113696D+02  0.3349460434D-01
      0.2825394365D+01  0.2347269535D+00
      0.6401216923D+00  0.8137573261D+00
 S   1 1.00       0.000000000000
      0.1612777588D+00  0.1000000000D+01
 ****
     71 0
 S   3 1.00       0.000000000000
      0.1873113696D+02  0.3349460434D-01
      0.2825394365D+01  0.2347269535D+00
      0.6401216923D+00  0.8137573261D+00
 S   1 1.00       0.000000000000
      0.1612777588D+00  0.1000000000D+01
 ****
     72 0
 S   3 1.00       0.000000000000
      0.1873113696D+02  0.3349460434D-01
      0.2825394365D+01  0.2347269535D+00
      0.6401216923D+00  0.8137573261D+00
 S   1 1.00       0.000000000000
      0.1612777588D+00  0.1000000000D+01
 ****
     73 0
 S   6 1.00       0.000000000000
      0.3047524880D+04  0.1834737132D-02
      0.4573695180D+03  0.1403732281D-01
      0.1039486850D+03  0.6884262226D-01
      0.2921015530D+02  0.2321844432D+00
      0.9286662960D+01  0.4679413484D+00
      0.3163926960D+01  0.3623119853D+00
 SP   3 1.00       0.000000000000
      0.7868272350D+01 -0.1193324198D+00  0.6899906659D-01
      0.1881288540D+01 -0.1608541517D+00  0.3164239610D+00
      0.5442492580D+00  0.1143456438D+01  0.7443082909D+00
 SP   1 1.00       0.000000000000
      0.1687144782D+00  0.1000000000D+01  0.1000000000D+01
 D   1 1.00       0.000000000000
      0.8000000000D+00  0.1000000000D+01
 ****
     74 0
 S   3 1.00       0.000000000000
      0.1873113696D+02  0.3349460434D-01
      0.2825394365D+01  0.2347269535D+00
      0.6401216923D+00  0.8137573261D+00
 S   1 1.00       0.000000000000
      0.1612777588D+00  0.1000000000D+01
 ****
     75 0
 S   3 1.00       0.000000000000
      0.1873113696D+02  0.3349460434D-01
      0.2825394365D+01  0.2347269535D+00
      0.6401216923D+00  0.8137573261D+00
 S   1 1.00       0.000000000000
      0.1612777588D+00  0.1000000000D+01
 ****
     76 0
 S   3 1.00       0.000000000000
      0.1873113696D+02  0.3349460434D-01
      0.2825394365D+01  0.2347269535D+00
      0.6401216923D+00  0.8137573261D+00
 S   1 1.00       0.000000000000
      0.1612777588D+00  0.1000000000D+01
 ****

 AO basis set (Overlap normalization):
 Atom C1       Shell     1 S   6     bf    1 -     1          3.322872889188         -2.360287857688          0.095135578749
      0.3047524880D+04  0.1834737132D-02
      0.4573695180D+03  0.1403732281D-01
      0.1039486850D+03  0.6884262226D-01
      0.2921015530D+02  0.2321844432D+00
      0.9286662960D+01  0.4679413484D+00
      0.3163926960D+01  0.3623119853D+00
 Atom C1       Shell     2 SP   3    bf    2 -     5          3.322872889188         -2.360287857688          0.095135578749
      0.7868272350D+01 -0.1193324198D+00  0.6899906659D-01
      0.1881288540D+01 -0.1608541517D+00  0.3164239610D+00
      0.5442492580D+00  0.1143456438D+01  0.7443082909D+00
 Atom C1       Shell     3 SP   1    bf    6 -     9          3.322872889188         -2.360287857688          0.095135578749
      0.1687144782D+00  0.1000000000D+01  0.1000000000D+01
 Atom C1       Shell     4 D   1     bf   10 -    15          3.322872889188         -2.360287857688          0.095135578749
      0.8000000000D+00  0.1000000000D+01
 Atom H2       Shell     5 S   3     bf   16 -    16          3.558377967595         -2.277499031395         -1.962666386875
      0.1873113696D+02  0.3349460434D-01
      0.2825394365D+01  0.2347269535D+00
      0.6401216923D+00  0.8137573261D+00
 Atom H2       Shell     6 S   1     bf   17 -    17          3.558377967595         -2.277499031395         -1.962666386875
      0.1612777588D+00  0.1000000000D+01
 Atom C3       Shell     7 S   6     bf   18 -    18          5.946669846921         -2.387719840329          1.340352302568
      0.3047524880D+04  0.1834737132D-02
      0.4573695180D+03  0.1403732281D-01
      0.1039486850D+03  0.6884262226D-01
      0.2921015530D+02  0.2321844432D+00
      0.9286662960D+01  0.4679413484D+00
      0.3163926960D+01  0.3623119853D+00
 Atom C3       Shell     8 SP   3    bf   19 -    22          5.946669846921         -2.387719840329          1.340352302568
      0.7868272350D+01 -0.1193324198D+00  0.6899906659D-01
      0.1881288540D+01 -0.1608541517D+00  0.3164239610D+00
      0.5442492580D+00  0.1143456438D+01  0.7443082909D+00
 Atom C3       Shell     9 SP   1    bf   23 -    26          5.946669846921         -2.387719840329          1.340352302568
      0.1687144782D+00  0.1000000000D+01  0.1000000000D+01
 Atom C3       Shell    10 D   1     bf   27 -    32          5.946669846921         -2.387719840329          1.340352302568
      0.8000000000D+00  0.1000000000D+01
 Atom H4       Shell    11 S   3     bf   33 -    33          7.041261357284         -3.989091793323          0.622787233936
      0.1873113696D+02  0.3349460434D-01
      0.2825394365D+01  0.2347269535D+00
      0.6401216923D+00  0.8137573261D+00
 Atom H4       Shell    12 S   1     bf   34 -    34          7.041261357284         -3.989091793323          0.622787233936
      0.1612777588D+00  0.1000000000D+01
 Atom H5       Shell    13 S   3     bf   35 -    35          5.676065864596         -2.716620607736          3.377683885446
      0.1873113696D+02  0.3349460434D-01
      0.2825394365D+01  0.2347269535D+00
      0.6401216923D+00  0.8137573261D+00
 Atom H5       Shell    14 S   1     bf   36 -    36          5.676065864596         -2.716620607736          3.377683885446
      0.1612777588D+00  0.1000000000D+01
 Atom C6       Shell    15 S   6     bf   37 -    37          7.380809181875          0.060747797672          0.924102421763
      0.3047524880D+04  0.1834737132D-02
      0.4573695180D+03  0.1403732281D-01
      0.1039486850D+03  0.6884262226D-01
      0.2921015530D+02  0.2321844432D+00
      0.9286662960D+01  0.4679413484D+00
      0.3163926960D+01  0.3623119853D+00
 Atom C6       Shell    16 SP   3    bf   38 -    41          7.380809181875          0.060747797672          0.924102421763
      0.7868272350D+01 -0.1193324198D+00  0.6899906659D-01
      0.1881288540D+01 -0.1608541517D+00  0.3164239610D+00
      0.5442492580D+00  0.1143456438D+01  0.7443082909D+00
 Atom C6       Shell    17 SP   1    bf   42 -    45          7.380809181875          0.060747797672          0.924102421763
      0.1687144782D+00  0.1000000000D+01  0.1000000000D+01
 Atom C6       Shell    18 D   1     bf   46 -    51          7.380809181875          0.060747797672          0.924102421763
      0.8000000000D+00  0.1000000000D+01
 Atom C7       Shell    19 S   6     bf   52 -    52          5.997813130420          2.512806123195          1.613893467324
      0.3047524880D+04  0.1834737132D-02
      0.4573695180D+03  0.1403732281D-01
      0.1039486850D+03  0.6884262226D-01
      0.2921015530D+02  0.2321844432D+00
      0.9286662960D+01  0.4679413484D+00
      0.3163926960D+01  0.3623119853D+00
 Atom C7       Shell    20 SP   3    bf   53 -    56          5.997813130420          2.512806123195          1.613893467324
      0.7868272350D+01 -0.1193324198D+00  0.6899906659D-01
      0.1881288540D+01 -0.1608541517D+00  0.3164239610D+00
      0.5442492580D+00  0.1143456438D+01  0.7443082909D+00
 Atom C7       Shell    21 SP   1    bf   57 -    60          5.997813130420          2.512806123195          1.613893467324
      0.1687144782D+00  0.1000000000D+01  0.1000000000D+01
 Atom C7       Shell    22 D   1     bf   61 -    66          5.997813130420          2.512806123195          1.613893467324
      0.8000000000D+00  0.1000000000D+01
 Atom C8       Shell    23 S   6     bf   67 -    67          3.296185836589          2.403684643542          0.438756991479
      0.3047524880D+04  0.1834737132D-02
      0.4573695180D+03  0.1403732281D-01
      0.1039486850D+03  0.6884262226D-01
      0.2921015530D+02  0.2321844432D+00
      0.9286662960D+01  0.4679413484D+00
      0.3163926960D+01  0.3623119853D+00
 Atom C8       Shell    24 SP   3    bf   68 -    71          3.296185836589          2.403684643542          0.438756991479
      0.7868272350D+01 -0.1193324198D+00  0.6899906659D-01
      0.1881288540D+01 -0.1608541517D+00  0.3164239610D+00
      0.5442492580D+00  0.1143456438D+01  0.7443082909D+00
 Atom C8       Shell    25 SP   1    bf   72 -    75          3.296185836589          2.403684643542          0.438756991479
      0.1687144782D+00  0.1000000000D+01  0.1000000000D+01
 Atom C8       Shell    26 D   1     bf   76 -    81          3.296185836589          2.403684643542          0.438756991479
      0.8000000000D+00  0.1000000000D+01
 Atom H9       Shell    27 S   3     bf   82 -    82          3.475747349174          2.627157930146         -1.617243365942
      0.1873113696D+02  0.3349460434D-01
      0.2825394365D+01  0.2347269535D+00
      0.6401216923D+00  0.8137573261D+00
 Atom H9       Shell    28 S   1     bf   83 -    83          3.475747349174          2.627157930146         -1.617243365942
      0.1612777588D+00  0.1000000000D+01
 Atom H10      Shell    29 S   3     bf   84 -    84          2.191386724855          4.020168963188          1.110326863029
      0.1873113696D+02  0.3349460434D-01
      0.2825394365D+01  0.2347269535D+00
      0.6401216923D+00  0.8137573261D+00
 Atom H10      Shell    30 S   1     bf   85 -    85          2.191386724855          4.020168963188          1.110326863029
      0.1612777588D+00  0.1000000000D+01
 Atom C11      Shell    31 S   6     bf   86 -    86          1.830215671194         -0.046199911113          0.967908635681
      0.3047524880D+04  0.1834737132D-02
      0.4573695180D+03  0.1403732281D-01
      0.1039486850D+03  0.6884262226D-01
      0.2921015530D+02  0.2321844432D+00
      0.9286662960D+01  0.4679413484D+00
      0.3163926960D+01  0.3623119853D+00
 Atom C11      Shell    32 SP   3    bf   87 -    90          1.830215671194         -0.046199911113          0.967908635681
      0.7868272350D+01 -0.1193324198D+00  0.6899906659D-01
      0.1881288540D+01 -0.1608541517D+00  0.3164239610D+00
      0.5442492580D+00  0.1143456438D+01  0.7443082909D+00
 Atom C11      Shell    33 SP   1    bf   91 -    94          1.830215671194         -0.046199911113          0.967908635681
      0.1687144782D+00  0.1000000000D+01  0.1000000000D+01
 Atom C11      Shell    34 D   1     bf   95 -   100          1.830215671194         -0.046199911113          0.967908635681
      0.8000000000D+00  0.1000000000D+01
 Atom H12      Shell    35 S   3     bf  101 -   101          1.424327253262         -0.227312095168          2.998685892441
      0.1873113696D+02  0.3349460434D-01
      0.2825394365D+01  0.2347269535D+00
      0.6401216923D+00  0.8137573261D+00
 Atom H12      Shell    36 S   1     bf  102 -   102          1.424327253262         -0.227312095168          2.998685892441
      0.1612777588D+00  0.1000000000D+01
 Atom H13      Shell    37 S   3     bf  103 -   103          0.000000000000          0.000000000000          0.000000000000
      0.1873113696D+02  0.3349460434D-01
      0.2825394365D+01  0.2347269535D+00
      0.6401216923D+00  0.8137573261D+00
 Atom H13      Shell    38 S   1     bf  104 -   104          0.000000000000          0.000000000000          0.000000000000
      0.1612777588D+00  0.1000000000D+01
 Atom C14      Shell    39 S   6     bf  105 -   105          9.741689336424          0.000000000000          0.000000000000
      0.3047524880D+04  0.1834737132D-02
      0.4573695180D+03  0.1403732281D-01
      0.1039486850D+03  0.6884262226D-01
      0.2921015530D+02  0.2321844432D+00
      0.9286662960D+01  0.4679413484D+00
      0.3163926960D+01  0.3623119853D+00
 Atom C14      Shell    40 SP   3    bf  106 -   109          9.741689336424          0.000000000000          0.000000000000
      0.7868272350D+01 -0.1193324198D+00  0.6899906659D-01
      0.1881288540D+01 -0.1608541517D+00  0.3164239610D+00
      0.5442492580D+00  0.1143456438D+01  0.7443082909D+00
 Atom C14      Shell    41 SP   1    bf  110 -   113          9.741689336424          0.000000000000          0.000000000000
      0.1687144782D+00  0.1000000000D+01  0.1000000000D+01
 Atom C14      Shell    42 D   1     bf  114 -   119          9.741689336424          0.000000000000          0.000000000000
      0.8000000000D+00  0.1000000000D+01
 Atom H15      Shell    43 S   3     bf  120 -   120         10.593102705493         -1.818001218464         -0.447997827857
      0.1873113696D+02  0.3349460434D-01
      0.2825394365D+01  0.2347269535D+00
      0.6401216923D+00  0.8137573261D+00
 Atom H15      Shell    44 S   1     bf  121 -   121         10.593102705493         -1.818001218464         -0.447997827857
      0.1612777588D+00  0.1000000000D+01
 Atom C16      Shell    45 S   6     bf  122 -   122         11.346108246041          2.288400521305         -0.489405544676
      0.3047524880D+04  0.1834737132D-02
      0.4573695180D+03  0.1403732281D-01
      0.1039486850D+03  0.6884262226D-01
      0.2921015530D+02  0.2321844432D+00
      0.9286662960D+01  0.4679413484D+00
      0.3163926960D+01  0.3623119853D+00
 Atom C16      Shell    46 SP   3    bf  123 -   126         11.346108246041          2.288400521305         -0.489405544676
      0.7868272350D+01 -0.1193324198D+00  0.6899906659D-01
      0.1881288540D+01 -0.1608541517D+00  0.3164239610D+00
      0.5442492580D+00  0.1143456438D+01  0.7443082909D+00
 Atom C16      Shell    47 SP   1    bf  127 -   130         11.346108246041          2.288400521305         -0.489405544676
      0.1687144782D+00  0.1000000000D+01  0.1000000000D+01
 Atom C16      Shell    48 D   1     bf  131 -   136         11.346108246041          2.288400521305         -0.489405544676
      0.8000000000D+00  0.1000000000D+01
 Atom H17      Shell    49 S   3     bf  137 -   137         13.297556651674          1.934951474438          0.116640945600
      0.1873113696D+02  0.3349460434D-01
      0.2825394365D+01  0.2347269535D+00
      0.6401216923D+00  0.8137573261D+00
 Atom H17      Shell    50 S   1     bf  138 -   138         13.297556651674          1.934951474438          0.116640945600
      0.1612777588D+00  0.1000000000D+01
 Atom C18      Shell    51 S   6     bf  139 -   139         10.326491487720          4.675209438048          0.825163296740
      0.3047524880D+04  0.1834737132D-02
      0.4573695180D+03  0.1403732281D-01
      0.1039486850D+03  0.6884262226D-01
      0.2921015530D+02  0.2321844432D+00
      0.9286662960D+01  0.4679413484D+00
      0.3163926960D+01  0.3623119853D+00
 Atom C18      Shell    52 SP   3    bf  140 -   143         10.326491487720          4.675209438048          0.825163296740
      0.7868272350D+01 -0.1193324198D+00  0.6899906659D-01
      0.1881288540D+01 -0.1608541517D+00  0.3164239610D+00
      0.5442492580D+00  0.1143456438D+01  0.7443082909D+00
 Atom C18      Shell    53 SP   1    bf  144 -   147         10.326491487720          4.675209438048          0.825163296740
      0.1687144782D+00  0.1000000000D+01  0.1000000000D+01
 Atom C18      Shell    54 D   1     bf  148 -   153         10.326491487720          4.675209438048          0.825163296740
      0.8000000000D+00  0.1000000000D+01
 Atom H19      Shell    55 S   3     bf  154 -   154         10.777756481986          4.415447797205          2.836010008819
      0.1873113696D+02  0.3349460434D-01
      0.2825394365D+01  0.2347269535D+00
      0.6401216923D+00  0.8137573261D+00
 Atom H19      Shell    56 S   1     bf  155 -   155         10.777756481986          4.415447797205          2.836010008819
      0.1612777588D+00  0.1000000000D+01
 Atom C20      Shell    57 S   6     bf  156 -   156          7.419127631103          4.865788790981          0.499908566933
      0.3047524880D+04  0.1834737132D-02
      0.4573695180D+03  0.1403732281D-01
      0.1039486850D+03  0.6884262226D-01
      0.2921015530D+02  0.2321844432D+00
      0.9286662960D+01  0.4679413484D+00
      0.3163926960D+01  0.3623119853D+00
 Atom C20      Shell    58 SP   3    bf  157 -   160          7.419127631103          4.865788790981          0.499908566933
      0.7868272350D+01 -0.1193324198D+00  0.6899906659D-01
      0.1881288540D+01 -0.1608541517D+00  0.3164239610D+00
      0.5442492580D+00  0.1143456438D+01  0.7443082909D+00
 Atom C20      Shell    59 SP   1    bf  161 -   164          7.419127631103          4.865788790981          0.499908566933
      0.1687144782D+00  0.1000000000D+01  0.1000000000D+01
 Atom C20      Shell    60 D   1     bf  165 -   170          7.419127631103          4.865788790981          0.499908566933
      0.8000000000D+00  0.1000000000D+01
 Atom H21      Shell    61 S   3     bf  171 -   171          7.078643371624          4.824352709374         -1.550137622491
      0.1873113696D+02  0.3349460434D-01
      0.2825394365D+01  0.2347269535D+00
      0.6401216923D+00  0.8137573261D+00
 Atom H21      Shell    62 S   1     bf  172 -   172          7.078643371624          4.824352709374         -1.550137622491
      0.1612777588D+00  0.1000000000D+01
 Atom C22      Shell    63 S   6     bf  173 -   173          6.379280579741          7.415160982566          1.483437792213
      0.3047524880D+04  0.1834737132D-02
      0.4573695180D+03  0.1403732281D-01
      0.1039486850D+03  0.6884262226D-01
      0.2921015530D+02  0.2321844432D+00
      0.9286662960D+01  0.4679413484D+00
      0.3163926960D+01  0.3623119853D+00
 Atom C22      Shell    64 SP   3    bf  174 -   177          6.379280579741          7.415160982566          1.483437792213
      0.7868272350D+01 -0.1193324198D+00  0.6899906659D-01
      0.1881288540D+01 -0.1608541517D+00  0.3164239610D+00
      0.5442492580D+00  0.1143456438D+01  0.7443082909D+00
 Atom C22      Shell    65 SP   1    bf  178 -   181          6.379280579741          7.415160982566          1.483437792213
      0.1687144782D+00  0.1000000000D+01  0.1000000000D+01
 Atom C22      Shell    66 D   1     bf  182 -   187          6.379280579741          7.415160982566          1.483437792213
      0.8000000000D+00  0.1000000000D+01
 Atom H23      Shell    67 S   3     bf  188 -   188          6.396191852288          7.433144844769          3.552109481450
      0.1873113696D+02  0.3349460434D-01
      0.2825394365D+01  0.2347269535D+00
      0.6401216923D+00  0.8137573261D+00
 Atom H23      Shell    68 S   1     bf  189 -   189          6.396191852288          7.433144844769          3.552109481450
      0.1612777588D+00  0.1000000000D+01
 Atom H24      Shell    69 S   3     bf  190 -   190          4.392376622178          7.608754940010          0.930753936498
      0.1873113696D+02  0.3349460434D-01
      0.2825394365D+01  0.2347269535D+00
      0.6401216923D+00  0.8137573261D+00
 Atom H24      Shell    70 S   1     bf  191 -   191          4.392376622178          7.608754940010          0.930753936498
      0.1612777588D+00  0.1000000000D+01
 Atom C25      Shell    71 S   6     bf  192 -   192          7.834466078096          9.757338782140          0.538821391722
      0.3047524880D+04  0.1834737132D-02
      0.4573695180D+03  0.1403732281D-01
      0.1039486850D+03  0.6884262226D-01
      0.2921015530D+02  0.2321844432D+00
      0.9286662960D+01  0.4679413484D+00
      0.3163926960D+01  0.3623119853D+00
 Atom C25      Shell    72 SP   3    bf  193 -   196          7.834466078096          9.757338782140          0.538821391722
      0.7868272350D+01 -0.1193324198D+00  0.6899906659D-01
      0.1881288540D+01 -0.1608541517D+00  0.3164239610D+00
      0.5442492580D+00  0.1143456438D+01  0.7443082909D+00
 Atom C25      Shell    73 SP   1    bf  197 -   200          7.834466078096          9.757338782140          0.538821391722
      0.1687144782D+00  0.1000000000D+01  0.1000000000D+01
 Atom C25      Shell    74 D   1     bf  201 -   206          7.834466078096          9.757338782140          0.538821391722
      0.8000000000D+00  0.1000000000D+01
 Atom H26      Shell    75 S   3     bf  207 -   207          7.596738832935          9.943705009557         -1.516532868334
      0.1873113696D+02  0.3349460434D-01
      0.2825394365D+01  0.2347269535D+00
      0.6401216923D+00  0.8137573261D+00
 Atom H26      Shell    76 S   1     bf  208 -   208          7.596738832935          9.943705009557         -1.516532868334
      0.1612777588D+00  0.1000000000D+01
 Atom H27      Shell    77 S   3     bf  209 -   209          6.976619797812         11.438337048053          1.385107933792
      0.1873113696D+02  0.3349460434D-01
      0.2825394365D+01  0.2347269535D+00
      0.6401216923D+00  0.8137573261D+00
 Atom H27      Shell    78 S   1     bf  210 -   210          6.976619797812         11.438337048053          1.385107933792
      0.1612777588D+00  0.1000000000D+01
 Atom C28      Shell    79 S   6     bf  211 -   211         10.683467500544          9.573156378934          1.131791940919
      0.3047524880D+04  0.1834737132D-02
      0.4573695180D+03  0.1403732281D-01
      0.1039486850D+03  0.6884262226D-01
      0.2921015530D+02  0.2321844432D+00
      0.9286662960D+01  0.4679413484D+00
      0.3163926960D+01  0.3623119853D+00
 Atom C28      Shell    80 SP   3    bf  212 -   215         10.683467500544          9.573156378934          1.131791940919
      0.7868272350D+01 -0.1193324198D+00  0.6899906659D-01
      0.1881288540D+01 -0.1608541517D+00  0.3164239610D+00
      0.5442492580D+00  0.1143456438D+01  0.7443082909D+00
 Atom C28      Shell    81 SP   1    bf  216 -   219         10.683467500544          9.573156378934          1.131791940919
      0.1687144782D+00  0.1000000000D+01  0.1000000000D+01
 Atom C28      Shell    82 D   1     bf  220 -   225         10.683467500544          9.573156378934          1.131791940919
      0.8000000000D+00  0.1000000000D+01
 Atom C29      Shell    83 S   6     bf  226 -   226         11.624671528071          7.091230119299         -0.127076221176
      0.3047524880D+04  0.1834737132D-02
      0.4573695180D+03  0.1403732281D-01
      0.1039486850D+03  0.6884262226D-01
      0.2921015530D+02  0.2321844432D+00
      0.9286662960D+01  0.4679413484D+00
      0.3163926960D+01  0.3623119853D+00
 Atom C29      Shell    84 SP   3    bf  227 -   230         11.624671528071          7.091230119299         -0.127076221176
      0.7868272350D+01 -0.1193324198D+00  0.6899906659D-01
      0.1881288540D+01 -0.1608541517D+00  0.3164239610D+00
      0.5442492580D+00  0.1143456438D+01  0.7443082909D+00
 Atom C29      Shell    85 SP   1    bf  231 -   234         11.624671528071          7.091230119299         -0.127076221176
      0.1687144782D+00  0.1000000000D+01  0.1000000000D+01
 Atom C29      Shell    86 D   1     bf  235 -   240         11.624671528071          7.091230119299         -0.127076221176
      0.8000000000D+00  0.1000000000D+01
 Atom H30      Shell    87 S   3     bf  241 -   241         11.118391314843          7.271400785103         -2.132583530963
      0.1873113696D+02  0.3349460434D-01
      0.2825394365D+01  0.2347269535D+00
      0.6401216923D+00  0.8137573261D+00
 Atom H30      Shell    88 S   1     bf  242 -   242         11.118391314843          7.271400785103         -2.132583530963
      0.1612777588D+00  0.1000000000D+01
 Atom C31      Shell    89 S   6     bf  243 -   243         14.515951264166          7.260140644070          0.000000000000
      0.3047524880D+04  0.1834737132D-02
      0.4573695180D+03  0.1403732281D-01
      0.1039486850D+03  0.6884262226D-01
      0.2921015530D+02  0.2321844432D+00
      0.9286662960D+01  0.4679413484D+00
      0.3163926960D+01  0.3623119853D+00
 Atom C31      Shell    90 SP   3    bf  244 -   247         14.515951264166          7.260140644070          0.000000000000
      0.7868272350D+01 -0.1193324198D+00  0.6899906659D-01
      0.1881288540D+01 -0.1608541517D+00  0.3164239610D+00
      0.5442492580D+00  0.1143456438D+01  0.7443082909D+00
 Atom C31      Shell    91 SP   1    bf  248 -   251         14.515951264166          7.260140644070          0.000000000000
      0.1687144782D+00  0.1000000000D+01  0.1000000000D+01
 Atom C31      Shell    92 D   1     bf  252 -   257         14.515951264166          7.260140644070          0.000000000000
      0.8000000000D+00  0.1000000000D+01
 Atom H32      Shell    93 S   3     bf  258 -   258         15.423809222146          6.095294369526         -1.445385038479
      0.1873113696D+02  0.3349460434D-01
      0.2825394365D+01  0.2347269535D+00
      0.6401216923D+00  0.8137573261D+00
 Atom H32      Shell    94 S   1     bf  259 -   259         15.423809222146          6.095294369526         -1.445385038479
      0.1612777588D+00  0.1000000000D+01
 Atom H33      Shell    95 S   3     bf  260 -   260         15.216149333897          6.605414921995          1.839266722377
      0.1873113696D+02  0.3349460434D-01
      0.2825394365D+01  0.2347269535D+00
      0.6401216923D+00  0.8137573261D+00
 Atom H33      Shell    96 S   1     bf  261 -   261         15.216149333897          6.605414921995          1.839266722377
      0.1612777588D+00  0.1000000000D+01
 Atom C34      Shell    97 S   6     bf  262 -   262         15.050062230043         10.122165492109         -0.372093632915
      0.3047524880D+04  0.1834737132D-02
      0.4573695180D+03  0.1403732281D-01
      0.1039486850D+03  0.6884262226D-01
      0.2921015530D+02  0.2321844432D+00
      0.9286662960D+01  0.4679413484D+00
      0.3163926960D+01  0.3623119853D+00
 Atom C34      Shell    98 SP   3    bf  263 -   266         15.050062230043         10.122165492109         -0.372093632915
      0.7868272350D+01 -0.1193324198D+00  0.6899906659D-01
      0.1881288540D+01 -0.1608541517D+00  0.3164239610D+00
      0.5442492580D+00  0.1143456438D+01  0.7443082909D+00
 Atom C34      Shell    99 SP   1    bf  267 -   270         15.050062230043         10.122165492109         -0.372093632915
      0.1687144782D+00  0.1000000000D+01  0.1000000000D+01
 Atom C34      Shell   100 D   1     bf  271 -   276         15.050062230043         10.122165492109         -0.372093632915
      0.8000000000D+00  0.1000000000D+01
 Atom H35      Shell   101 S   3     bf  277 -   277         16.333553448060         10.832648717571          1.091862897005
      0.1873113696D+02  0.3349460434D-01
      0.2825394365D+01  0.2347269535D+00
      0.6401216923D+00  0.8137573261D+00
 Atom H35      Shell   102 S   1     bf  278 -   278         16.333553448060         10.832648717571          1.091862897005
      0.1612777588D+00  0.1000000000D+01
 Atom H36      Shell   103 S   3     bf  279 -   279         15.981029989053         10.473015617522         -2.183904221951
      0.1873113696D+02  0.3349460434D-01
      0.2825394365D+01  0.2347269535D+00
      0.6401216923D+00  0.8137573261D+00
 Atom H36      Shell   104 S   1     bf  280 -   280         15.981029989053         10.473015617522         -2.183904221951
      0.1612777588D+00  0.1000000000D+01
 Atom C37      Shell   105 S   6     bf  281 -   281         12.446646913517         11.529484265312         -0.231146632951
      0.3047524880D+04  0.1834737132D-02
      0.4573695180D+03  0.1403732281D-01
      0.1039486850D+03  0.6884262226D-01
      0.2921015530D+02  0.2321844432D+00
      0.9286662960D+01  0.4679413484D+00
      0.3163926960D+01  0.3623119853D+00
 Atom C37      Shell   106 SP   3    bf  282 -   285         12.446646913517         11.529484265312         -0.231146632951
      0.7868272350D+01 -0.1193324198D+00  0.6899906659D-01
      0.1881288540D+01 -0.1608541517D+00  0.3164239610D+00
      0.5442492580D+00  0.1143456438D+01  0.7443082909D+00
[...]
 1632 Fit       0.001030
 1633 Fit       0.001894
 1634 Fit       0.002127
 1635 Fit       0.001498
 1636 Fit      -0.003232
 1637 Fit      -0.002900
 1638 Fit      -0.003230
 1639 Fit      -0.002106
 1640 Fit      -0.001776
 1641 Fit       0.000165
 1642 Fit      -0.002403
 1643 Fit      -0.002197
 1644 Fit      -0.000224
 1645 Fit       0.001794
 1646 Fit       0.001819
 1647 Fit      -0.000422
 1648 Fit      -0.000680
 1649 Fit       0.001764
 1650 Fit       0.002128
 1651 Fit      -0.001117
 1652 Fit      -0.002256
 1653 Fit      -0.000549
 1654 Fit      -0.001641
 1655 Fit      -0.001892
 1656 Fit       0.000337
 1657 Fit       0.001395
 1658 Fit       0.000836
 1659 Fit      -0.001483
 1660 Fit      -0.002024
 1661 Fit       0.000261
 1662 Fit       0.001782
 1663 Fit       0.002306
 1664 Fit       0.000032
 1665 Fit       0.001500
 1666 Fit      -0.002597
 1667 Fit      -0.001603
 1668 Fit      -0.001092
 1669 Fit      -0.000379
 1670 Fit       0.000512
 1671 Fit       0.000398
 1672 Fit      -0.000246
 1673 Fit      -0.002426
 1674 Fit       0.001177
 1675 Fit       0.001760
 1676 Fit       0.001310
 1677 Fit      -0.000106
 1678 Fit       0.002089
 1679 Fit       0.001389
 1680 Fit      -0.000286
 1681 Fit       0.010439
 1682 Fit       0.006641
 1683 Fit       0.000112
 1684 Fit      -0.007860
 1685 Fit      -0.013711
 1686 Fit      -0.011482
 1687 Fit      -0.003253
 1688 Fit       0.005248
 1689 Fit       0.007198
 1690 Fit       0.006561
 1691 Fit       0.004619
 1692 Fit       0.000143
 1693 Fit      -0.002614
 1694 Fit       0.001719
 1695 Fit       0.003484
 1696 Fit       0.002158
 1697 Fit       0.006308
 1698 Fit       0.004026
 1699 Fit       0.003603
 1700 Fit       0.001789
 1701 Fit       0.003144
 1702 Fit       0.003411
 1703 Fit      -0.005669
 1704 Fit       0.000679
 1705 Fit       0.003664
 1706 Fit       0.005169
 1707 Fit      -0.010182
 1708 Fit      -0.000346
 1709 Fit       0.004252
 1710 Fit      -0.005864
 1711 Fit       0.002500
 1712 Fit       0.004653
 1713 Fit       0.008857
 1714 Fit       0.015923
 1715 Fit       0.010730
 1716 Fit       0.004206
 1717 Fit       0.013141
 1718 Fit       0.008058
 1719 Fit       0.005838
 1720 Fit       0.005008
 1721 Fit       0.004799
 1722 Fit       0.003755
 1723 Fit       0.004111
 1724 Fit       0.004467
 1725 Fit       0.004843
 1726 Fit       0.002541
 1727 Fit       0.002950
 1728 Fit       0.004157
 1729 Fit       0.004745
 1730 Fit       0.005717
 1731 Fit       0.006069
 1732 Fit       0.004635
 1733 Fit       0.009241
 1734 Fit       0.008689
 1735 Fit       0.008468
 1736 Fit       0.007834
 1737 Fit       0.007212
 1738 Fit       0.007426
 1739 Fit       0.006710
 1740 Fit       0.006513
 1741 Fit       0.005660
 1742 Fit       0.007117
 1743 Fit       0.005993
 1744 Fit       0.006189
 1745 Fit       0.005998
 1746 Fit      -0.001189
 1747 Fit       0.010888
 1748 Fit       0.012471
 1749 Fit       0.017625
 1750 Fit       0.009151
 1751 Fit       0.009046
 1752 Fit       0.011205
 1753 Fit       0.018652
 1754 Fit       0.006293
 1755 Fit       0.008224
 1756 Fit       0.006241
 1757 Fit       0.004748
 1758 Fit       0.002948
 1759 Fit      -0.000473
 1760 Fit       0.005536
 1761 Fit       0.004349
 1762 Fit       0.002159
 1763 Fit      -0.002550
 1764 Fit       0.004685
 1765 Fit       0.003098
 1766 Fit      -0.000636
 1767 Fit      -0.008760
 1768 Fit       0.004244
 1769 Fit       0.001541
 1770 Fit      -0.003096
 1771 Fit       0.003088
 1772 Fit       0.001613
 1773 Fit      -0.000624
 1774 Fit       0.003101
 1775 Fit      -0.000144
 1776 Fit       0.000107
 1777 Fit       0.001301
 1778 Fit       0.003212
 1779 Fit       0.001580
 1780 Fit       0.005557
 1781 Fit       0.003275
 1782 Fit       0.000296
 1783 Fit       0.006114
 1784 Fit       0.002948
 1785 Fit      -0.003518
 1786 Fit       0.008651
 1787 Fit       0.006412
 1788 Fit       0.004760
 1789 Fit       0.003897
 1790 Fit       0.001883
 1791 Fit       0.002008
 1792 Fit       0.001994
 1793 Fit      -0.002515
 1794 Fit      -0.001507
 1795 Fit      -0.002172
 1796 Fit      -0.009395
 1797 Fit      -0.010609
 1798 Fit      -0.010565
 1799 Fit       0.006925
 1800 Fit       0.005356
 1801 Fit       0.006125
 1802 Fit       0.002126
 1803 Fit      -0.008259
 1804 Fit      -0.001147
 1805 Fit       0.001427
 1806 Fit      -0.000367
 1807 Fit      -0.006257
 1808 Fit       0.004688
 1809 Fit       0.006935
 1810 Fit       0.006068
 1811 Fit       0.004783
 1812 Fit       0.005428
 1813 Fit       0.007407
 1814 Fit       0.007072
 1815 Fit       0.004364
 1816 Fit       0.006259
 1817 Fit       0.003794
 1818 Fit       0.005754
 1819 Fit       0.003325
 1820 Fit       0.005131
 1821 Fit       0.002575
 1822 Fit       0.004023
 1823 Fit       0.000205
 1824 Fit       0.001919
 1825 Fit       0.000833
 1826 Fit       0.000637
 1827 Fit       0.001274
 1828 Fit       0.001971
 1829 Fit       0.000285
 1830 Fit       0.000708
 1831 Fit       0.000851
 1832 Fit      -0.000732
 1833 Fit      -0.000557
 1834 Fit       0.004915
 1835 Fit       0.004619
 1836 Fit       0.004423
 1837 Fit       0.002556
 1838 Fit       0.003346
 1839 Fit       0.000625
 1840 Fit       0.001860
 1841 Fit      -0.000386
 1842 Fit      -0.017545
 1843 Fit      -0.008122
 1844 Fit      -0.005474
 1845 Fit      -0.009473
 1846 Fit      -0.014498
 1847 Fit      -0.004358
 1848 Fit      -0.004615
 1849 Fit      -0.004849
 1850 Fit      -0.006005
 1851 Fit      -0.007356
 1852 Fit      -0.006681
 1853 Fit      -0.007140
 1854 Fit      -0.014089
 1855 Fit      -0.009107
 1856 Fit      -0.009085
 1857 Fit      -0.014250
 1858 Fit      -0.013193
 1859 Fit      -0.020124
 1860 Fit       0.003071
 1861 Fit       0.005219
 1862 Fit       0.003645
 1863 Fit       0.001014
 1864 Fit       0.002163
 1865 Fit       0.002859
 1866 Fit       0.001292
 1867 Fit      -0.001865
 1868 Fit      -0.000496
 1869 Fit      -0.001762
 1870 Fit      -0.004341
 1871 Fit      -0.003950
 1872 Fit      -0.001955
 1873 Fit      -0.005608
 1874 Fit       0.002766
 1875 Fit       0.003025
 1876 Fit       0.001183
 1877 Fit       0.001791
 1878 Fit       0.000632
 1879 Fit      -0.000604
 1880 Fit       0.000484
 1881 Fit      -0.001897
 1882 Fit      -0.002583
 1883 Fit      -0.000706
 1884 Fit      -0.003315
 1885 Fit      -0.001596
 1886 Fit      -0.005320
 1887 Fit      -0.003147
 1888 Fit      -0.001971
 1889 Fit      -0.005617
 1890 Fit      -0.003654
 1891 Fit      -0.002824
 1892 Fit      -0.003383
 1893 Fit      -0.005175
 1894 Fit      -0.008901
 1895 Fit      -0.006925
 1896 Fit      -0.004608
 1897 Fit      -0.003550
 1898 Fit      -0.001763
 1899 Fit      -0.000387
 1900 Fit      -0.000819
 1901 Fit      -0.003784
 1902 Fit      -0.005681
 1903 Fit      -0.002443
 1904 Fit       0.001100
 1905 Fit       0.000759
 1906 Fit       0.000527
 1907 Fit       0.002151
 1908 Fit       0.001858
 1909 Fit       0.004493
 1910 Fit       0.002946
 1911 Fit       0.004547
 1912 Fit       0.006051
 1913 Fit       0.004531
 1914 Fit       0.005188
 1915 Fit       0.007150
 1916 Fit       0.001883
 1917 Fit       0.000823
 1918 Fit       0.001863
 1919 Fit       0.003001
 1920 Fit       0.002457
 1921 Fit       0.001347
 1922 Fit       0.003174
 1923 Fit       0.003115
 1924 Fit       0.003462
 1925 Fit       0.001286
 1926 Fit       0.001500
 1927 Fit       0.002687
 1928 Fit       0.002629
 1929 Fit       0.001700
 1930 Fit       0.002806
 1931 Fit       0.003989
 1932 Fit       0.004113
 1933 Fit       0.004914
 1934 Fit       0.001302
 1935 Fit       0.002023
 1936 Fit       0.001601
 1937 Fit       0.001103
 1938 Fit       0.002343
 1939 Fit       0.000095
 1940 Fit       0.001871
 1941 Fit       0.000311
 1942 Fit       0.000526
 1943 Fit       0.000096
 1944 Fit      -0.000371
 1945 Fit      -0.001004
 1946 Fit       0.000088
 1947 Fit      -0.001233
 1948 Fit      -0.001354
 1949 Fit      -0.000701
 1950 Fit      -0.000657
 1951 Fit      -0.001252
 1952 Fit      -0.000936
 1953 Fit      -0.000309
 1954 Fit       0.000020
 1955 Fit      -0.000337
 1956 Fit       0.000241
 1957 Fit       0.000737
 1958 Fit       0.000649
 1959 Fit       0.000846
 1960 Fit       0.001175
 1961 Fit       0.001075
 1962 Fit       0.001090
 1963 Fit       0.000969
 1964 Fit       0.000756
 1965 Fit       0.002289
 1966 Fit       0.002115
 1967 Fit       0.000857
 1968 Fit       0.002367
 1969 Fit       0.000760
 1970 Fit       0.001627
 1971 Fit      -0.000050
 1972 Fit       0.001883
 1973 Fit       0.004245
 1974 Fit       0.000824
 1975 Fit       0.003036
 1976 Fit       0.005303
 1977 Fit       0.001060
 1978 Fit       0.003660
 1979 Fit       0.005423
 1980 Fit       0.005339
 1981 Fit       0.005556
 1982 Fit       0.006281
 1983 Fit       0.005982
 1984 Fit       0.006242
 1985 Fit       0.008603
 1986 Fit       0.010441
 1987 Fit       0.004918
 1988 Fit       0.005969
 1989 Fit       0.006765
 1990 Fit       0.006939
 1991 Fit       0.007486
 1992 Fit       0.007881
 1993 Fit       0.008086
 1994 Fit       0.008345
 1995 Fit       0.008325
 1996 Fit       0.009008
 1997 Fit       0.009177
 1998 Fit       0.008788
 1999 Fit       0.010614
 2000 Fit       0.008500
 2001 Fit       0.012830
 2002 Fit       0.015931
 2003 Fit       0.015059
 2004 Fit       0.010772
 2005 Fit       0.005558
 2006 Fit       0.006443
 2007 Fit       0.006350
 2008 Fit       0.005749
 2009 Fit       0.007439
 2010 Fit       0.005364
 2011 Fit       0.005929
 2012 Fit       0.002832
 2013 Fit       0.005592
 2014 Fit      -0.000181
 2015 Fit      -0.022884
 2016 Fit      -0.018495
 2017 Fit      -0.014854
 2018 Fit      -0.010635
 2019 Fit      -0.003150
 2020 Fit      -0.014458
 2021 Fit      -0.017671
 2022 Fit      -0.004653
 2023 Fit      -0.012136
 2024 Fit      -0.016309
 2025 Fit      -0.021211
 2026 Fit      -0.022017
 2027 Fit       0.002611
 2028 Fit      -0.006291
 2029 Fit      -0.013318
 2030 Fit      -0.018312
 2031 Fit      -0.021389
 2032 Fit      -0.024013
 2033 Fit      -0.025318
 2034 Fit       0.000792
 2035 Fit      -0.008931
 2036 Fit      -0.016374
 2037 Fit      -0.018472
 2038 Fit      -0.022134
 2039 Fit      -0.023028
 2040 Fit      -0.021395
 2041 Fit      -0.001637
 2042 Fit      -0.011563
 2043 Fit      -0.012354
 2044 Fit      -0.015228
 2045 Fit      -0.007669
 2046 Fit      -0.001057
 2047 Fit      -0.003120
 2048 Fit       0.013185
 2049 Fit       0.011346
 2050 Fit       0.015631
 2051 Fit       0.016618
 2052 Fit       0.015060
 2053 Fit       0.010065
 2054 Fit      -0.000992
 2055 Fit       0.009587
 2056 Fit       0.015449
 2057 Fit       0.016961
 2058 Fit       0.014879
 2059 Fit       0.008887
 2060 Fit       0.002549
 2061 Fit       0.011515
 2062 Fit       0.013618
 2063 Fit       0.008020
 2064 Fit       0.006432
 2065 Fit       0.001394
 2066 Fit      -0.000191
 2067 Fit      -0.002402
 2068 Fit      -0.004214
 2069 Fit      -0.005378
 2070 Fit      -0.004088
 2071 Fit      -0.009269
 2072 Fit      -0.012257
 2073 Fit      -0.013555
 2074 Fit      -0.014400
 2075 Fit      -0.015316
 2076 Fit      -0.015880
 2077 Fit      -0.014819
 2078 Fit      -0.014528
 2079 Fit      -0.019267
 2080 Fit      -0.021242
 2081 Fit      -0.022064
 2082 Fit      -0.022168
 2083 Fit      -0.020677
 2084 Fit      -0.015720
 2085 Fit      -0.018918
 2086 Fit      -0.022784
 2087 Fit      -0.023949
 2088 Fit      -0.022988
 2089 Fit      -0.018961
 2090 Fit      -0.010575
 2091 Fit      -0.016347
 2092 Fit      -0.020109
 2093 Fit      -0.015830
 2094 Fit       0.023444
 2095 Fit       0.024276
 2096 Fit       0.020872
 2097 Fit       0.019304
 2098 Fit       0.019505
 2099 Fit       0.016116
 2100 Fit       0.014385
 2101 Fit       0.013253
 2102 Fit       0.012300
 2103 Fit       0.012000
 2104 Fit       0.005444
 2105 Fit       0.004330
 2106 Fit       0.003359
 2107 Fit       0.002038
 2108 Fit       0.000673
 2109 Fit       0.000640
 2110 Fit      -0.000764
 2111 Fit      -0.001133
 2112 Fit      -0.003273
 2113 Fit      -0.000322
 2114 Fit       0.000487
 2115 Fit       0.000733
 2116 Fit       0.000767
 2117 Fit      -0.002636
 2118 Fit       0.000197
 2119 Fit       0.000048
 2120 Fit      -0.001259
 2121 Fit      -0.002720
 2122 Fit      -0.001056
 2123 Fit       0.002034
 2124 Fit       0.000906
 2125 Fit      -0.000441
 2126 Fit       0.001908
 2127 Fit       0.001857
 2128 Fit       0.001016
 2129 Fit       0.001973
 2130 Fit       0.002114
 2131 Fit       0.001088
 2132 Fit       0.001208
 2133 Fit       0.000383
 2134 Fit      -0.002174
 2135 Fit      -0.003711
 2136 Fit      -0.000181
 2137 Fit       0.000993
 2138 Fit      -0.001527
 2139 Fit      -0.000237
 2140 Fit       0.000696
 2141 Fit       0.000442
 2142 Fit      -0.000911
 2143 Fit      -0.002041
 2144 Fit      -0.000395
 2145 Fit       0.000688
 2146 Fit       0.000664
 2147 Fit       0.001102
 2148 Fit       0.000160
 2149 Fit      -0.000059
 2150 Fit       0.000260
 2151 Fit      -0.000972
 2152 Fit      -0.001632
 2153 Fit      -0.001004
 2154 Fit      -0.002443
 2155 Fit      -0.002953
 2156 Fit       0.000327
 2157 Fit      -0.000181
 2158 Fit       0.000138
 2159 Fit       0.000282
 2160 Fit      -0.000089
 2161 Fit      -0.000358
 2162 Fit       0.000116
 2163 Fit       0.000395
 2164 Fit       0.000116
 2165 Fit      -0.000883
 2166 Fit      -0.000593
 2167 Fit      -0.000101
 2168 Fit       0.000048
 2169 Fit      -0.000343
 2170 Fit      -0.001283
 2171 Fit      -0.000453
 2172 Fit      -0.001965
 2173 Fit      -0.002331
 2174 Fit      -0.002053
 2175 Fit      -0.002360
 2176 Fit      -0.002075
 2177 Fit      -0.001459
 2178 Fit      -0.000593
 2179 Fit      -0.001873
 2180 Fit      -0.001509
 2181 Fit       0.000706
 2182 Fit      -0.001505
 2183 Fit      -0.000013
 2184 Fit       0.001592
 2185 Fit       0.001951
 2186 Fit      -0.000384
 2187 Fit       0.001217
 2188 Fit       0.002640
 2189 Fit      -0.001663
 2190 Fit      -0.000166
 2191 Fit       0.001445
 2192 Fit      -0.000055
 2193 Fit      -0.000356
 2194 Fit      -0.001416
 2195 Fit       0.001065
 2196 Fit       0.000056
 2197 Fit      -0.001454
 2198 Fit       0.001693
 2199 Fit       0.001156
 2200 Fit       0.000079
 2201 Fit      -0.001452
 2202 Fit       0.000971
 2203 Fit       0.001051
 2204 Fit       0.000627
 2205 Fit      -0.000406
 2206 Fit      -0.001889
 2207 Fit      -0.000201
 2208 Fit      -0.000385
 2209 Fit      -0.001217
 2210 Fit      -0.001286
 2211 Fit      -0.000627
 2212 Fit      -0.000205
 2213 Fit      -0.000050
 2214 Fit      -0.001321
 2215 Fit      -0.000703
 2216 Fit       0.000116
 2217 Fit       0.000727
 2218 Fit       0.000973
 2219 Fit       0.000109
 2220 Fit       0.000020
 2221 Fit       0.000735
 2222 Fit       0.001362
 2223 Fit       0.001608
 2224 Fit       0.001037
 2225 Fit      -0.002338
 2226 Fit      -0.002117
 2227 Fit      -0.001631
 2228 Fit      -0.002452
 2229 Fit      -0.001473
 2230 Fit      -0.002065
 2231 Fit      -0.002176
 2232 Fit      -0.002083
 2233 Fit      -0.001540
 2234 Fit      -0.001068
 2235 Fit      -0.001080
 2236 Fit       0.000052
 2237 Fit      -0.001682
 2238 Fit      -0.001531
 2239 Fit      -0.000161
 2240 Fit       0.001259
 2241 Fit       0.001293
 2242 Fit      -0.000259
 2243 Fit      -0.000315
 2244 Fit       0.001361
 2245 Fit       0.001862
 2246 Fit       0.001555
 2247 Fit      -0.000543
 2248 Fit      -0.002003
 2249 Fit      -0.000857
 2250 Fit      -0.001493
 2251 Fit      -0.001682
 2252 Fit      -0.000150
 2253 Fit       0.000591
 2254 Fit       0.000176
 2255 Fit      -0.001370
 2256 Fit      -0.001617
 2257 Fit      -0.000048
 2258 Fit       0.001089
 2259 Fit       0.001508
 2260 Fit       0.001186
 2261 Fit      -0.000170
 2262 Fit       0.001050
 2263 Fit       0.001790
 2264 Fit      -0.000157
 2265 Fit       0.000906
 2266 Fit      -0.001331
 2267 Fit      -0.000412
 2268 Fit      -0.000079
 2269 Fit      -0.000275
 2270 Fit      -0.000594
 2271 Fit       0.000741
 2272 Fit       0.000950
 2273 Fit       0.000520
 2274 Fit      -0.000270
 2275 Fit       0.001312
 2276 Fit       0.001320
 2277 Fit       0.000827
 2278 Fit      -0.000254
 2279 Fit       0.000785
 -----------------------------------------------------------------
 Leave Link  602 at Wed Apr 26 13:29:21 2017, MaxMem=    33554432 cpu:         3.5
 (Enter /home/michal/g09/l9999.exe)

 Test job not archived.
 1\1\GINC-LINUX\SP\RHF\6-31G(d)\C27H46O3\MICHAL\26-Apr-2017\0\\#P HF/6-
 31G* SCF(Conver=6) NoSymm Test Pop=mk IOp(6/33=2) GFInput GFPrint\\MEP
  - Input generated by R.E.D.-III.x MOLECULE\\0,1\C,0,1.7583886,-1.2490
 1054,0.05034358\H,0,1.88301252,-1.20520058,-1.03859832\C,0,3.14684215,
 -1.26352692,0.70928389\H,0,3.72607503,-2.11093646,0.32956481\H,0,3.003
 64469,-1.43757371,1.78739333\C,0,3.905756,0.03214635,0.48901394\C,0,3.
 17390601,1.32971973,0.85403564\C,0,1.74426642,1.27197513,0.2321802\H,0
 ,1.83928628,1.3902321,-0.85580833\H,0,1.15963191,2.12738179,0.58755967
 \C,0,0.96850842,-0.02444794,0.51219519\H,0,0.75372152,-0.12028838,1.58
 683623\H,0,0.,0.,0.\C,0,5.15507997,0.,0.\H,0,5.60562852,-0.96204481,-0
 .23707024\C,0,6.00410189,1.2109694,-0.25898226\H,0,7.03676391,1.023932
 22,0.06172373\C,0,5.46454394,2.47401428,0.43665761\H,0,5.70334309,2.33
 655434,1.50075186\C,0,3.92603325,2.57486453,0.26454022\H,0,3.74585674,
 2.5529375,-0.8202975\C,0,3.37576989,3.92393419,0.78500147\H,0,3.384718
 95,3.93345084,1.87969538\H,0,2.3243456,4.0263797,0.49253377\C,0,4.1458
 2089,5.1633613,0.285132\H,0,4.02002105,5.26198206,-0.80251463\H,0,3.69
 186819,6.05290727,0.73296755\C,0,5.65344751,5.06589617,0.5989185\C,0,6
 .15151123,3.75251736,-0.06724584\H,0,5.88359928,3.84785957,-1.1285146\
 C,0,7.68151057,3.84190096,0.\H,0,8.16192831,3.22549086,-0.76486482\H,0
 ,8.05203943,3.49543503,0.97329803\C,0,7.96414992,5.35641928,-0.1969034
 7\H,0,8.64334422,5.73239081,0.57778896\H,0,8.45679684,5.54208117,-1.15
 567234\C,0,6.58648187,6.1011403,-0.12231753\H,0,6.19728927,6.19670425,
 -1.1483655\C,0,5.90284637,5.09338707,2.12431537\H,0,5.44018015,4.24736
 865,2.63917422\H,0,6.97030966,5.07101356,2.36356898\H,0,5.48934823,6.0
 0473617,2.56876634\C,0,6.7178574,7.54047246,0.44065581\H,0,7.17121854,
 7.46946238,1.44133348\C,0,5.3667676,8.26389615,0.58136407\H,0,4.831596
 66,8.2832812,-0.37643742\H,0,5.50379436,9.3000171,0.90474211\H,0,4.716
 17375,7.7854366,1.31677262\C,0,3.06637415,1.40631779,2.40188826\H,0,2.
 38504521,2.20312048,2.71461758\H,0,2.68681092,0.47427655,2.8273113\H,0
 ,4.04357855,1.59290108,2.85803602\O,0,6.06366829,1.51116308,-1.6808111
 2\O,0,6.80547083,0.43863882,-2.32684295\H,0,6.09331382,-0.01372636,-2.
 80861222\O,0,1.05393672,-2.47346478,0.27175859\H,0,0.88445364,-2.56677
 922,1.21977208\C,0,7.6839418,8.37245932,-0.43940731\H,0,8.58827703,7.7
 8657493,-0.63879955\H,0,7.2107506,8.5420237,-1.41895582\C,0,8.12390091
 ,9.7217172,0.15285501\H,0,7.25519139,10.37481335,0.29319732\H,0,8.5458
 9999,9.54748027,1.15210204\C,0,9.15899708,10.43289136,-0.73422446\H,0,
 8.72901779,10.56449132,-1.73779709\H,0,10.02697497,9.77006327,-0.86236
 116\C,0,9.66722807,11.80761155,-0.24070469\H,0,10.39385634,12.1476775,
 -0.99347042\C,0,8.55313156,12.86591819,-0.18011657\H,0,7.81495319,12.6
 3272237,0.59593178\H,0,8.96676979,13.85447341,0.04997369\H,0,8.0213861
 1,12.9408551,-1.13601204\C,0,10.41560376,11.71638047,1.09954822\H,0,9.
 74290616,11.4423581,1.92046672\H,0,10.87088801,12.67923047,1.358225\H,
 0,11.21631632,10.96846324,1.05950295\\Version=EM64L-G09RevD.01\HF=-127
 3.6833143\RMSD=5.597e-07\Dipole=-0.484802,0.1730458,0.8213702\Quadrupo
 le=-8.2575232,1.0762464,7.1812768,-3.5608465,6.0608691,0.0542859\PG=C0
 1 [X(C27H46O3)]\\@


 EVERY WORD THAT YOU WRITE IS A BLOW THAT SMITES THE DEVIL.
     -- ST. BERNARD OF CLAIRVAUX
 Job cpu time:       0 days  0 hours 11 minutes 21.4 seconds.
 File lengths (MBytes):  RWF=    159 Int=      0 D2E=      0 Chk=     11 Scr=      1
 Normal termination of Gaussian 09 at Wed Apr 26 13:29:21 2017.
