 Entering Gaussian System, Link 0=/home/michal/g09/g09
 Input=JOB2-gau_m1-23-4.com
 Output=JOB2-gau_m1-23-4.log
 Initial command:
 /home/michal/g09/l1.exe "/home/michal/gauss_scratch/Gau-16678.inp" -scrdir="/home/michal/gauss_scratch/"
 Entering Link 1 = /home/michal/g09/l1.exe PID=     16679.
  
 Copyright (c) 1988,1990,1992,1993,1995,1998,2003,2009,2013,
            Gaussian, Inc.  All Rights Reserved.
  
 This is part of the Gaussian(R) 09 program.  It is based on
 the Gaussian(R) 03 system (copyright 2003, Gaussian, Inc.),
 the Gaussian(R) 98 system (copyright 1998, Gaussian, Inc.),
 the Gaussian(R) 94 system (copyright 1995, Gaussian, Inc.),
 the Gaussian 92(TM) system (copyright 1992, Gaussian, Inc.),
 the Gaussian 90(TM) system (copyright 1990, Gaussian, Inc.),
 the Gaussian 88(TM) system (copyright 1988, Gaussian, Inc.),
 the Gaussian 86(TM) system (copyright 1986, Carnegie Mellon
 University), and the Gaussian 82(TM) system (copyright 1983,
 Carnegie Mellon University). Gaussian is a federally registered
 trademark of Gaussian, Inc.
  
 This software contains proprietary and confidential information,
 including trade secrets, belonging to Gaussian, Inc.
  
 This software is provided under written license and may be
 used, copied, transmitted, or stored only in accord with that
 written license.
  
 The following legend is applicable only to US Government
 contracts under FAR:
  
                    RESTRICTED RIGHTS LEGEND
  
 Use, reproduction and disclosure by the US Government is
 subject to restrictions as set forth in subparagraphs (a)
 and (c) of the Commercial Computer Software - Restricted
 Rights clause in FAR 52.227-19.
  
 Gaussian, Inc.
 340 Quinnipiac St., Bldg. 40, Wallingford CT 06492
  
  
 ---------------------------------------------------------------
 Warning -- This program may not be used in any manner that
 competes with the business of Gaussian, Inc. or will provide
 assistance to any competitor of Gaussian, Inc.  The licensee
 of this program is prohibited from giving any competitor of
 Gaussian, Inc. access to this program.  By using this program,
 the user acknowledges that Gaussian, Inc. is engaged in the
 business of creating and licensing software in the field of
 computational chemistry and represents and warrants to the
 licensee that it is not a competitor of Gaussian, Inc. and that
 it will not use this program in any manner prohibited above.
 ---------------------------------------------------------------
  

 Cite this work as:
 Gaussian 09, Revision D.01,
 M. J. Frisch, G. W. Trucks, H. B. Schlegel, G. E. Scuseria, 
 M. A. Robb, J. R. Cheeseman, G. Scalmani, V. Barone, B. Mennucci, 
 G. A. Petersson, H. Nakatsuji, M. Caricato, X. Li, H. P. Hratchian, 
 A. F. Izmaylov, J. Bloino, G. Zheng, J. L. Sonnenberg, M. Hada, 
 M. Ehara, K. Toyota, R. Fukuda, J. Hasegawa, M. Ishida, T. Nakajima, 
 Y. Honda, O. Kitao, H. Nakai, T. Vreven, J. A. Montgomery, Jr., 
 J. E. Peralta, F. Ogliaro, M. Bearpark, J. J. Heyd, E. Brothers, 
 K. N. Kudin, V. N. Staroverov, T. Keith, R. Kobayashi, J. Normand, 
 K. Raghavachari, A. Rendell, J. C. Burant, S. S. Iyengar, J. Tomasi, 
 M. Cossi, N. Rega, J. M. Millam, M. Klene, J. E. Knox, J. B. Cross, 
 V. Bakken, C. Adamo, J. Jaramillo, R. Gomperts, R. E. Stratmann, 
 O. Yazyev, A. J. Austin, R. Cammi, C. Pomelli, J. W. Ochterski, 
 R. L. Martin, K. Morokuma, V. G. Zakrzewski, G. A. Voth, 
 P. Salvador, J. J. Dannenberg, S. Dapprich, A. D. Daniels, 
 O. Farkas, J. B. Foresman, J. V. Ortiz, J. Cioslowski, 
 and D. J. Fox, Gaussian, Inc., Wallingford CT, 2013.
 
 ******************************************
 Gaussian 09:  EM64L-G09RevD.01 24-Apr-2013
                26-Apr-2017 
 ******************************************
 %Mem=256MB
 %NProc=12
 Will use up to   12 processors via shared memory.
 ----------------------------------------------------------------------
 #P HF/6-31G* SCF(Conver=6) NoSymm Test Pop=mk IOp(6/33=2) GFInput GFPr
 int
 ----------------------------------------------------------------------
 1/38=1/1;
 2/12=2,15=1,17=6,18=5,40=1/2;
 3/5=1,6=6,7=1,11=9,16=1,24=110,25=1,30=1/1,2,3;
 4//1;
 5/5=2,6=6,38=5/2;
 6/7=2,8=2,9=2,10=2,15=8,20=1,28=1,33=2/1,2;
 99/5=1,9=1/99;
 Leave Link    1 at Wed Apr 26 14:56:59 2017, MaxMem=    33554432 cpu:         0.9
 (Enter /home/michal/g09/l101.exe)
 ----------------------------------------------
 MEP - Input generated by R.E.D.-III.x MOLECULE
 ----------------------------------------------
 Symbolic Z-matrix:
 Charge =  0 Multiplicity = 1
 C                     1.01492  -0.8852   -1.68549 
 H                     1.14641   0.08456  -2.18101 
 C                     2.25025  -1.7565   -1.96279 
 H                     2.38951  -1.86543  -3.04285 
 H                     2.04426  -2.76405  -1.56841 
 C                     3.50837  -1.19664  -1.32488 
 C                     3.43398  -0.86571   0.17099 
 C                     2.12889  -0.04909   0.42357 
 H                     2.26599   0.95517   0. 
 H                     1.98839   0.08517   1.50157 
 C                     0.8557   -0.66002  -0.18192 
 H                     0.62116  -1.61975   0.3019 
 H                     0.        0.        0. 
 C                     4.61156  -1.01807  -2.06796 
 H                     4.58433  -1.27529  -3.12523 
 C                     5.9126   -0.47491  -1.55159 
 H                     6.75252  -1.04114  -1.97366 
 C                     5.99432  -0.49178  -0.01437 
 H                     6.14596  -1.54758   0.25097 
 C                     4.66313   0.00796   0.60622 
 H                     4.49211   1.00682   0.17866 
 C                     4.77389   0.18762   2.13896 
 H                     4.78375  -0.79086   2.62985 
 H                     3.88018   0.70134   2.5116 
 C                     6.01831   0.97256   2.60229 
 H                     5.95242   2.01124   2.24835 
 H                     6.00887   1.01529   3.69586 
 C                     7.32232   0.35051   2.0607 
 C                     7.18105   0.32928   0.51261 
 H                     6.98509   1.37189   0.22689 
 C                     8.58901   0.        0. 
 H                     8.74397   0.34975  -1.02442 
 H                     8.76324  -1.08365   0.00072 
 C                     9.52083   0.71435   1.0168 
 H                     10.2901   0.02785   1.39035 
 H                     10.05217   1.54692   0.54673 
 C                     8.62211   1.21928   2.1977 
 H                     8.31985   2.25467   1.97399 
 C                     7.55414  -1.05551   2.65945 
 H                     6.75908  -1.75864   2.39793 
 H                     8.49668  -1.49379   2.31766 
 H                     7.59468  -1.00921   3.75278 
 C                     9.38324   1.25908   3.54931 
 H                     9.74302   0.24087   3.75585 
 C                     8.50254   1.69847   4.73156 
 H                     8.05653   2.68365   4.54487 
 H                     9.08436   1.76953   5.65544 
 H                     7.68917   0.99522   4.92285 
 C                     3.37331  -2.20201   0.96082 
 H                     3.1223   -2.0319    2.01199 
 H                     2.61594  -2.87715   0.55542 
 H                     4.33045  -2.73099   0.91869 
 O                     6.10054   0.90723  -1.96359 
 O                     6.28218   0.91603  -3.40742 
 H                     5.4415    1.30792  -3.69658 
 O                    -0.16261  -1.42807  -2.28816 
 H                    -0.35592  -2.28238  -1.87713 
 C                     10.62186   2.18326   3.42493 
 H                     11.20861   1.88114   2.55117 
 H                     10.2677   3.20211   3.20789 
 C                     11.56439   2.2533    4.64344 
 H                     12.366    2.96428   4.40588 
 H                     11.03662   2.6923    5.49895 
 C                     12.18477   0.91803   5.09686 
 H                     11.38586   0.24357   5.43391 
 H                     12.80525   1.11052   5.98476 
 C                     13.04832   0.16886   4.05986 
 H                     12.42695  -0.03331   3.17552 
 C                     14.26297   0.99193   3.60195 
 H                     14.90695   1.2425    4.45507 
 H                     14.8689   0.42843   2.88333 
 H                     13.96902   1.92977   3.11978 
 C                     13.49913  -1.18771   4.62511 
 H                     14.13112  -1.051     5.51208 
 H                     14.08003  -1.75363   3.88785 
 H                     12.64126  -1.80297   4.9203 
 
 NAtoms=     76 NQM=       76 NQMF=       0 NMMI=      0 NMMIF=      0
                NMic=       0 NMicF=      0.
                    Isotopes and Nuclear Properties:
 (Nuclear quadrupole moments (NQMom) in fm**2, nuclear magnetic moments (NMagM)
  in nuclear magnetons)

  Atom         1           2           3           4           5           6           7           8           9          10
 IAtWgt=          12           1          12           1           1          12          12          12           1           1
 AtmWgt=  12.0000000   1.0078250  12.0000000   1.0078250   1.0078250  12.0000000  12.0000000  12.0000000   1.0078250   1.0078250
 NucSpn=           0           1           0           1           1           0           0           0           1           1
 AtZEff=   0.0000000   0.0000000   0.0000000   0.0000000   0.0000000   0.0000000   0.0000000   0.0000000   0.0000000   0.0000000
 NQMom=    0.0000000   0.0000000   0.0000000   0.0000000   0.0000000   0.0000000   0.0000000   0.0000000   0.0000000   0.0000000
 NMagM=    0.0000000   2.7928460   0.0000000   2.7928460   2.7928460   0.0000000   0.0000000   0.0000000   2.7928460   2.7928460
 AtZNuc=   6.0000000   1.0000000   6.0000000   1.0000000   1.0000000   6.0000000   6.0000000   6.0000000   1.0000000   1.0000000

  Atom        11          12          13          14          15          16          17          18          19          20
 IAtWgt=          12           1           1          12           1          12           1          12           1          12
 AtmWgt=  12.0000000   1.0078250   1.0078250  12.0000000   1.0078250  12.0000000   1.0078250  12.0000000   1.0078250  12.0000000
 NucSpn=           0           1           1           0           1           0           1           0           1           0
 AtZEff=   0.0000000   0.0000000   0.0000000   0.0000000   0.0000000   0.0000000   0.0000000   0.0000000   0.0000000   0.0000000
 NQMom=    0.0000000   0.0000000   0.0000000   0.0000000   0.0000000   0.0000000   0.0000000   0.0000000   0.0000000   0.0000000
 NMagM=    0.0000000   2.7928460   2.7928460   0.0000000   2.7928460   0.0000000   2.7928460   0.0000000   2.7928460   0.0000000
 AtZNuc=   6.0000000   1.0000000   1.0000000   6.0000000   1.0000000   6.0000000   1.0000000   6.0000000   1.0000000   6.0000000

  Atom        21          22          23          24          25          26          27          28          29          30
 IAtWgt=           1          12           1           1          12           1           1          12          12           1
 AtmWgt=   1.0078250  12.0000000   1.0078250   1.0078250  12.0000000   1.0078250   1.0078250  12.0000000  12.0000000   1.0078250
 NucSpn=           1           0           1           1           0           1           1           0           0           1
 AtZEff=   0.0000000   0.0000000   0.0000000   0.0000000   0.0000000   0.0000000   0.0000000   0.0000000   0.0000000   0.0000000
 NQMom=    0.0000000   0.0000000   0.0000000   0.0000000   0.0000000   0.0000000   0.0000000   0.0000000   0.0000000   0.0000000
 NMagM=    2.7928460   0.0000000   2.7928460   2.7928460   0.0000000   2.7928460   2.7928460   0.0000000   0.0000000   2.7928460
 AtZNuc=   1.0000000   6.0000000   1.0000000   1.0000000   6.0000000   1.0000000   1.0000000   6.0000000   6.0000000   1.0000000

  Atom        31          32          33          34          35          36          37          38          39          40
 IAtWgt=          12           1           1          12           1           1          12           1          12           1
 AtmWgt=  12.0000000   1.0078250   1.0078250  12.0000000   1.0078250   1.0078250  12.0000000   1.0078250  12.0000000   1.0078250
 NucSpn=           0           1           1           0           1           1           0           1           0           1
 AtZEff=   0.0000000   0.0000000   0.0000000   0.0000000   0.0000000   0.0000000   0.0000000   0.0000000   0.0000000   0.0000000
 NQMom=    0.0000000   0.0000000   0.0000000   0.0000000   0.0000000   0.0000000   0.0000000   0.0000000   0.0000000   0.0000000
 NMagM=    0.0000000   2.7928460   2.7928460   0.0000000   2.7928460   2.7928460   0.0000000   2.7928460   0.0000000   2.7928460
 AtZNuc=   6.0000000   1.0000000   1.0000000   6.0000000   1.0000000   1.0000000   6.0000000   1.0000000   6.0000000   1.0000000

  Atom        41          42          43          44          45          46          47          48          49          50
 IAtWgt=           1           1          12           1          12           1           1           1          12           1
 AtmWgt=   1.0078250   1.0078250  12.0000000   1.0078250  12.0000000   1.0078250   1.0078250   1.0078250  12.0000000   1.0078250
 NucSpn=           1           1           0           1           0           1           1           1           0           1
 AtZEff=   0.0000000   0.0000000   0.0000000   0.0000000   0.0000000   0.0000000   0.0000000   0.0000000   0.0000000   0.0000000
 NQMom=    0.0000000   0.0000000   0.0000000   0.0000000   0.0000000   0.0000000   0.0000000   0.0000000   0.0000000   0.0000000
 NMagM=    2.7928460   2.7928460   0.0000000   2.7928460   0.0000000   2.7928460   2.7928460   2.7928460   0.0000000   2.7928460
 AtZNuc=   1.0000000   1.0000000   6.0000000   1.0000000   6.0000000   1.0000000   1.0000000   1.0000000   6.0000000   1.0000000

  Atom        51          52          53          54          55          56          57          58          59          60
 IAtWgt=           1           1          16          16           1          16           1          12           1           1
 AtmWgt=   1.0078250   1.0078250  15.9949146  15.9949146   1.0078250  15.9949146   1.0078250  12.0000000   1.0078250   1.0078250
 NucSpn=           1           1           0           0           1           0           1           0           1           1
 AtZEff=   0.0000000   0.0000000   0.0000000   0.0000000   0.0000000   0.0000000   0.0000000   0.0000000   0.0000000   0.0000000
 NQMom=    0.0000000   0.0000000   0.0000000   0.0000000   0.0000000   0.0000000   0.0000000   0.0000000   0.0000000   0.0000000
 NMagM=    2.7928460   2.7928460   0.0000000   0.0000000   2.7928460   0.0000000   2.7928460   0.0000000   2.7928460   2.7928460
 AtZNuc=   1.0000000   1.0000000   8.0000000   8.0000000   1.0000000   8.0000000   1.0000000   6.0000000   1.0000000   1.0000000

  Atom        61          62          63          64          65          66          67          68          69          70
 IAtWgt=          12           1           1          12           1           1          12           1          12           1
 AtmWgt=  12.0000000   1.0078250   1.0078250  12.0000000   1.0078250   1.0078250  12.0000000   1.0078250  12.0000000   1.0078250
 NucSpn=           0           1           1           0           1           1           0           1           0           1
 AtZEff=   0.0000000   0.0000000   0.0000000   0.0000000   0.0000000   0.0000000   0.0000000   0.0000000   0.0000000   0.0000000
 NQMom=    0.0000000   0.0000000   0.0000000   0.0000000   0.0000000   0.0000000   0.0000000   0.0000000   0.0000000   0.0000000
 NMagM=    0.0000000   2.7928460   2.7928460   0.0000000   2.7928460   2.7928460   0.0000000   2.7928460   0.0000000   2.7928460
 AtZNuc=   6.0000000   1.0000000   1.0000000   6.0000000   1.0000000   1.0000000   6.0000000   1.0000000   6.0000000   1.0000000

  Atom        71          72          73          74          75          76
 IAtWgt=           1           1          12           1           1           1
 AtmWgt=   1.0078250   1.0078250  12.0000000   1.0078250   1.0078250   1.0078250
 NucSpn=           1           1           0           1           1           1
 AtZEff=   0.0000000   0.0000000   0.0000000   0.0000000   0.0000000   0.0000000
 NQMom=    0.0000000   0.0000000   0.0000000   0.0000000   0.0000000   0.0000000
 NMagM=    2.7928460   2.7928460   0.0000000   2.7928460   2.7928460   2.7928460
 AtZNuc=   1.0000000   1.0000000   6.0000000   1.0000000   1.0000000   1.0000000
 Leave Link  101 at Wed Apr 26 14:56:59 2017, MaxMem=    33554432 cpu:         1.0
 (Enter /home/michal/g09/l202.exe)
 Symmetry turned off by external request.
 Stoichiometry    C27H46O3
 Framework group  C1[X(C27H46O3)]
 Deg. of freedom   222
 Full point group                 C1      NOp   1
                          Input orientation:                          
 ---------------------------------------------------------------------
 Center     Atomic      Atomic             Coordinates (Angstroms)
 Number     Number       Type             X           Y           Z
 ---------------------------------------------------------------------
      1          6           0        1.014918   -0.885204   -1.685489
      2          1           0        1.146406    0.084557   -2.181006
      3          6           0        2.250246   -1.756502   -1.962791
      4          1           0        2.389505   -1.865435   -3.042850
      5          1           0        2.044255   -2.764052   -1.568407
      6          6           0        3.508368   -1.196635   -1.324882
      7          6           0        3.433982   -0.865705    0.170995
      8          6           0        2.128892   -0.049091    0.423574
      9          1           0        2.265989    0.955172    0.000000
     10          1           0        1.988391    0.085174    1.501566
     11          6           0        0.855703   -0.660024   -0.181920
     12          1           0        0.621164   -1.619748    0.301899
     13          1           0        0.000000    0.000000    0.000000
     14          6           0        4.611557   -1.018071   -2.067956
     15          1           0        4.584326   -1.275287   -3.125228
     16          6           0        5.912605   -0.474906   -1.551593
     17          1           0        6.752515   -1.041137   -1.973658
     18          6           0        5.994316   -0.491776   -0.014369
     19          1           0        6.145957   -1.547580    0.250973
     20          6           0        4.663131    0.007956    0.606222
     21          1           0        4.492110    1.006824    0.178664
     22          6           0        4.773890    0.187617    2.138961
     23          1           0        4.783747   -0.790859    2.629854
     24          1           0        3.880177    0.701340    2.511603
     25          6           0        6.018313    0.972563    2.602292
     26          1           0        5.952421    2.011239    2.248352
     27          1           0        6.008867    1.015287    3.695857
     28          6           0        7.322323    0.350508    2.060697
     29          6           0        7.181046    0.329276    0.512608
     30          1           0        6.985090    1.371894    0.226885
     31          6           0        8.589010    0.000000    0.000000
     32          1           0        8.743971    0.349754   -1.024424
     33          1           0        8.763237   -1.083655    0.000716
     34          6           0        9.520827    0.714345    1.016798
     35          1           0       10.290095    0.027846    1.390346
     36          1           0       10.052173    1.546915    0.546731
     37          6           0        8.622107    1.219278    2.197697
     38          1           0        8.319855    2.254671    1.973989
     39          6           0        7.554138   -1.055514    2.659449
     40          1           0        6.759080   -1.758639    2.397928
     41          1           0        8.496680   -1.493794    2.317657
     42          1           0        7.594685   -1.009215    3.752775
     43          6           0        9.383244    1.259080    3.549309
     44          1           0        9.743022    0.240868    3.755851
     45          6           0        8.502542    1.698465    4.731563
     46          1           0        8.056528    2.683652    4.544871
     47          1           0        9.084358    1.769528    5.655445
     48          1           0        7.689165    0.995223    4.922851
     49          6           0        3.373308   -2.202012    0.960818
     50          1           0        3.122299   -2.031904    2.011994
     51          1           0        2.615943   -2.877146    0.555417
     52          1           0        4.330447   -2.730989    0.918690
     53          8           0        6.100535    0.907232   -1.963592
     54          8           0        6.282185    0.916030   -3.407423
     55          1           0        5.441502    1.307921   -3.696582
     56          8           0       -0.162613   -1.428066   -2.288164
     57          1           0       -0.355924   -2.282376   -1.877129
     58          6           0       10.621863    2.183259    3.424927
     59          1           0       11.208611    1.881144    2.551171
     60          1           0       10.267699    3.202113    3.207885
     61          6           0       11.564385    2.253296    4.643444
     62          1           0       12.366001    2.964275    4.405876
     63          1           0       11.036620    2.692301    5.498955
     64          6           0       12.184768    0.918033    5.096856
     65          1           0       11.385859    0.243573    5.433911
     66          1           0       12.805249    1.110521    5.984756
     67          6           0       13.048316    0.168858    4.059863
     68          1           0       12.426947   -0.033315    3.175524
     69          6           0       14.262968    0.991929    3.601947
     70          1           0       14.906947    1.242505    4.455070
     71          1           0       14.868899    0.428435    2.883326
     72          1           0       13.969021    1.929772    3.119785
     73          6           0       13.499135   -1.187713    4.625109
     74          1           0       14.131119   -1.050999    5.512084
     75          1           0       14.080034   -1.753629    3.887850
     76          1           0       12.641258   -1.802968    4.920296
 ---------------------------------------------------------------------
 Rotational constants (GHZ):      0.3757819      0.0586828      0.0552125
 Leave Link  202 at Wed Apr 26 14:56:59 2017, MaxMem=    33554432 cpu:         0.0
 (Enter /home/michal/g09/l301.exe)
 Standard basis: 6-31G(d) (6D, 7F)
 Ernie: Thresh=  0.10000D-02 Tol=  0.10000D-05 Strict=F.
 AO basis set in the form of general basis input (Overlap normalization):
      1 0
 S   6 1.00       0.000000000000
      0.3047524880D+04  0.1834737132D-02
      0.4573695180D+03  0.1403732281D-01
      0.1039486850D+03  0.6884262226D-01
      0.2921015530D+02  0.2321844432D+00
      0.9286662960D+01  0.4679413484D+00
      0.3163926960D+01  0.3623119853D+00
 SP   3 1.00       0.000000000000
      0.7868272350D+01 -0.1193324198D+00  0.6899906659D-01
      0.1881288540D+01 -0.1608541517D+00  0.3164239610D+00
      0.5442492580D+00  0.1143456438D+01  0.7443082909D+00
 SP   1 1.00       0.000000000000
      0.1687144782D+00  0.1000000000D+01  0.1000000000D+01
 D   1 1.00       0.000000000000
      0.8000000000D+00  0.1000000000D+01
 ****
      2 0
 S   3 1.00       0.000000000000
      0.1873113696D+02  0.3349460434D-01
      0.2825394365D+01  0.2347269535D+00
      0.6401216923D+00  0.8137573261D+00
 S   1 1.00       0.000000000000
      0.1612777588D+00  0.1000000000D+01
 ****
      3 0
 S   6 1.00       0.000000000000
      0.3047524880D+04  0.1834737132D-02
      0.4573695180D+03  0.1403732281D-01
      0.1039486850D+03  0.6884262226D-01
      0.2921015530D+02  0.2321844432D+00
      0.9286662960D+01  0.4679413484D+00
      0.3163926960D+01  0.3623119853D+00
 SP   3 1.00       0.000000000000
      0.7868272350D+01 -0.1193324198D+00  0.6899906659D-01
      0.1881288540D+01 -0.1608541517D+00  0.3164239610D+00
      0.5442492580D+00  0.1143456438D+01  0.7443082909D+00
 SP   1 1.00       0.000000000000
      0.1687144782D+00  0.1000000000D+01  0.1000000000D+01
 D   1 1.00       0.000000000000
      0.8000000000D+00  0.1000000000D+01
 ****
      4 0
 S   3 1.00       0.000000000000
      0.1873113696D+02  0.3349460434D-01
      0.2825394365D+01  0.2347269535D+00
      0.6401216923D+00  0.8137573261D+00
 S   1 1.00       0.000000000000
      0.1612777588D+00  0.1000000000D+01
 ****
      5 0
 S   3 1.00       0.000000000000
      0.1873113696D+02  0.3349460434D-01
      0.2825394365D+01  0.2347269535D+00
      0.6401216923D+00  0.8137573261D+00
 S   1 1.00       0.000000000000
      0.1612777588D+00  0.1000000000D+01
 ****
      6 0
 S   6 1.00       0.000000000000
      0.3047524880D+04  0.1834737132D-02
      0.4573695180D+03  0.1403732281D-01
      0.1039486850D+03  0.6884262226D-01
      0.2921015530D+02  0.2321844432D+00
      0.9286662960D+01  0.4679413484D+00
      0.3163926960D+01  0.3623119853D+00
 SP   3 1.00       0.000000000000
      0.7868272350D+01 -0.1193324198D+00  0.6899906659D-01
      0.1881288540D+01 -0.1608541517D+00  0.3164239610D+00
      0.5442492580D+00  0.1143456438D+01  0.7443082909D+00
 SP   1 1.00       0.000000000000
      0.1687144782D+00  0.1000000000D+01  0.1000000000D+01
 D   1 1.00       0.000000000000
      0.8000000000D+00  0.1000000000D+01
 ****
      7 0
 S   6 1.00       0.000000000000
      0.3047524880D+04  0.1834737132D-02
      0.4573695180D+03  0.1403732281D-01
      0.1039486850D+03  0.6884262226D-01
      0.2921015530D+02  0.2321844432D+00
      0.9286662960D+01  0.4679413484D+00
      0.3163926960D+01  0.3623119853D+00
 SP   3 1.00       0.000000000000
      0.7868272350D+01 -0.1193324198D+00  0.6899906659D-01
      0.1881288540D+01 -0.1608541517D+00  0.3164239610D+00
      0.5442492580D+00  0.1143456438D+01  0.7443082909D+00
 SP   1 1.00       0.000000000000
      0.1687144782D+00  0.1000000000D+01  0.1000000000D+01
 D   1 1.00       0.000000000000
      0.8000000000D+00  0.1000000000D+01
 ****
      8 0
 S   6 1.00       0.000000000000
      0.3047524880D+04  0.1834737132D-02
      0.4573695180D+03  0.1403732281D-01
      0.1039486850D+03  0.6884262226D-01
      0.2921015530D+02  0.2321844432D+00
      0.9286662960D+01  0.4679413484D+00
      0.3163926960D+01  0.3623119853D+00
 SP   3 1.00       0.000000000000
      0.7868272350D+01 -0.1193324198D+00  0.6899906659D-01
      0.1881288540D+01 -0.1608541517D+00  0.3164239610D+00
      0.5442492580D+00  0.1143456438D+01  0.7443082909D+00
 SP   1 1.00       0.000000000000
      0.1687144782D+00  0.1000000000D+01  0.1000000000D+01
 D   1 1.00       0.000000000000
      0.8000000000D+00  0.1000000000D+01
 ****
      9 0
 S   3 1.00       0.000000000000
      0.1873113696D+02  0.3349460434D-01
      0.2825394365D+01  0.2347269535D+00
      0.6401216923D+00  0.8137573261D+00
 S   1 1.00       0.000000000000
      0.1612777588D+00  0.1000000000D+01
 ****
     10 0
 S   3 1.00       0.000000000000
      0.1873113696D+02  0.3349460434D-01
      0.2825394365D+01  0.2347269535D+00
      0.6401216923D+00  0.8137573261D+00
 S   1 1.00       0.000000000000
      0.1612777588D+00  0.1000000000D+01
 ****
     11 0
 S   6 1.00       0.000000000000
      0.3047524880D+04  0.1834737132D-02
      0.4573695180D+03  0.1403732281D-01
      0.1039486850D+03  0.6884262226D-01
      0.2921015530D+02  0.2321844432D+00
      0.9286662960D+01  0.4679413484D+00
      0.3163926960D+01  0.3623119853D+00
 SP   3 1.00       0.000000000000
      0.7868272350D+01 -0.1193324198D+00  0.6899906659D-01
      0.1881288540D+01 -0.1608541517D+00  0.3164239610D+00
      0.5442492580D+00  0.1143456438D+01  0.7443082909D+00
 SP   1 1.00       0.000000000000
      0.1687144782D+00  0.1000000000D+01  0.1000000000D+01
 D   1 1.00       0.000000000000
      0.8000000000D+00  0.1000000000D+01
 ****
     12 0
 S   3 1.00       0.000000000000
      0.1873113696D+02  0.3349460434D-01
      0.2825394365D+01  0.2347269535D+00
      0.6401216923D+00  0.8137573261D+00
 S   1 1.00       0.000000000000
      0.1612777588D+00  0.1000000000D+01
 ****
     13 0
 S   3 1.00       0.000000000000
      0.1873113696D+02  0.3349460434D-01
      0.2825394365D+01  0.2347269535D+00
      0.6401216923D+00  0.8137573261D+00
 S   1 1.00       0.000000000000
      0.1612777588D+00  0.1000000000D+01
 ****
     14 0
 S   6 1.00       0.000000000000
      0.3047524880D+04  0.1834737132D-02
      0.4573695180D+03  0.1403732281D-01
      0.1039486850D+03  0.6884262226D-01
      0.2921015530D+02  0.2321844432D+00
      0.9286662960D+01  0.4679413484D+00
      0.3163926960D+01  0.3623119853D+00
 SP   3 1.00       0.000000000000
      0.7868272350D+01 -0.1193324198D+00  0.6899906659D-01
      0.1881288540D+01 -0.1608541517D+00  0.3164239610D+00
      0.5442492580D+00  0.1143456438D+01  0.7443082909D+00
 SP   1 1.00       0.000000000000
      0.1687144782D+00  0.1000000000D+01  0.1000000000D+01
 D   1 1.00       0.000000000000
      0.8000000000D+00  0.1000000000D+01
 ****
     15 0
 S   3 1.00       0.000000000000
      0.1873113696D+02  0.3349460434D-01
      0.2825394365D+01  0.2347269535D+00
      0.6401216923D+00  0.8137573261D+00
 S   1 1.00       0.000000000000
      0.1612777588D+00  0.1000000000D+01
 ****
     16 0
 S   6 1.00       0.000000000000
      0.3047524880D+04  0.1834737132D-02
      0.4573695180D+03  0.1403732281D-01
      0.1039486850D+03  0.6884262226D-01
      0.2921015530D+02  0.2321844432D+00
      0.9286662960D+01  0.4679413484D+00
      0.3163926960D+01  0.3623119853D+00
 SP   3 1.00       0.000000000000
      0.7868272350D+01 -0.1193324198D+00  0.6899906659D-01
      0.1881288540D+01 -0.1608541517D+00  0.3164239610D+00
      0.5442492580D+00  0.1143456438D+01  0.7443082909D+00
 SP   1 1.00       0.000000000000
      0.1687144782D+00  0.1000000000D+01  0.1000000000D+01
 D   1 1.00       0.000000000000
      0.8000000000D+00  0.1000000000D+01
 ****
     17 0
 S   3 1.00       0.000000000000
      0.1873113696D+02  0.3349460434D-01
      0.2825394365D+01  0.2347269535D+00
      0.6401216923D+00  0.8137573261D+00
 S   1 1.00       0.000000000000
      0.1612777588D+00  0.1000000000D+01
 ****
     18 0
 S   6 1.00       0.000000000000
      0.3047524880D+04  0.1834737132D-02
      0.4573695180D+03  0.1403732281D-01
      0.1039486850D+03  0.6884262226D-01
      0.2921015530D+02  0.2321844432D+00
      0.9286662960D+01  0.4679413484D+00
      0.3163926960D+01  0.3623119853D+00
 SP   3 1.00       0.000000000000
      0.7868272350D+01 -0.1193324198D+00  0.6899906659D-01
      0.1881288540D+01 -0.1608541517D+00  0.3164239610D+00
      0.5442492580D+00  0.1143456438D+01  0.7443082909D+00
 SP   1 1.00       0.000000000000
      0.1687144782D+00  0.1000000000D+01  0.1000000000D+01
 D   1 1.00       0.000000000000
      0.8000000000D+00  0.1000000000D+01
 ****
     19 0
 S   3 1.00       0.000000000000
      0.1873113696D+02  0.3349460434D-01
      0.2825394365D+01  0.2347269535D+00
      0.6401216923D+00  0.8137573261D+00
 S   1 1.00       0.000000000000
      0.1612777588D+00  0.1000000000D+01
 ****
     20 0
 S   6 1.00       0.000000000000
      0.3047524880D+04  0.1834737132D-02
      0.4573695180D+03  0.1403732281D-01
      0.1039486850D+03  0.6884262226D-01
      0.2921015530D+02  0.2321844432D+00
      0.9286662960D+01  0.4679413484D+00
      0.3163926960D+01  0.3623119853D+00
 SP   3 1.00       0.000000000000
      0.7868272350D+01 -0.1193324198D+00  0.6899906659D-01
      0.1881288540D+01 -0.1608541517D+00  0.3164239610D+00
      0.5442492580D+00  0.1143456438D+01  0.7443082909D+00
 SP   1 1.00       0.000000000000
      0.1687144782D+00  0.1000000000D+01  0.1000000000D+01
 D   1 1.00       0.000000000000
      0.8000000000D+00  0.1000000000D+01
 ****
     21 0
 S   3 1.00       0.000000000000
      0.1873113696D+02  0.3349460434D-01
      0.2825394365D+01  0.2347269535D+00
      0.6401216923D+00  0.8137573261D+00
 S   1 1.00       0.000000000000
      0.1612777588D+00  0.1000000000D+01
 ****
     22 0
 S   6 1.00       0.000000000000
      0.3047524880D+04  0.1834737132D-02
      0.4573695180D+03  0.1403732281D-01
      0.1039486850D+03  0.6884262226D-01
      0.2921015530D+02  0.2321844432D+00
      0.9286662960D+01  0.4679413484D+00
      0.3163926960D+01  0.3623119853D+00
 SP   3 1.00       0.000000000000
      0.7868272350D+01 -0.1193324198D+00  0.6899906659D-01
      0.1881288540D+01 -0.1608541517D+00  0.3164239610D+00
      0.5442492580D+00  0.1143456438D+01  0.7443082909D+00
 SP   1 1.00       0.000000000000
      0.1687144782D+00  0.1000000000D+01  0.1000000000D+01
 D   1 1.00       0.000000000000
      0.8000000000D+00  0.1000000000D+01
 ****
     23 0
 S   3 1.00       0.000000000000
      0.1873113696D+02  0.3349460434D-01
      0.2825394365D+01  0.2347269535D+00
      0.6401216923D+00  0.8137573261D+00
 S   1 1.00       0.000000000000
      0.1612777588D+00  0.1000000000D+01
 ****
     24 0
 S   3 1.00       0.000000000000
      0.1873113696D+02  0.3349460434D-01
      0.2825394365D+01  0.2347269535D+00
      0.6401216923D+00  0.8137573261D+00
 S   1 1.00       0.000000000000
      0.1612777588D+00  0.1000000000D+01
 ****
     25 0
 S   6 1.00       0.000000000000
      0.3047524880D+04  0.1834737132D-02
      0.4573695180D+03  0.1403732281D-01
      0.1039486850D+03  0.6884262226D-01
      0.2921015530D+02  0.2321844432D+00
      0.9286662960D+01  0.4679413484D+00
      0.3163926960D+01  0.3623119853D+00
 SP   3 1.00       0.000000000000
      0.7868272350D+01 -0.1193324198D+00  0.6899906659D-01
      0.1881288540D+01 -0.1608541517D+00  0.3164239610D+00
      0.5442492580D+00  0.1143456438D+01  0.7443082909D+00
 SP   1 1.00       0.000000000000
      0.1687144782D+00  0.1000000000D+01  0.1000000000D+01
 D   1 1.00       0.000000000000
      0.8000000000D+00  0.1000000000D+01
 ****
     26 0
 S   3 1.00       0.000000000000
      0.1873113696D+02  0.3349460434D-01
      0.2825394365D+01  0.2347269535D+00
      0.6401216923D+00  0.8137573261D+00
 S   1 1.00       0.000000000000
      0.1612777588D+00  0.1000000000D+01
 ****
     27 0
 S   3 1.00       0.000000000000
      0.1873113696D+02  0.3349460434D-01
      0.2825394365D+01  0.2347269535D+00
      0.6401216923D+00  0.8137573261D+00
 S   1 1.00       0.000000000000
      0.1612777588D+00  0.1000000000D+01
 ****
     28 0
 S   6 1.00       0.000000000000
      0.3047524880D+04  0.1834737132D-02
      0.4573695180D+03  0.1403732281D-01
      0.1039486850D+03  0.6884262226D-01
      0.2921015530D+02  0.2321844432D+00
      0.9286662960D+01  0.4679413484D+00
      0.3163926960D+01  0.3623119853D+00
 SP   3 1.00       0.000000000000
      0.7868272350D+01 -0.1193324198D+00  0.6899906659D-01
      0.1881288540D+01 -0.1608541517D+00  0.3164239610D+00
      0.5442492580D+00  0.1143456438D+01  0.7443082909D+00
 SP   1 1.00       0.000000000000
      0.1687144782D+00  0.1000000000D+01  0.1000000000D+01
 D   1 1.00       0.000000000000
      0.8000000000D+00  0.1000000000D+01
 ****
     29 0
 S   6 1.00       0.000000000000
      0.3047524880D+04  0.1834737132D-02
      0.4573695180D+03  0.1403732281D-01
      0.1039486850D+03  0.6884262226D-01
      0.2921015530D+02  0.2321844432D+00
      0.9286662960D+01  0.4679413484D+00
      0.3163926960D+01  0.3623119853D+00
 SP   3 1.00       0.000000000000
      0.7868272350D+01 -0.1193324198D+00  0.6899906659D-01
      0.1881288540D+01 -0.1608541517D+00  0.3164239610D+00
      0.5442492580D+00  0.1143456438D+01  0.7443082909D+00
 SP   1 1.00       0.000000000000
      0.1687144782D+00  0.1000000000D+01  0.1000000000D+01
 D   1 1.00       0.000000000000
      0.8000000000D+00  0.1000000000D+01
 ****
     30 0
 S   3 1.00       0.000000000000
      0.1873113696D+02  0.3349460434D-01
      0.2825394365D+01  0.2347269535D+00
      0.6401216923D+00  0.8137573261D+00
 S   1 1.00       0.000000000000
      0.1612777588D+00  0.1000000000D+01
 ****
     31 0
 S   6 1.00       0.000000000000
      0.3047524880D+04  0.1834737132D-02
      0.4573695180D+03  0.1403732281D-01
      0.1039486850D+03  0.6884262226D-01
      0.2921015530D+02  0.2321844432D+00
      0.9286662960D+01  0.4679413484D+00
      0.3163926960D+01  0.3623119853D+00
 SP   3 1.00       0.000000000000
      0.7868272350D+01 -0.1193324198D+00  0.6899906659D-01
      0.1881288540D+01 -0.1608541517D+00  0.3164239610D+00
      0.5442492580D+00  0.1143456438D+01  0.7443082909D+00
 SP   1 1.00       0.000000000000
      0.1687144782D+00  0.1000000000D+01  0.1000000000D+01
 D   1 1.00       0.000000000000
      0.8000000000D+00  0.1000000000D+01
 ****
     32 0
 S   3 1.00       0.000000000000
      0.1873113696D+02  0.3349460434D-01
      0.2825394365D+01  0.2347269535D+00
      0.6401216923D+00  0.8137573261D+00
 S   1 1.00       0.000000000000
      0.1612777588D+00  0.1000000000D+01
 ****
     33 0
 S   3 1.00       0.000000000000
      0.1873113696D+02  0.3349460434D-01
      0.2825394365D+01  0.2347269535D+00
      0.6401216923D+00  0.8137573261D+00
 S   1 1.00       0.000000000000
      0.1612777588D+00  0.1000000000D+01
 ****
     34 0
 S   6 1.00       0.000000000000
      0.3047524880D+04  0.1834737132D-02
      0.4573695180D+03  0.1403732281D-01
      0.1039486850D+03  0.6884262226D-01
      0.2921015530D+02  0.2321844432D+00
      0.9286662960D+01  0.4679413484D+00
      0.3163926960D+01  0.3623119853D+00
 SP   3 1.00       0.000000000000
      0.7868272350D+01 -0.1193324198D+00  0.6899906659D-01
      0.1881288540D+01 -0.1608541517D+00  0.3164239610D+00
      0.5442492580D+00  0.1143456438D+01  0.7443082909D+00
 SP   1 1.00       0.000000000000
      0.1687144782D+00  0.1000000000D+01  0.1000000000D+01
 D   1 1.00       0.000000000000
      0.8000000000D+00  0.1000000000D+01
 ****
     35 0
 S   3 1.00       0.000000000000
      0.1873113696D+02  0.3349460434D-01
      0.2825394365D+01  0.2347269535D+00
      0.6401216923D+00  0.8137573261D+00
 S   1 1.00       0.000000000000
      0.1612777588D+00  0.1000000000D+01
 ****
     36 0
 S   3 1.00       0.000000000000
      0.1873113696D+02  0.3349460434D-01
      0.2825394365D+01  0.2347269535D+00
      0.6401216923D+00  0.8137573261D+00
 S   1 1.00       0.000000000000
      0.1612777588D+00  0.1000000000D+01
 ****
     37 0
 S   6 1.00       0.000000000000
      0.3047524880D+04  0.1834737132D-02
      0.4573695180D+03  0.1403732281D-01
      0.1039486850D+03  0.6884262226D-01
      0.2921015530D+02  0.2321844432D+00
      0.9286662960D+01  0.4679413484D+00
      0.3163926960D+01  0.3623119853D+00
 SP   3 1.00       0.000000000000
      0.7868272350D+01 -0.1193324198D+00  0.6899906659D-01
      0.1881288540D+01 -0.1608541517D+00  0.3164239610D+00
      0.5442492580D+00  0.1143456438D+01  0.7443082909D+00
 SP   1 1.00       0.000000000000
      0.1687144782D+00  0.1000000000D+01  0.1000000000D+01
 D   1 1.00       0.000000000000
      0.8000000000D+00  0.1000000000D+01
 ****
     38 0
 S   3 1.00       0.000000000000
      0.1873113696D+02  0.3349460434D-01
      0.2825394365D+01  0.2347269535D+00
      0.6401216923D+00  0.8137573261D+00
 S   1 1.00       0.000000000000
      0.1612777588D+00  0.1000000000D+01
 ****
     39 0
 S   6 1.00       0.000000000000
      0.3047524880D+04  0.1834737132D-02
      0.4573695180D+03  0.1403732281D-01
      0.1039486850D+03  0.6884262226D-01
      0.2921015530D+02  0.2321844432D+00
      0.9286662960D+01  0.4679413484D+00
      0.3163926960D+01  0.3623119853D+00
 SP   3 1.00       0.000000000000
      0.7868272350D+01 -0.1193324198D+00  0.6899906659D-01
      0.1881288540D+01 -0.1608541517D+00  0.3164239610D+00
      0.5442492580D+00  0.1143456438D+01  0.7443082909D+00
 SP   1 1.00       0.000000000000
      0.1687144782D+00  0.1000000000D+01  0.1000000000D+01
 D   1 1.00       0.000000000000
      0.8000000000D+00  0.1000000000D+01
 ****
     40 0
 S   3 1.00       0.000000000000
      0.1873113696D+02  0.3349460434D-01
      0.2825394365D+01  0.2347269535D+00
      0.6401216923D+00  0.8137573261D+00
 S   1 1.00       0.000000000000
      0.1612777588D+00  0.1000000000D+01
 ****
     41 0
 S   3 1.00       0.000000000000
      0.1873113696D+02  0.3349460434D-01
      0.2825394365D+01  0.2347269535D+00
      0.6401216923D+00  0.8137573261D+00
 S   1 1.00       0.000000000000
      0.1612777588D+00  0.1000000000D+01
 ****
     42 0
 S   3 1.00       0.000000000000
      0.1873113696D+02  0.3349460434D-01
      0.2825394365D+01  0.2347269535D+00
      0.6401216923D+00  0.8137573261D+00
 S   1 1.00       0.000000000000
      0.1612777588D+00  0.1000000000D+01
 ****
     43 0
 S   6 1.00       0.000000000000
      0.3047524880D+04  0.1834737132D-02
      0.4573695180D+03  0.1403732281D-01
      0.1039486850D+03  0.6884262226D-01
      0.2921015530D+02  0.2321844432D+00
      0.9286662960D+01  0.4679413484D+00
      0.3163926960D+01  0.3623119853D+00
 SP   3 1.00       0.000000000000
      0.7868272350D+01 -0.1193324198D+00  0.6899906659D-01
      0.1881288540D+01 -0.1608541517D+00  0.3164239610D+00
      0.5442492580D+00  0.1143456438D+01  0.7443082909D+00
 SP   1 1.00       0.000000000000
      0.1687144782D+00  0.1000000000D+01  0.1000000000D+01
 D   1 1.00       0.000000000000
      0.8000000000D+00  0.1000000000D+01
 ****
     44 0
 S   3 1.00       0.000000000000
      0.1873113696D+02  0.3349460434D-01
      0.2825394365D+01  0.2347269535D+00
      0.6401216923D+00  0.8137573261D+00
 S   1 1.00       0.000000000000
      0.1612777588D+00  0.1000000000D+01
 ****
     45 0
 S   6 1.00       0.000000000000
      0.3047524880D+04  0.1834737132D-02
      0.4573695180D+03  0.1403732281D-01
      0.1039486850D+03  0.6884262226D-01
      0.2921015530D+02  0.2321844432D+00
      0.9286662960D+01  0.4679413484D+00
      0.3163926960D+01  0.3623119853D+00
 SP   3 1.00       0.000000000000
      0.7868272350D+01 -0.1193324198D+00  0.6899906659D-01
      0.1881288540D+01 -0.1608541517D+00  0.3164239610D+00
      0.5442492580D+00  0.1143456438D+01  0.7443082909D+00
 SP   1 1.00       0.000000000000
      0.1687144782D+00  0.1000000000D+01  0.1000000000D+01
 D   1 1.00       0.000000000000
      0.8000000000D+00  0.1000000000D+01
 ****
     46 0
 S   3 1.00       0.000000000000
      0.1873113696D+02  0.3349460434D-01
      0.2825394365D+01  0.2347269535D+00
      0.6401216923D+00  0.8137573261D+00
 S   1 1.00       0.000000000000
      0.1612777588D+00  0.1000000000D+01
 ****
     47 0
 S   3 1.00       0.000000000000
      0.1873113696D+02  0.3349460434D-01
      0.2825394365D+01  0.2347269535D+00
      0.6401216923D+00  0.8137573261D+00
 S   1 1.00       0.000000000000
      0.1612777588D+00  0.1000000000D+01
 ****
     48 0
 S   3 1.00       0.000000000000
      0.1873113696D+02  0.3349460434D-01
      0.2825394365D+01  0.2347269535D+00
      0.6401216923D+00  0.8137573261D+00
 S   1 1.00       0.000000000000
      0.1612777588D+00  0.1000000000D+01
 ****
     49 0
 S   6 1.00       0.000000000000
      0.3047524880D+04  0.1834737132D-02
      0.4573695180D+03  0.1403732281D-01
      0.1039486850D+03  0.6884262226D-01
      0.2921015530D+02  0.2321844432D+00
      0.9286662960D+01  0.4679413484D+00
      0.3163926960D+01  0.3623119853D+00
 SP   3 1.00       0.000000000000
      0.7868272350D+01 -0.1193324198D+00  0.6899906659D-01
      0.1881288540D+01 -0.1608541517D+00  0.3164239610D+00
      0.5442492580D+00  0.1143456438D+01  0.7443082909D+00
 SP   1 1.00       0.000000000000
      0.1687144782D+00  0.1000000000D+01  0.1000000000D+01
 D   1 1.00       0.000000000000
      0.8000000000D+00  0.1000000000D+01
 ****
     50 0
 S   3 1.00       0.000000000000
      0.1873113696D+02  0.3349460434D-01
      0.2825394365D+01  0.2347269535D+00
      0.6401216923D+00  0.8137573261D+00
 S   1 1.00       0.000000000000
      0.1612777588D+00  0.1000000000D+01
 ****
     51 0
 S   3 1.00       0.000000000000
      0.1873113696D+02  0.3349460434D-01
      0.2825394365D+01  0.2347269535D+00
      0.6401216923D+00  0.8137573261D+00
 S   1 1.00       0.000000000000
      0.1612777588D+00  0.1000000000D+01
 ****
     52 0
 S   3 1.00       0.000000000000
      0.1873113696D+02  0.3349460434D-01
      0.2825394365D+01  0.2347269535D+00
      0.6401216923D+00  0.8137573261D+00
 S   1 1.00       0.000000000000
      0.1612777588D+00  0.1000000000D+01
 ****
     53 0
 S   6 1.00       0.000000000000
      0.5484671660D+04  0.1831074430D-02
      0.8252349460D+03  0.1395017220D-01
      0.1880469580D+03  0.6844507810D-01
      0.5296450000D+02  0.2327143360D+00
      0.1689757040D+02  0.4701928980D+00
      0.5799635340D+01  0.3585208530D+00
 SP   3 1.00       0.000000000000
      0.1553961625D+02 -0.1107775495D+00  0.7087426823D-01
      0.3599933586D+01 -0.1480262627D+00  0.3397528391D+00
      0.1013761750D+01  0.1130767015D+01  0.7271585773D+00
 SP   1 1.00       0.000000000000
      0.2700058226D+00  0.1000000000D+01  0.1000000000D+01
 D   1 1.00       0.000000000000
      0.8000000000D+00  0.1000000000D+01
 ****
     54 0
 S   6 1.00       0.000000000000
      0.5484671660D+04  0.1831074430D-02
      0.8252349460D+03  0.1395017220D-01
      0.1880469580D+03  0.6844507810D-01
      0.5296450000D+02  0.2327143360D+00
      0.1689757040D+02  0.4701928980D+00
      0.5799635340D+01  0.3585208530D+00
 SP   3 1.00       0.000000000000
      0.1553961625D+02 -0.1107775495D+00  0.7087426823D-01
      0.3599933586D+01 -0.1480262627D+00  0.3397528391D+00
      0.1013761750D+01  0.1130767015D+01  0.7271585773D+00
 SP   1 1.00       0.000000000000
      0.2700058226D+00  0.1000000000D+01  0.1000000000D+01
 D   1 1.00       0.000000000000
      0.8000000000D+00  0.1000000000D+01
 ****
     55 0
 S   3 1.00       0.000000000000
      0.1873113696D+02  0.3349460434D-01
      0.2825394365D+01  0.2347269535D+00
      0.6401216923D+00  0.8137573261D+00
 S   1 1.00       0.000000000000
      0.1612777588D+00  0.1000000000D+01
 ****
     56 0
 S   6 1.00       0.000000000000
      0.5484671660D+04  0.1831074430D-02
      0.8252349460D+03  0.1395017220D-01
      0.1880469580D+03  0.6844507810D-01
      0.5296450000D+02  0.2327143360D+00
      0.1689757040D+02  0.4701928980D+00
      0.5799635340D+01  0.3585208530D+00
 SP   3 1.00       0.000000000000
      0.1553961625D+02 -0.1107775495D+00  0.7087426823D-01
      0.3599933586D+01 -0.1480262627D+00  0.3397528391D+00
      0.1013761750D+01  0.1130767015D+01  0.7271585773D+00
 SP   1 1.00       0.000000000000
      0.2700058226D+00  0.1000000000D+01  0.1000000000D+01
 D   1 1.00       0.000000000000
      0.8000000000D+00  0.1000000000D+01
 ****
     57 0
 S   3 1.00       0.000000000000
      0.1873113696D+02  0.3349460434D-01
      0.2825394365D+01  0.2347269535D+00
      0.6401216923D+00  0.8137573261D+00
 S   1 1.00       0.000000000000
      0.1612777588D+00  0.1000000000D+01
 ****
     58 0
 S   6 1.00       0.000000000000
      0.3047524880D+04  0.1834737132D-02
      0.4573695180D+03  0.1403732281D-01
      0.1039486850D+03  0.6884262226D-01
      0.2921015530D+02  0.2321844432D+00
      0.9286662960D+01  0.4679413484D+00
      0.3163926960D+01  0.3623119853D+00
 SP   3 1.00       0.000000000000
      0.7868272350D+01 -0.1193324198D+00  0.6899906659D-01
      0.1881288540D+01 -0.1608541517D+00  0.3164239610D+00
      0.5442492580D+00  0.1143456438D+01  0.7443082909D+00
 SP   1 1.00       0.000000000000
      0.1687144782D+00  0.1000000000D+01  0.1000000000D+01
 D   1 1.00       0.000000000000
      0.8000000000D+00  0.1000000000D+01
 ****
     59 0
 S   3 1.00       0.000000000000
      0.1873113696D+02  0.3349460434D-01
      0.2825394365D+01  0.2347269535D+00
      0.6401216923D+00  0.8137573261D+00
 S   1 1.00       0.000000000000
      0.1612777588D+00  0.1000000000D+01
 ****
     60 0
 S   3 1.00       0.000000000000
      0.1873113696D+02  0.3349460434D-01
      0.2825394365D+01  0.2347269535D+00
      0.6401216923D+00  0.8137573261D+00
 S   1 1.00       0.000000000000
      0.1612777588D+00  0.1000000000D+01
 ****
     61 0
 S   6 1.00       0.000000000000
      0.3047524880D+04  0.1834737132D-02
      0.4573695180D+03  0.1403732281D-01
      0.1039486850D+03  0.6884262226D-01
      0.2921015530D+02  0.2321844432D+00
      0.9286662960D+01  0.4679413484D+00
      0.3163926960D+01  0.3623119853D+00
 SP   3 1.00       0.000000000000
      0.7868272350D+01 -0.1193324198D+00  0.6899906659D-01
      0.1881288540D+01 -0.1608541517D+00  0.3164239610D+00
      0.5442492580D+00  0.1143456438D+01  0.7443082909D+00
 SP   1 1.00       0.000000000000
      0.1687144782D+00  0.1000000000D+01  0.1000000000D+01
 D   1 1.00       0.000000000000
      0.8000000000D+00  0.1000000000D+01
 ****
     62 0
 S   3 1.00       0.000000000000
      0.1873113696D+02  0.3349460434D-01
      0.2825394365D+01  0.2347269535D+00
      0.6401216923D+00  0.8137573261D+00
 S   1 1.00       0.000000000000
      0.1612777588D+00  0.1000000000D+01
 ****
     63 0
 S   3 1.00       0.000000000000
      0.1873113696D+02  0.3349460434D-01
      0.2825394365D+01  0.2347269535D+00
      0.6401216923D+00  0.8137573261D+00
 S   1 1.00       0.000000000000
      0.1612777588D+00  0.1000000000D+01
 ****
     64 0
 S   6 1.00       0.000000000000
      0.3047524880D+04  0.1834737132D-02
      0.4573695180D+03  0.1403732281D-01
      0.1039486850D+03  0.6884262226D-01
      0.2921015530D+02  0.2321844432D+00
      0.9286662960D+01  0.4679413484D+00
      0.3163926960D+01  0.3623119853D+00
 SP   3 1.00       0.000000000000
      0.7868272350D+01 -0.1193324198D+00  0.6899906659D-01
      0.1881288540D+01 -0.1608541517D+00  0.3164239610D+00
      0.5442492580D+00  0.1143456438D+01  0.7443082909D+00
 SP   1 1.00       0.000000000000
      0.1687144782D+00  0.1000000000D+01  0.1000000000D+01
 D   1 1.00       0.000000000000
      0.8000000000D+00  0.1000000000D+01
 ****
     65 0
 S   3 1.00       0.000000000000
      0.1873113696D+02  0.3349460434D-01
      0.2825394365D+01  0.2347269535D+00
      0.6401216923D+00  0.8137573261D+00
 S   1 1.00       0.000000000000
      0.1612777588D+00  0.1000000000D+01
 ****
     66 0
 S   3 1.00       0.000000000000
      0.1873113696D+02  0.3349460434D-01
      0.2825394365D+01  0.2347269535D+00
      0.6401216923D+00  0.8137573261D+00
 S   1 1.00       0.000000000000
      0.1612777588D+00  0.1000000000D+01
 ****
     67 0
 S   6 1.00       0.000000000000
      0.3047524880D+04  0.1834737132D-02
      0.4573695180D+03  0.1403732281D-01
      0.1039486850D+03  0.6884262226D-01
      0.2921015530D+02  0.2321844432D+00
      0.9286662960D+01  0.4679413484D+00
      0.3163926960D+01  0.3623119853D+00
 SP   3 1.00       0.000000000000
      0.7868272350D+01 -0.1193324198D+00  0.6899906659D-01
      0.1881288540D+01 -0.1608541517D+00  0.3164239610D+00
      0.5442492580D+00  0.1143456438D+01  0.7443082909D+00
 SP   1 1.00       0.000000000000
      0.1687144782D+00  0.1000000000D+01  0.1000000000D+01
 D   1 1.00       0.000000000000
      0.8000000000D+00  0.1000000000D+01
 ****
     68 0
 S   3 1.00       0.000000000000
      0.1873113696D+02  0.3349460434D-01
      0.2825394365D+01  0.2347269535D+00
      0.6401216923D+00  0.8137573261D+00
 S   1 1.00       0.000000000000
      0.1612777588D+00  0.1000000000D+01
 ****
     69 0
 S   6 1.00       0.000000000000
      0.3047524880D+04  0.1834737132D-02
      0.4573695180D+03  0.1403732281D-01
      0.1039486850D+03  0.6884262226D-01
      0.2921015530D+02  0.2321844432D+00
      0.9286662960D+01  0.4679413484D+00
      0.3163926960D+01  0.3623119853D+00
 SP   3 1.00       0.000000000000
      0.7868272350D+01 -0.1193324198D+00  0.6899906659D-01
      0.1881288540D+01 -0.1608541517D+00  0.3164239610D+00
      0.5442492580D+00  0.1143456438D+01  0.7443082909D+00
 SP   1 1.00       0.000000000000
      0.1687144782D+00  0.1000000000D+01  0.1000000000D+01
 D   1 1.00       0.000000000000
      0.8000000000D+00  0.1000000000D+01
 ****
     70 0
 S   3 1.00       0.000000000000
      0.1873113696D+02  0.3349460434D-01
      0.2825394365D+01  0.2347269535D+00
      0.6401216923D+00  0.8137573261D+00
 S   1 1.00       0.000000000000
      0.1612777588D+00  0.1000000000D+01
 ****
     71 0
 S   3 1.00       0.000000000000
      0.1873113696D+02  0.3349460434D-01
      0.2825394365D+01  0.2347269535D+00
      0.6401216923D+00  0.8137573261D+00
 S   1 1.00       0.000000000000
      0.1612777588D+00  0.1000000000D+01
 ****
     72 0
 S   3 1.00       0.000000000000
      0.1873113696D+02  0.3349460434D-01
      0.2825394365D+01  0.2347269535D+00
      0.6401216923D+00  0.8137573261D+00
 S   1 1.00       0.000000000000
      0.1612777588D+00  0.1000000000D+01
 ****
     73 0
 S   6 1.00       0.000000000000
      0.3047524880D+04  0.1834737132D-02
      0.4573695180D+03  0.1403732281D-01
      0.1039486850D+03  0.6884262226D-01
      0.2921015530D+02  0.2321844432D+00
      0.9286662960D+01  0.4679413484D+00
      0.3163926960D+01  0.3623119853D+00
 SP   3 1.00       0.000000000000
      0.7868272350D+01 -0.1193324198D+00  0.6899906659D-01
      0.1881288540D+01 -0.1608541517D+00  0.3164239610D+00
      0.5442492580D+00  0.1143456438D+01  0.7443082909D+00
 SP   1 1.00       0.000000000000
      0.1687144782D+00  0.1000000000D+01  0.1000000000D+01
 D   1 1.00       0.000000000000
      0.8000000000D+00  0.1000000000D+01
 ****
     74 0
 S   3 1.00       0.000000000000
      0.1873113696D+02  0.3349460434D-01
      0.2825394365D+01  0.2347269535D+00
      0.6401216923D+00  0.8137573261D+00
 S   1 1.00       0.000000000000
      0.1612777588D+00  0.1000000000D+01
 ****
     75 0
 S   3 1.00       0.000000000000
      0.1873113696D+02  0.3349460434D-01
      0.2825394365D+01  0.2347269535D+00
      0.6401216923D+00  0.8137573261D+00
 S   1 1.00       0.000000000000
      0.1612777588D+00  0.1000000000D+01
 ****
     76 0
 S   3 1.00       0.000000000000
      0.1873113696D+02  0.3349460434D-01
      0.2825394365D+01  0.2347269535D+00
      0.6401216923D+00  0.8137573261D+00
 S   1 1.00       0.000000000000
      0.1612777588D+00  0.1000000000D+01
 ****

 AO basis set (Overlap normalization):
 Atom C1       Shell     1 S   6     bf    1 -     1          1.917916387035         -1.672792375844         -3.185113082423
      0.3047524880D+04  0.1834737132D-02
      0.4573695180D+03  0.1403732281D-01
      0.1039486850D+03  0.6884262226D-01
      0.2921015530D+02  0.2321844432D+00
      0.9286662960D+01  0.4679413484D+00
      0.3163926960D+01  0.3623119853D+00
 Atom C1       Shell     2 SP   3    bf    2 -     5          1.917916387035         -1.672792375844         -3.185113082423
      0.7868272350D+01 -0.1193324198D+00  0.6899906659D-01
      0.1881288540D+01 -0.1608541517D+00  0.3164239610D+00
      0.5442492580D+00  0.1143456438D+01  0.7443082909D+00
 Atom C1       Shell     3 SP   1    bf    6 -     9          1.917916387035         -1.672792375844         -3.185113082423
      0.1687144782D+00  0.1000000000D+01  0.1000000000D+01
 Atom C1       Shell     4 D   1     bf   10 -    15          1.917916387035         -1.672792375844         -3.185113082423
      0.8000000000D+00  0.1000000000D+01
 Atom H2       Shell     5 S   3     bf   16 -    16          2.166393244816          0.159789478132         -4.121504053078
      0.1873113696D+02  0.3349460434D-01
      0.2825394365D+01  0.2347269535D+00
      0.6401216923D+00  0.8137573261D+00
 Atom H2       Shell     6 S   1     bf   17 -    17          2.166393244816          0.159789478132         -4.121504053078
      0.1612777588D+00  0.1000000000D+01
 Atom C3       Shell     7 S   6     bf   18 -    18          4.252348652724         -3.319307712969         -3.709137370504
      0.3047524880D+04  0.1834737132D-02
      0.4573695180D+03  0.1403732281D-01
      0.1039486850D+03  0.6884262226D-01
      0.2921015530D+02  0.2321844432D+00
      0.9286662960D+01  0.4679413484D+00
      0.3163926960D+01  0.3623119853D+00
 Atom C3       Shell     8 SP   3    bf   19 -    22          4.252348652724         -3.319307712969         -3.709137370504
      0.7868272350D+01 -0.1193324198D+00  0.6899906659D-01
      0.1881288540D+01 -0.1608541517D+00  0.3164239610D+00
      0.5442492580D+00  0.1143456438D+01  0.7443082909D+00
 Atom C3       Shell     9 SP   1    bf   23 -    26          4.252348652724         -3.319307712969         -3.709137370504
      0.1687144782D+00  0.1000000000D+01  0.1000000000D+01
 Atom C3       Shell    10 D   1     bf   27 -    32          4.252348652724         -3.319307712969         -3.709137370504
      0.8000000000D+00  0.1000000000D+01
 Atom H4       Shell    11 S   3     bf   33 -    33          4.515510383312         -3.525160928549         -5.750152691020
      0.1873113696D+02  0.3349460434D-01
      0.2825394365D+01  0.2347269535D+00
      0.6401216923D+00  0.8137573261D+00
 Atom H4       Shell    12 S   1     bf   34 -    34          4.515510383312         -3.525160928549         -5.750152691020
      0.1612777588D+00  0.1000000000D+01
 Atom H5       Shell    13 S   3     bf   35 -    35          3.863082209166         -5.223301750589         -2.963859789387
      0.1873113696D+02  0.3349460434D-01
      0.2825394365D+01  0.2347269535D+00
      0.6401216923D+00  0.8137573261D+00
 Atom H5       Shell    14 S   1     bf   36 -    36          3.863082209166         -5.223301750589         -2.963859789387
      0.1612777588D+00  0.1000000000D+01
 Atom C6       Shell    15 S   6     bf   37 -    37          6.629854787866         -2.261312941252         -2.503663722650
      0.3047524880D+04  0.1834737132D-02
      0.4573695180D+03  0.1403732281D-01
      0.1039486850D+03  0.6884262226D-01
      0.2921015530D+02  0.2321844432D+00
      0.9286662960D+01  0.4679413484D+00
      0.3163926960D+01  0.3623119853D+00
 Atom C6       Shell    16 SP   3    bf   38 -    41          6.629854787866         -2.261312941252         -2.503663722650
      0.7868272350D+01 -0.1193324198D+00  0.6899906659D-01
      0.1881288540D+01 -0.1608541517D+00  0.3164239610D+00
      0.5442492580D+00  0.1143456438D+01  0.7443082909D+00
 Atom C6       Shell    17 SP   1    bf   42 -    45          6.629854787866         -2.261312941252         -2.503663722650
      0.1687144782D+00  0.1000000000D+01  0.1000000000D+01
 Atom C6       Shell    18 D   1     bf   46 -    51          6.629854787866         -2.261312941252         -2.503663722650
      0.8000000000D+00  0.1000000000D+01
 Atom C7       Shell    19 S   6     bf   52 -    52          6.489285676437         -1.635946061068          0.323133323250
      0.3047524880D+04  0.1834737132D-02
      0.4573695180D+03  0.1403732281D-01
      0.1039486850D+03  0.6884262226D-01
      0.2921015530D+02  0.2321844432D+00
      0.9286662960D+01  0.4679413484D+00
      0.3163926960D+01  0.3623119853D+00
 Atom C7       Shell    20 SP   3    bf   53 -    56          6.489285676437         -1.635946061068          0.323133323250
      0.7868272350D+01 -0.1193324198D+00  0.6899906659D-01
      0.1881288540D+01 -0.1608541517D+00  0.3164239610D+00
      0.5442492580D+00  0.1143456438D+01  0.7443082909D+00
 Atom C7       Shell    21 SP   1    bf   57 -    60          6.489285676437         -1.635946061068          0.323133323250
      0.1687144782D+00  0.1000000000D+01  0.1000000000D+01
 Atom C7       Shell    22 D   1     bf   61 -    66          6.489285676437         -1.635946061068          0.323133323250
      0.8000000000D+00  0.1000000000D+01
 Atom C8       Shell    23 S   6     bf   67 -    67          4.023023262231         -0.092768791254          0.800438630244
      0.3047524880D+04  0.1834737132D-02
      0.4573695180D+03  0.1403732281D-01
      0.1039486850D+03  0.6884262226D-01
      0.2921015530D+02  0.2321844432D+00
      0.9286662960D+01  0.4679413484D+00
      0.3163926960D+01  0.3623119853D+00
 Atom C8       Shell    24 SP   3    bf   68 -    71          4.023023262231         -0.092768791254          0.800438630244
      0.7868272350D+01 -0.1193324198D+00  0.6899906659D-01
      0.1881288540D+01 -0.1608541517D+00  0.3164239610D+00
      0.5442492580D+00  0.1143456438D+01  0.7443082909D+00
 Atom C8       Shell    25 SP   1    bf   72 -    75          4.023023262231         -0.092768791254          0.800438630244
      0.1687144782D+00  0.1000000000D+01  0.1000000000D+01
 Atom C8       Shell    26 D   1     bf   76 -    81          4.023023262231         -0.092768791254          0.800438630244
      0.8000000000D+00  0.1000000000D+01
 Atom H9       Shell    27 S   3     bf   82 -    82          4.282098044316          1.805013773260          0.000000000000
      0.1873113696D+02  0.3349460434D-01
      0.2825394365D+01  0.2347269535D+00
      0.6401216923D+00  0.8137573261D+00
 Atom H9       Shell    28 S   1     bf   83 -    83          4.282098044316          1.805013773260          0.000000000000
      0.1612777588D+00  0.1000000000D+01
 Atom H10      Shell    29 S   3     bf   84 -    84          3.757513584718          0.160954645471          2.837548170302
      0.1873113696D+02  0.3349460434D-01
      0.2825394365D+01  0.2347269535D+00
      0.6401216923D+00  0.8137573261D+00
 Atom H10      Shell    30 S   1     bf   85 -    85          3.757513584718          0.160954645471          2.837548170302
      0.1612777588D+00  0.1000000000D+01
 Atom C11      Shell    31 S   6     bf   86 -    86          1.617044566753         -1.247265451508         -0.343779469423
      0.3047524880D+04  0.1834737132D-02
      0.4573695180D+03  0.1403732281D-01
      0.1039486850D+03  0.6884262226D-01
      0.2921015530D+02  0.2321844432D+00
      0.9286662960D+01  0.4679413484D+00
      0.3163926960D+01  0.3623119853D+00
 Atom C11      Shell    32 SP   3    bf   87 -    90          1.617044566753         -1.247265451508         -0.343779469423
      0.7868272350D+01 -0.1193324198D+00  0.6899906659D-01
      0.1881288540D+01 -0.1608541517D+00  0.3164239610D+00
      0.5442492580D+00  0.1143456438D+01  0.7443082909D+00
 Atom C11      Shell    33 SP   1    bf   91 -    94          1.617044566753         -1.247265451508         -0.343779469423
      0.1687144782D+00  0.1000000000D+01  0.1000000000D+01
 Atom C11      Shell    34 D   1     bf   95 -   100          1.617044566753         -1.247265451508         -0.343779469423
      0.8000000000D+00  0.1000000000D+01
 Atom H12      Shell    35 S   3     bf  101 -   101          1.173829560149         -3.060880162084          0.570505919566
      0.1873113696D+02  0.3349460434D-01
      0.2825394365D+01  0.2347269535D+00
      0.6401216923D+00  0.8137573261D+00
 Atom H12      Shell    36 S   1     bf  102 -   102          1.173829560149         -3.060880162084          0.570505919566
      0.1612777588D+00  0.1000000000D+01
 Atom H13      Shell    37 S   3     bf  103 -   103          0.000000000000          0.000000000000          0.000000000000
      0.1873113696D+02  0.3349460434D-01
      0.2825394365D+01  0.2347269535D+00
      0.6401216923D+00  0.8137573261D+00
 Atom H13      Shell    38 S   1     bf  104 -   104          0.000000000000          0.000000000000          0.000000000000
      0.1612777588D+00  0.1000000000D+01
 Atom C14      Shell    39 S   6     bf  105 -   105          8.714579284863         -1.923876129723         -3.907869795659
      0.3047524880D+04  0.1834737132D-02
      0.4573695180D+03  0.1403732281D-01
      0.1039486850D+03  0.6884262226D-01
      0.2921015530D+02  0.2321844432D+00
      0.9286662960D+01  0.4679413484D+00
      0.3163926960D+01  0.3623119853D+00
 Atom C14      Shell    40 SP   3    bf  106 -   109          8.714579284863         -1.923876129723         -3.907869795659
      0.7868272350D+01 -0.1193324198D+00  0.6899906659D-01
      0.1881288540D+01 -0.1608541517D+00  0.3164239610D+00
      0.5442492580D+00  0.1143456438D+01  0.7443082909D+00
 Atom C14      Shell    41 SP   1    bf  110 -   113          8.714579284863         -1.923876129723         -3.907869795659
      0.1687144782D+00  0.1000000000D+01  0.1000000000D+01
 Atom C14      Shell    42 D   1     bf  114 -   119          8.714579284863         -1.923876129723         -3.907869795659
      0.8000000000D+00  0.1000000000D+01
 Atom H15      Shell    43 S   3     bf  120 -   120          8.663119793490         -2.409942660603         -5.905825268490
      0.1873113696D+02  0.3349460434D-01
      0.2825394365D+01  0.2347269535D+00
      0.6401216923D+00  0.8137573261D+00
 Atom H15      Shell    44 S   1     bf  121 -   121          8.663119793490         -2.409942660603         -5.905825268490
      0.1612777588D+00  0.1000000000D+01
 Atom C16      Shell    45 S   6     bf  122 -   122         11.173203879574         -0.897443129241         -2.932085858600
      0.3047524880D+04  0.1834737132D-02
      0.4573695180D+03  0.1403732281D-01
      0.1039486850D+03  0.6884262226D-01
      0.2921015530D+02  0.2321844432D+00
      0.9286662960D+01  0.4679413484D+00
      0.3163926960D+01  0.3623119853D+00
 Atom C16      Shell    46 SP   3    bf  123 -   126         11.173203879574         -0.897443129241         -2.932085858600
      0.7868272350D+01 -0.1193324198D+00  0.6899906659D-01
      0.1881288540D+01 -0.1608541517D+00  0.3164239610D+00
      0.5442492580D+00  0.1143456438D+01  0.7443082909D+00
 Atom C16      Shell    47 SP   1    bf  127 -   130         11.173203879574         -0.897443129241         -2.932085858600
      0.1687144782D+00  0.1000000000D+01  0.1000000000D+01
 Atom C16      Shell    48 D   1     bf  131 -   136         11.173203879574         -0.897443129241         -2.932085858600
      0.8000000000D+00  0.1000000000D+01
 Atom H17      Shell    49 S   3     bf  137 -   137         12.760404625120         -1.967464099170         -3.729673553513
      0.1873113696D+02  0.3349460434D-01
      0.2825394365D+01  0.2347269535D+00
      0.6401216923D+00  0.8137573261D+00
 Atom H17      Shell    50 S   1     bf  138 -   138         12.760404625120         -1.967464099170         -3.729673553513
      0.1612777588D+00  0.1000000000D+01
 Atom C18      Shell    51 S   6     bf  139 -   139         11.327615083748         -0.929322884692         -0.027154041721
      0.3047524880D+04  0.1834737132D-02
      0.4573695180D+03  0.1403732281D-01
      0.1039486850D+03  0.6884262226D-01
      0.2921015530D+02  0.2321844432D+00
      0.9286662960D+01  0.4679413484D+00
      0.3163926960D+01  0.3623119853D+00
 Atom C18      Shell    52 SP   3    bf  140 -   143         11.327615083748         -0.929322884692         -0.027154041721
      0.7868272350D+01 -0.1193324198D+00  0.6899906659D-01
      0.1881288540D+01 -0.1608541517D+00  0.3164239610D+00
      0.5442492580D+00  0.1143456438D+01  0.7443082909D+00
 Atom C18      Shell    53 SP   1    bf  144 -   147         11.327615083748         -0.929322884692         -0.027154041721
      0.1687144782D+00  0.1000000000D+01  0.1000000000D+01
 Atom C18      Shell    54 D   1     bf  148 -   153         11.327615083748         -0.929322884692         -0.027154041721
      0.8000000000D+00  0.1000000000D+01
 Atom H19      Shell    55 S   3     bf  154 -   154         11.614176423765         -2.924503067930          0.474271068228
      0.1873113696D+02  0.3349460434D-01
      0.2825394365D+01  0.2347269535D+00
      0.6401216923D+00  0.8137573261D+00
 Atom H19      Shell    56 S   1     bf  155 -   155         11.614176423765         -2.924503067930          0.474271068228
      0.1612777588D+00  0.1000000000D+01
 Atom C20      Shell    57 S   6     bf  156 -   156          8.812041418838          0.015035190237          1.145593404552
      0.3047524880D+04  0.1834737132D-02
      0.4573695180D+03  0.1403732281D-01
      0.1039486850D+03  0.6884262226D-01
      0.2921015530D+02  0.2321844432D+00
      0.9286662960D+01  0.4679413484D+00
      0.3163926960D+01  0.3623119853D+00
 Atom C20      Shell    58 SP   3    bf  157 -   160          8.812041418838          0.015035190237          1.145593404552
      0.7868272350D+01 -0.1193324198D+00  0.6899906659D-01
      0.1881288540D+01 -0.1608541517D+00  0.3164239610D+00
      0.5442492580D+00  0.1143456438D+01  0.7443082909D+00
 Atom C20      Shell    59 SP   1    bf  161 -   164          8.812041418838          0.015035190237          1.145593404552
      0.1687144782D+00  0.1000000000D+01  0.1000000000D+01
 Atom C20      Shell    60 D   1     bf  165 -   170          8.812041418838          0.015035190237          1.145593404552
      0.8000000000D+00  0.1000000000D+01
 Atom H21      Shell    61 S   3     bf  171 -   171          8.488858055639          1.902620811434          0.337626199881
      0.1873113696D+02  0.3349460434D-01
      0.2825394365D+01  0.2347269535D+00
      0.6401216923D+00  0.8137573261D+00
 Atom H21      Shell    62 S   1     bf  172 -   172          8.488858055639          1.902620811434          0.337626199881
      0.1612777588D+00  0.1000000000D+01
 Atom C22      Shell    63 S   6     bf  173 -   173          9.021343913734          0.354545182511          4.042049950903
      0.3047524880D+04  0.1834737132D-02
      0.4573695180D+03  0.1403732281D-01
      0.1039486850D+03  0.6884262226D-01
      0.2921015530D+02  0.2321844432D+00
      0.9286662960D+01  0.4679413484D+00
      0.3163926960D+01  0.3623119853D+00
 Atom C22      Shell    64 SP   3    bf  174 -   177          9.021343913734          0.354545182511          4.042049950903
      0.7868272350D+01 -0.1193324198D+00  0.6899906659D-01
      0.1881288540D+01 -0.1608541517D+00  0.3164239610D+00
      0.5442492580D+00  0.1143456438D+01  0.7443082909D+00
 Atom C22      Shell    65 SP   1    bf  178 -   181          9.021343913734          0.354545182511          4.042049950903
      0.1687144782D+00  0.1000000000D+01  0.1000000000D+01
 Atom C22      Shell    66 D   1     bf  182 -   187          9.021343913734          0.354545182511          4.042049950903
      0.8000000000D+00  0.1000000000D+01
 Atom H23      Shell    67 S   3     bf  188 -   188          9.039972153650         -1.494507751207          4.969702941303
      0.1873113696D+02  0.3349460434D-01
      0.2825394365D+01  0.2347269535D+00
      0.6401216923D+00  0.8137573261D+00
 Atom H23      Shell    68 S   1     bf  189 -   189          9.039972153650         -1.494507751207          4.969702941303
      0.1612777588D+00  0.1000000000D+01
 Atom H24      Shell    69 S   3     bf  190 -   190          7.332471914916          1.325341414209          4.746242013507
      0.1873113696D+02  0.3349460434D-01
      0.2825394365D+01  0.2347269535D+00
      0.6401216923D+00  0.8137573261D+00
 Atom H24      Shell    70 S   1     bf  191 -   191          7.332471914916          1.325341414209          4.746242013507
      0.1612777588D+00  0.1000000000D+01
 Atom C25      Shell    71 S   6     bf  192 -   192         11.372962728376          1.837878151615          4.917619745820
      0.3047524880D+04  0.1834737132D-02
      0.4573695180D+03  0.1403732281D-01
      0.1039486850D+03  0.6884262226D-01
      0.2921015530D+02  0.2321844432D+00
      0.9286662960D+01  0.4679413484D+00
      0.3163926960D+01  0.3623119853D+00
 Atom C25      Shell    72 SP   3    bf  193 -   196         11.372962728376          1.837878151615          4.917619745820
      0.7868272350D+01 -0.1193324198D+00  0.6899906659D-01
      0.1881288540D+01 -0.1608541517D+00  0.3164239610D+00
      0.5442492580D+00  0.1143456438D+01  0.7443082909D+00
 Atom C25      Shell    73 SP   1    bf  197 -   200         11.372962728376          1.837878151615          4.917619745820
      0.1687144782D+00  0.1000000000D+01  0.1000000000D+01
 Atom C25      Shell    74 D   1     bf  201 -   206         11.372962728376          1.837878151615          4.917619745820
      0.8000000000D+00  0.1000000000D+01
 Atom H26      Shell    75 S   3     bf  207 -   207         11.248445083000          3.800690179683          4.248769341353
      0.1873113696D+02  0.3349460434D-01
      0.2825394365D+01  0.2347269535D+00
      0.6401216923D+00  0.8137573261D+00
 Atom H26      Shell    76 S   1     bf  208 -   208         11.248445083000          3.800690179683          4.248769341353
      0.1612777588D+00  0.1000000000D+01
 Atom H27      Shell    77 S   3     bf  209 -   209         11.355113698133          1.918614187306          6.984156649240
      0.1873113696D+02  0.3349460434D-01
      0.2825394365D+01  0.2347269535D+00
      0.6401216923D+00  0.8137573261D+00
 Atom H27      Shell    78 S   1     bf  210 -   210         11.355113698133          1.918614187306          6.984156649240
      0.1612777588D+00  0.1000000000D+01
 Atom C28      Shell    79 S   6     bf  211 -   211         13.837184805276          0.662363541570          3.894152764989
      0.3047524880D+04  0.1834737132D-02
      0.4573695180D+03  0.1403732281D-01
      0.1039486850D+03  0.6884262226D-01
      0.2921015530D+02  0.2321844432D+00
      0.9286662960D+01  0.4679413484D+00
      0.3163926960D+01  0.3623119853D+00
 Atom C28      Shell    80 SP   3    bf  212 -   215         13.837184805276          0.662363541570          3.894152764989
      0.7868272350D+01 -0.1193324198D+00  0.6899906659D-01
      0.1881288540D+01 -0.1608541517D+00  0.3164239610D+00
      0.5442492580D+00  0.1143456438D+01  0.7443082909D+00
 Atom C28      Shell    81 SP   1    bf  216 -   219         13.837184805276          0.662363541570          3.894152764989
      0.1687144782D+00  0.1000000000D+01  0.1000000000D+01
 Atom C28      Shell    82 D   1     bf  220 -   225         13.837184805276          0.662363541570          3.894152764989
      0.8000000000D+00  0.1000000000D+01
 Atom C29      Shell    83 S   6     bf  226 -   226         13.570211024647          0.622241065290          0.968688279992
      0.3047524880D+04  0.1834737132D-02
      0.4573695180D+03  0.1403732281D-01
      0.1039486850D+03  0.6884262226D-01
      0.2921015530D+02  0.2321844432D+00
      0.9286662960D+01  0.4679413484D+00
      0.3163926960D+01  0.3623119853D+00
 Atom C29      Shell    84 SP   3    bf  227 -   230         13.570211024647          0.622241065290          0.968688279992
      0.7868272350D+01 -0.1193324198D+00  0.6899906659D-01
      0.1881288540D+01 -0.1608541517D+00  0.3164239610D+00
      0.5442492580D+00  0.1143456438D+01  0.7443082909D+00
 Atom C29      Shell    85 SP   1    bf  231 -   234         13.570211024647          0.622241065290          0.968688279992
      0.1687144782D+00  0.1000000000D+01  0.1000000000D+01
 Atom C29      Shell    86 D   1     bf  235 -   240         13.570211024647          0.622241065290          0.968688279992
      0.8000000000D+00  0.1000000000D+01
 Atom H30      Shell    87 S   3     bf  241 -   241         13.199907056866          2.592503263048          0.428751212858
      0.1873113696D+02  0.3349460434D-01
      0.2825394365D+01  0.2347269535D+00
      0.6401216923D+00  0.8137573261D+00
 Atom H30      Shell    88 S   1     bf  242 -   242         13.199907056866          2.592503263048          0.428751212858
      0.1612777588D+00  0.1000000000D+01
 Atom C31      Shell    89 S   6     bf  243 -   243         16.230876633719          0.000000000000          0.000000000000
      0.3047524880D+04  0.1834737132D-02
      0.4573695180D+03  0.1403732281D-01
      0.1039486850D+03  0.6884262226D-01
      0.2921015530D+02  0.2321844432D+00
      0.9286662960D+01  0.4679413484D+00
      0.3163926960D+01  0.3623119853D+00
 Atom C31      Shell    90 SP   3    bf  244 -   247         16.230876633719          0.000000000000          0.000000000000
      0.7868272350D+01 -0.1193324198D+00  0.6899906659D-01
      0.1881288540D+01 -0.1608541517D+00  0.3164239610D+00
      0.5442492580D+00  0.1143456438D+01  0.7443082909D+00
 Atom C31      Shell    91 SP   1    bf  248 -   251         16.230876633719          0.000000000000          0.000000000000
      0.1687144782D+00  0.1000000000D+01  0.1000000000D+01
 Atom C31      Shell    92 D   1     bf  252 -   257         16.230876633719          0.000000000000          0.000000000000
      0.8000000000D+00  0.1000000000D+01
 Atom H32      Shell    93 S   3     bf  258 -   258         16.523709804696          0.660939387265         -1.935880255935
      0.1873113696D+02  0.3349460434D-01
      0.2825394365D+01  0.2347269535D+00
      0.6401216923D+00  0.8137573261D+00
 Atom H32      Shell    94 S   1     bf  259 -   259         16.523709804696          0.660939387265         -1.935880255935
      0.1612777588D+00  0.1000000000D+01
 Atom H33      Shell    95 S   3     bf  260 -   260         16.560118628975         -2.047810624512          0.001353232884
      0.1873113696D+02  0.3349460434D-01
      0.2825394365D+01  0.2347269535D+00
      0.6401216923D+00  0.8137573261D+00
 Atom H33      Shell    96 S   1     bf  261 -   261         16.560118628975         -2.047810624512          0.001353232884
      0.1612777588D+00  0.1000000000D+01
 Atom C34      Shell    97 S   6     bf  262 -   262         17.991754681515          1.349916735650          1.921470527254
      0.3047524880D+04  0.1834737132D-02
      0.4573695180D+03  0.1403732281D-01
      0.1039486850D+03  0.6884262226D-01
      0.2921015530D+02  0.2321844432D+00
      0.9286662960D+01  0.4679413484D+00
      0.3163926960D+01  0.3623119853D+00
 Atom C34      Shell    98 SP   3    bf  263 -   266         17.991754681515          1.349916735650          1.921470527254
      0.7868272350D+01 -0.1193324198D+00  0.6899906659D-01
      0.1881288540D+01 -0.1608541517D+00  0.3164239610D+00
      0.5442492580D+00  0.1143456438D+01  0.7443082909D+00
 Atom C34      Shell    99 SP   1    bf  267 -   270         17.991754681515          1.349916735650          1.921470527254
      0.1687144782D+00  0.1000000000D+01  0.1000000000D+01
 Atom C34      Shell   100 D   1     bf  271 -   276         17.991754681515          1.349916735650          1.921470527254
      0.8000000000D+00  0.1000000000D+01
 Atom H35      Shell   101 S   3     bf  277 -   277         19.445461563657          0.052621143821          2.627373415617
      0.1873113696D+02  0.3349460434D-01
      0.2825394365D+01  0.2347269535D+00
      0.6401216923D+00  0.8137573261D+00
 Atom H35      Shell   102 S   1     bf  278 -   278         19.445461563657          0.052621143821          2.627373415617
      0.1612777588D+00  0.1000000000D+01
 Atom H36      Shell   103 S   3     bf  279 -   279         18.995854936353          2.923245870928          1.033171915050
      0.1873113696D+02  0.3349460434D-01
      0.2825394365D+01  0.2347269535D+00
      0.6401216923D+00  0.8137573261D+00
 Atom H36      Shell   104 S   1     bf  280 -   280         18.995854936353          2.923245870928          1.033171915050
      0.1612777588D+00  0.1000000000D+01
 Atom C37      Shell   105 S   6     bf  281 -   281         16.293420313724          2.304102104565          4.153045566448
      0.3047524880D+04  0.1834737132D-02
      0.4573695180D+03  0.1403732281D-01
      0.1039486850D+03  0.6884262226D-01
      0.2921015530D+02  0.2321844432D+00
      0.9286662960D+01  0.4679413484D+00
      0.3163926960D+01  0.3623119853D+00
 Atom C37      Shell   106 SP   3    bf  282 -   285         16.293420313724          2.304102104565          4.153045566448
      0.7868272350D+01 -0.1193324198D+00  0.6899906659D-01
      0.1881288540D+01 -0.1608541517D+00  0.3164239610D+00
      0.5442492580D+00  0.1143456438D+01  0.7443082909D+00
[...]
 1598 Fit      -0.003116
 1599 Fit      -0.003168
 1600 Fit      -0.003132
 1601 Fit      -0.002480
 1602 Fit      -0.001808
 1603 Fit      -0.000574
 1604 Fit       0.000433
 1605 Fit       0.001490
 1606 Fit       0.001967
 1607 Fit      -0.002064
 1608 Fit      -0.001623
 1609 Fit      -0.000057
 1610 Fit       0.000860
 1611 Fit       0.001911
 1612 Fit       0.002950
 1613 Fit      -0.001786
 1614 Fit      -0.000329
 1615 Fit      -0.001313
 1616 Fit      -0.002166
 1617 Fit      -0.001345
 1618 Fit      -0.000918
 1619 Fit      -0.000218
 1620 Fit      -0.000364
 1621 Fit       0.001346
 1622 Fit      -0.000940
 1623 Fit       0.000291
 1624 Fit       0.001368
 1625 Fit       0.001640
 1626 Fit       0.002519
 1627 Fit       0.000811
 1628 Fit       0.001991
 1629 Fit       0.001484
 1630 Fit       0.000335
 1631 Fit       0.000027
 1632 Fit       0.003080
 1633 Fit       0.002222
 1634 Fit       0.000217
 1635 Fit       0.003703
 1636 Fit       0.002866
 1637 Fit       0.001187
 1638 Fit      -0.001273
 1639 Fit       0.002830
 1640 Fit       0.001428
 1641 Fit      -0.000816
 1642 Fit       0.004277
 1643 Fit      -0.000233
 1644 Fit       0.007779
 1645 Fit       0.005822
 1646 Fit       0.002278
 1647 Fit      -0.003666
 1648 Fit       0.010359
 1649 Fit       0.006502
 1650 Fit       0.001342
 1651 Fit      -0.006338
 1652 Fit       0.002937
 1653 Fit      -0.004773
 1654 Fit      -0.005228
 1655 Fit       0.003450
 1656 Fit       0.004369
 1657 Fit       0.004662
 1658 Fit       0.003644
 1659 Fit       0.002334
 1660 Fit       0.003533
 1661 Fit      -0.002808
 1662 Fit       0.002274
 1663 Fit       0.004024
 1664 Fit       0.007009
 1665 Fit       0.006221
 1666 Fit      -0.000222
 1667 Fit      -0.004738
 1668 Fit       0.000229
 1669 Fit       0.004195
 1670 Fit       0.002669
 1671 Fit       0.021310
 1672 Fit       0.014470
 1673 Fit       0.010479
 1674 Fit       0.006594
 1675 Fit       0.017412
 1676 Fit       0.011311
 1677 Fit       0.007929
 1678 Fit       0.004580
 1679 Fit       0.008756
 1680 Fit       0.006734
 1681 Fit       0.004782
 1682 Fit       0.005115
 1683 Fit       0.006133
 1684 Fit       0.004971
 1685 Fit       0.004313
 1686 Fit       0.003826
 1687 Fit       0.004310
 1688 Fit       0.004601
 1689 Fit       0.003740
 1690 Fit       0.004734
 1691 Fit       0.004869
 1692 Fit       0.003478
 1693 Fit       0.005581
 1694 Fit       0.005903
 1695 Fit       0.009041
 1696 Fit       0.008254
 1697 Fit       0.008555
 1698 Fit       0.009715
 1699 Fit       0.006981
 1700 Fit       0.006837
 1701 Fit       0.007323
 1702 Fit       0.008082
 1703 Fit       0.009471
 1704 Fit       0.005593
 1705 Fit       0.007396
 1706 Fit       0.006252
 1707 Fit       0.004753
 1708 Fit       0.009517
 1709 Fit       0.007844
 1710 Fit       0.009755
 1711 Fit       0.008244
 1712 Fit       0.011304
 1713 Fit       0.012618
 1714 Fit       0.011381
 1715 Fit       0.015805
 1716 Fit       0.017408
 1717 Fit       0.006068
 1718 Fit       0.005498
 1719 Fit       0.005393
 1720 Fit       0.004707
 1721 Fit       0.003999
 1722 Fit       0.004050
 1723 Fit       0.004286
 1724 Fit       0.003133
 1725 Fit       0.001788
 1726 Fit       0.000827
 1727 Fit       0.001962
 1728 Fit       0.002658
 1729 Fit       0.000069
 1730 Fit      -0.003038
 1731 Fit      -0.006252
 1732 Fit      -0.006173
 1733 Fit      -0.000261
 1734 Fit       0.002215
 1735 Fit      -0.000388
 1736 Fit       0.000908
 1737 Fit       0.001205
 1738 Fit       0.001150
 1739 Fit       0.002870
 1740 Fit       0.001523
 1741 Fit       0.012294
 1742 Fit       0.004589
 1743 Fit       0.002568
 1744 Fit      -0.000993
 1745 Fit      -0.001400
 1746 Fit       0.009797
 1747 Fit       0.007459
 1748 Fit       0.005960
 1749 Fit       0.003135
 1750 Fit       0.005153
 1751 Fit       0.005291
 1752 Fit       0.003103
 1753 Fit       0.001731
 1754 Fit      -0.001749
 1755 Fit      -0.011011
 1756 Fit       0.001279
 1757 Fit      -0.000114
 1758 Fit      -0.003728
 1759 Fit      -0.006142
 1760 Fit       0.008246
 1761 Fit       0.006832
 1762 Fit       0.006041
 1763 Fit       0.001693
 1764 Fit      -0.006562
 1765 Fit      -0.000536
 1766 Fit       0.004512
 1767 Fit       0.005032
 1768 Fit       0.005411
 1769 Fit       0.006133
 1770 Fit       0.005044
 1771 Fit       0.007090
 1772 Fit       0.004356
 1773 Fit       0.005659
 1774 Fit       0.003204
 1775 Fit       0.005373
 1776 Fit       0.007299
 1777 Fit       0.008534
 1778 Fit       0.003478
 1779 Fit       0.005459
 1780 Fit       0.003483
 1781 Fit       0.004960
 1782 Fit      -0.000364
 1783 Fit       0.000446
 1784 Fit       0.002551
 1785 Fit       0.000162
 1786 Fit       0.000511
 1787 Fit       0.000864
 1788 Fit       0.000937
 1789 Fit       0.001415
 1790 Fit       0.000279
 1791 Fit       0.000678
 1792 Fit       0.001471
 1793 Fit       0.002814
 1794 Fit      -0.002161
 1795 Fit      -0.001506
 1796 Fit       0.000084
 1797 Fit       0.002009
 1798 Fit       0.003945
 1799 Fit       0.005221
 1800 Fit      -0.000162
 1801 Fit       0.001680
 1802 Fit       0.003373
 1803 Fit       0.004319
 1804 Fit       0.004926
 1805 Fit      -0.008269
 1806 Fit      -0.008705
 1807 Fit      -0.009108
 1808 Fit      -0.009360
 1809 Fit      -0.019731
 1810 Fit      -0.005972
 1811 Fit      -0.004905
 1812 Fit      -0.003944
 1813 Fit      -0.012255
 1814 Fit      -0.007670
 1815 Fit      -0.009478
 1816 Fit      -0.014602
 1817 Fit      -0.005803
 1818 Fit      -0.006902
 1819 Fit      -0.012075
 1820 Fit      -0.019322
 1821 Fit      -0.011187
 1822 Fit       0.004659
 1823 Fit       0.003655
 1824 Fit       0.002597
 1825 Fit       0.004493
 1826 Fit       0.002645
 1827 Fit       0.000913
 1828 Fit      -0.001160
 1829 Fit       0.002828
 1830 Fit       0.000098
 1831 Fit      -0.002552
 1832 Fit      -0.002706
 1833 Fit      -0.002120
 1834 Fit      -0.003880
 1835 Fit      -0.003692
 1836 Fit      -0.005510
 1837 Fit       0.003679
 1838 Fit       0.002158
 1839 Fit       0.001013
 1840 Fit       0.000284
 1841 Fit      -0.002043
 1842 Fit      -0.002290
 1843 Fit      -0.001586
 1844 Fit      -0.001907
 1845 Fit      -0.002775
 1846 Fit      -0.004127
 1847 Fit      -0.003730
 1848 Fit      -0.003102
 1849 Fit      -0.003834
 1850 Fit      -0.006266
 1851 Fit      -0.011186
 1852 Fit      -0.005819
 1853 Fit      -0.006413
 1854 Fit       0.000737
 1855 Fit      -0.001148
 1856 Fit      -0.000794
 1857 Fit      -0.000118
 1858 Fit      -0.003484
 1859 Fit      -0.003601
 1860 Fit       0.001595
 1861 Fit       0.000883
 1862 Fit       0.001196
 1863 Fit       0.001638
 1864 Fit       0.002770
 1865 Fit       0.005297
 1866 Fit       0.003079
 1867 Fit       0.005257
 1868 Fit       0.002751
 1869 Fit       0.007672
 1870 Fit       0.004426
 1871 Fit       0.002425
 1872 Fit       0.001824
 1873 Fit       0.002590
 1874 Fit       0.003160
 1875 Fit       0.002903
 1876 Fit       0.003353
 1877 Fit       0.003701
 1878 Fit       0.004321
 1879 Fit       0.005264
 1880 Fit       0.003976
 1881 Fit       0.003325
 1882 Fit       0.004654
 1883 Fit       0.003459
 1884 Fit       0.002478
 1885 Fit       0.002116
 1886 Fit       0.002577
 1887 Fit       0.003049
 1888 Fit       0.003203
 1889 Fit      -0.000476
 1890 Fit      -0.001046
 1891 Fit      -0.001310
 1892 Fit      -0.000671
 1893 Fit       0.000881
 1894 Fit      -0.000857
 1895 Fit       0.000285
 1896 Fit       0.002038
 1897 Fit      -0.001007
 1898 Fit      -0.000430
 1899 Fit      -0.000300
 1900 Fit      -0.000684
 1901 Fit      -0.001126
 1902 Fit      -0.000006
 1903 Fit       0.000665
 1904 Fit       0.000711
 1905 Fit       0.000141
 1906 Fit       0.000776
 1907 Fit       0.001170
 1908 Fit       0.001066
 1909 Fit      -0.000085
 1910 Fit       0.001205
 1911 Fit       0.001051
 1912 Fit       0.001308
 1913 Fit       0.001807
 1914 Fit       0.001751
 1915 Fit       0.000455
 1916 Fit       0.000085
 1917 Fit       0.000705
 1918 Fit       0.001345
 1919 Fit      -0.000172
 1920 Fit       0.000750
 1921 Fit       0.001044
 1922 Fit       0.001746
 1923 Fit       0.001797
 1924 Fit       0.003865
 1925 Fit       0.004330
 1926 Fit       0.003587
 1927 Fit       0.005989
 1928 Fit       0.005760
 1929 Fit       0.007108
 1930 Fit       0.010010
 1931 Fit       0.008854
 1932 Fit       0.007136
 1933 Fit       0.005687
 1934 Fit       0.005451
 1935 Fit       0.005768
 1936 Fit       0.006311
 1937 Fit       0.004958
 1938 Fit       0.008080
 1939 Fit       0.008538
 1940 Fit       0.008627
 1941 Fit       0.007732
 1942 Fit       0.007331
 1943 Fit       0.009628
 1944 Fit       0.008633
 1945 Fit       0.007558
 1946 Fit       0.006474
 1947 Fit       0.006120
 1948 Fit       0.011167
 1949 Fit       0.009398
 1950 Fit       0.016156
 1951 Fit       0.012633
 1952 Fit       0.009433
 1953 Fit       0.016881
 1954 Fit       0.011728
 1955 Fit       0.007914
 1956 Fit       0.006380
 1957 Fit       0.006156
 1958 Fit       0.007288
 1959 Fit       0.005906
 1960 Fit       0.006965
 1961 Fit       0.004546
 1962 Fit      -0.013786
 1963 Fit      -0.009227
 1964 Fit      -0.023987
 1965 Fit      -0.021669
 1966 Fit      -0.016696
 1967 Fit      -0.010460
 1968 Fit      -0.004281
 1969 Fit       0.000149
 1970 Fit      -0.021765
 1971 Fit      -0.024461
 1972 Fit      -0.024301
 1973 Fit      -0.020270
 1974 Fit      -0.012122
 1975 Fit      -0.017947
 1976 Fit      -0.022246
 1977 Fit      -0.022723
 1978 Fit      -0.019909
 1979 Fit      -0.012602
 1980 Fit      -0.010749
 1981 Fit      -0.015870
 1982 Fit      -0.019775
 1983 Fit      -0.018768
 1984 Fit      -0.017242
 1985 Fit      -0.011412
 1986 Fit      -0.000555
 1987 Fit       0.001085
 1988 Fit      -0.007674
 1989 Fit      -0.013758
 1990 Fit      -0.017356
 1991 Fit      -0.011860
 1992 Fit      -0.006021
 1993 Fit      -0.000742
 1994 Fit      -0.009473
 1995 Fit      -0.002345
 1996 Fit       0.003267
 1997 Fit       0.009874
 1998 Fit       0.012608
 1999 Fit      -0.000986
 2000 Fit       0.008767
 2001 Fit       0.014434
 2002 Fit       0.016648
 2003 Fit       0.015773
 2004 Fit       0.009832
 2005 Fit       0.015492
 2006 Fit       0.017070
 2007 Fit       0.015510
 2008 Fit       0.011991
 2009 Fit       0.012298
 2010 Fit       0.013984
 2011 Fit       0.008749
 2012 Fit       0.007503
 2013 Fit      -0.000562
 2014 Fit      -0.013941
 2015 Fit      -0.011243
 2016 Fit      -0.001684
 2017 Fit      -0.018083
 2018 Fit      -0.019995
 2019 Fit      -0.016714
 2020 Fit      -0.008739
 2021 Fit      -0.020051
 2022 Fit      -0.023099
 2023 Fit      -0.020887
 2024 Fit      -0.014198
 2025 Fit      -0.005098
 2026 Fit       0.004976
 2027 Fit      -0.015423
 2028 Fit      -0.021851
 2029 Fit      -0.023953
 2030 Fit      -0.021170
 2031 Fit      -0.015306
 2032 Fit      -0.009702
 2033 Fit      -0.007102
 2034 Fit      -0.016019
 2035 Fit      -0.021902
 2036 Fit      -0.022091
 2037 Fit      -0.017593
 2038 Fit      -0.014433
 2039 Fit      -0.019663
 2040 Fit       0.012117
 2041 Fit       0.019168
 2042 Fit       0.023562
 2043 Fit       0.001181
 2044 Fit       0.010834
 2045 Fit       0.017076
 2046 Fit       0.020715
 2047 Fit       0.022682
 2048 Fit       0.005073
 2049 Fit       0.011876
 2050 Fit       0.015373
 2051 Fit       0.016322
 2052 Fit       0.002648
 2053 Fit       0.006501
 2054 Fit       0.005579
 2055 Fit      -0.001449
 2056 Fit      -0.002724
 2057 Fit      -0.000522
 2058 Fit      -0.001959
 2059 Fit      -0.000907
 2060 Fit      -0.000794
 2061 Fit      -0.000038
 2062 Fit       0.000696
 2063 Fit      -0.001332
 2064 Fit      -0.000790
 2065 Fit      -0.000140
 2066 Fit       0.000423
 2067 Fit      -0.001854
 2068 Fit      -0.001212
 2069 Fit      -0.000728
 2070 Fit      -0.002790
 2071 Fit      -0.002498
 2072 Fit      -0.000981
 2073 Fit      -0.002113
 2074 Fit      -0.002059
 2075 Fit      -0.001726
 2076 Fit      -0.000909
 2077 Fit      -0.001438
 2078 Fit      -0.000597
 2079 Fit      -0.000287
 2080 Fit      -0.000926
 2081 Fit      -0.001911
 2082 Fit       0.000353
 2083 Fit      -0.000330
 2084 Fit      -0.001243
 2085 Fit       0.000265
 2086 Fit      -0.001095
 2087 Fit       0.000928
 2088 Fit      -0.000147
 2089 Fit       0.000153
 2090 Fit       0.001147
 2091 Fit       0.001509
 2092 Fit      -0.000948
 2093 Fit       0.000009
 2094 Fit       0.000652
 2095 Fit      -0.001834
 2096 Fit      -0.000876
 2097 Fit      -0.000548
 2098 Fit      -0.000650
 2099 Fit      -0.001442
 2100 Fit       0.000486
 2101 Fit       0.000039
 2102 Fit       0.001404
 2103 Fit       0.001768
 2104 Fit       0.000840
 2105 Fit       0.003004
 2106 Fit       0.000171
 2107 Fit       0.001047
 2108 Fit       0.000684
 2109 Fit       0.000043
 2110 Fit      -0.000652
 2111 Fit      -0.001007
 2112 Fit       0.000106
 2113 Fit       0.001729
 2114 Fit       0.001171
 2115 Fit       0.000244
 2116 Fit      -0.000441
 2117 Fit      -0.000044
 2118 Fit       0.001333
 2119 Fit       0.000104
 2120 Fit      -0.001954
 2121 Fit      -0.002353
 2122 Fit      -0.002513
 2123 Fit      -0.002962
 2124 Fit      -0.002875
 2125 Fit      -0.002873
 2126 Fit      -0.002692
 2127 Fit      -0.002666
 2128 Fit      -0.002500
 2129 Fit      -0.001819
 2130 Fit      -0.001302
 2131 Fit      -0.002198
 2132 Fit       0.001629
 2133 Fit       0.001351
 2134 Fit       0.000700
 2135 Fit       0.000702
 2136 Fit       0.000279
 2137 Fit      -0.000360
 2138 Fit       0.000432
 2139 Fit      -0.000722
 2140 Fit      -0.000578
 2141 Fit      -0.000811
 2142 Fit      -0.001174
 2143 Fit      -0.001249
 2144 Fit      -0.002397
 2145 Fit      -0.002303
 2146 Fit      -0.002305
 2147 Fit      -0.001416
 2148 Fit      -0.001126
 2149 Fit      -0.002456
 2150 Fit       0.000984
 2151 Fit      -0.000007
 2152 Fit      -0.000410
 2153 Fit      -0.001872
 2154 Fit       0.001363
 2155 Fit       0.001419
 2156 Fit       0.000740
 2157 Fit      -0.000442
 2158 Fit      -0.001965
 2159 Fit      -0.000216
 2160 Fit       0.000431
 2161 Fit      -0.001089
 2162 Fit      -0.001786
 2163 Fit       0.000053
 2164 Fit      -0.001362
 2165 Fit       0.000152
 2166 Fit       0.000955
 2167 Fit      -0.002197
 2168 Fit      -0.000640
 2169 Fit       0.000194
 2170 Fit      -0.001387
 2171 Fit      -0.000648
 2172 Fit      -0.002033
 2173 Fit      -0.002040
 2174 Fit      -0.001727
 2175 Fit      -0.001754
 2176 Fit      -0.002351
 2177 Fit      -0.002163
 2178 Fit      -0.001982
 2179 Fit      -0.002212
 2180 Fit      -0.002172
 2181 Fit      -0.002124
 2182 Fit      -0.002219
 2183 Fit      -0.001461
 2184 Fit      -0.000381
 2185 Fit       0.000219
 2186 Fit       0.000243
 2187 Fit       0.001010
 2188 Fit       0.001396
 2189 Fit      -0.001379
 2190 Fit      -0.001094
 2191 Fit      -0.000080
 2192 Fit       0.000806
 2193 Fit       0.001594
 2194 Fit      -0.001147
 2195 Fit      -0.000097
 2196 Fit      -0.000347
 2197 Fit       0.000608
 2198 Fit      -0.001920
 2199 Fit      -0.001067
 2200 Fit      -0.001470
 2201 Fit      -0.001155
 2202 Fit      -0.001342
 2203 Fit      -0.000296
 2204 Fit      -0.000680
 2205 Fit       0.000011
 2206 Fit       0.000390
 2207 Fit       0.000267
 2208 Fit       0.001483
 2209 Fit      -0.000155
 2210 Fit       0.000488
 2211 Fit       0.001158
 2212 Fit       0.001393
 2213 Fit       0.001930
 2214 Fit       0.000729
 2215 Fit       0.001438
 2216 Fit       0.001095
 2217 Fit      -0.000085
 2218 Fit      -0.000253
 2219 Fit       0.002169
 2220 Fit       0.001490
 2221 Fit      -0.000014
 2222 Fit       0.002906
 2223 Fit       0.002030
 2224 Fit       0.000547
 2225 Fit      -0.001353
 2226 Fit       0.002717
 2227 Fit       0.001774
 2228 Fit       0.000228
 2229 Fit       0.002607
 2230 Fit       0.001095
 -----------------------------------------------------------------
 Leave Link  602 at Wed Apr 26 14:58:07 2017, MaxMem=    33554432 cpu:         4.1
 (Enter /home/michal/g09/l9999.exe)

 Test job not archived.
 1\1\GINC-LINUX\SP\RHF\6-31G(d)\C27H46O3\MICHAL\26-Apr-2017\0\\#P HF/6-
 31G* SCF(Conver=6) NoSymm Test Pop=mk IOp(6/33=2) GFInput GFPrint\\MEP
  - Input generated by R.E.D.-III.x MOLECULE\\0,1\C,0,1.01491764,-0.885
 2036,-1.68548925\H,0,1.14640593,0.08455695,-2.18100601\C,0,2.25024599,
 -1.75650199,-1.96279096\H,0,2.38950518,-1.86543482,-3.04284975\H,0,2.0
 4425506,-2.76405224,-1.56840705\C,0,3.50836805,-1.19663527,-1.32488178
 \C,0,3.43398208,-0.86570537,0.17099479\C,0,2.12889222,-0.04909113,0.42
 357388\H,0,2.26598869,0.95517215,0.\H,0,1.98839055,0.08517353,1.501565
 82\C,0,0.85570313,-0.66002445,-0.18192026\H,0,0.62116385,-1.61974802,0
 .30189873\H,0,0.,0.,0.\C,0,4.61155674,-1.0180714,-2.06795563\H,0,4.584
 32555,-1.27528673,-3.12522813\C,0,5.91260484,-0.47490645,-1.55159301\H
 ,0,6.7525153,-1.04113716,-1.97365824\C,0,5.99431573,-0.49177649,-0.014
 3693\H,0,6.14595746,-1.54758037,0.25097344\C,0,4.66313148,0.00795628,0
 .60622192\H,0,4.49211021,1.00682357,0.17866409\C,0,4.77388959,0.187617
 23,2.13896071\H,0,4.78374723,-0.79085944,2.62985353\H,0,3.88017702,0.7
 0134047,2.5116031\C,0,6.01831267,0.97256323,2.60229229\H,0,5.95242077,
 2.01123862,2.2483519\H,0,6.00886737,1.0152869,3.69585652\C,0,7.3223228
 3,0.35050769,2.06069689\C,0,7.18104639,0.32927579,0.51260776\H,0,6.985
 08997,1.37189364,0.22688537\C,0,8.58900999,0.,0.\H,0,8.74397063,0.3497
 5406,-1.02442371\H,0,8.76323735,-1.08365471,0.0007161\C,0,9.52082652,0
 .71434517,1.01679841\H,0,10.29009507,0.02784591,1.39034613\H,0,10.0521
 7349,1.54691509,0.54673103\C,0,8.62210668,1.21927832,2.19769706\H,0,8.
 31985498,2.25467082,1.97398935\C,0,7.55413831,-1.05551389,2.65944877\H
 ,0,6.75908014,-1.75863947,2.39792794\H,0,8.49668005,-1.49379443,2.3176
 5716\H,0,7.59468498,-1.00921473,3.75277501\C,0,9.3832439,1.25907953,3.
 54930902\H,0,9.74302234,0.2408675,3.75585094\C,0,8.50254192,1.69846544
 ,4.73156255\H,0,8.0565282,2.68365183,4.54487109\H,0,9.08435791,1.76952
 831,5.65544472\H,0,7.68916531,0.99522308,4.92285073\C,0,3.37330807,-2.
 20201178,0.9608183\H,0,3.1222985,-2.03190361,2.01199359\H,0,2.61594289
 ,-2.87714584,0.5554169\H,0,4.33044658,-2.73098918,0.91868954\O,0,6.100
 53532,0.90723224,-1.96359221\O,0,6.2821847,0.91603001,-3.40742275\H,0,
 5.44150217,1.30792135,-3.6965816\O,0,-0.16261258,-1.42806611,-2.288163
 99\H,0,-0.35592352,-2.2823758,-1.87712878\C,0,10.62186327,2.18325913,3
 .42492659\H,0,11.20861109,1.88114379,2.55117148\H,0,10.2676987,3.20211
 304,3.20788531\C,0,11.56438507,2.25329647,4.64344408\H,0,12.36600055,2
 .96427525,4.40587556\H,0,11.03662037,2.69230101,5.49895458\C,0,12.1847
 6795,0.91803299,5.09685625\H,0,11.38585944,0.24357342,5.4339105\H,0,12
 .8052492,1.11052134,5.9847557\C,0,13.04831629,0.16885833,4.05986334\H,
 0,12.42694651,-0.03331486,3.17552398\C,0,14.26296847,0.99192863,3.6019
 4741\H,0,14.90694668,1.24250467,4.45506969\H,0,14.86889893,0.4284347,2
 .88332554\H,0,13.96902144,1.92977209,3.11978479\C,0,13.49913482,-1.187
 71293,4.62510898\H,0,14.13111936,-1.05099881,5.51208371\H,0,14.0800338
 7,-1.75362907,3.88785046\H,0,12.64125805,-1.80296813,4.92029602\\Versi
 on=EM64L-G09RevD.01\HF=-1273.6819307\RMSD=5.447e-07\Dipole=-0.402135,-
 0.5728041,0.6933252\Quadrupole=-10.6605436,8.6854436,1.9751,-4.2256646
 ,3.5724985,-0.1665337\PG=C01 [X(C27H46O3)]\\@


 SATCHEL PAIGE'S GUIDE TO LONGEVITY

    1.  AVOID FRIED MEATS, WHICH ANGRY UP THE BLOOD.

    2.  IF YOUR STOMACH DISPUTES YOU, LIE DOWN AND PACIFY IT WITH COOL
        THOUGHTS.

    3.  KEEP THE JUICES FLOWING BY JANGLING AROUND GENTLY AS YOU MOVE.

    4.  GO VERY LIGHT ON THE VICES, SUCH AS CARRYING ON IN SOCIETY.
        THE SOCIAL RUMBLE AIN'T RESTFUL.

    5.  AVOID RUNNING AT ALL TIMES.

    6.  DON'T LOOK BACK.  SOMETHING MAY BE GAINING ON YOU.
 Job cpu time:       0 days  0 hours 12 minutes 38.4 seconds.
 File lengths (MBytes):  RWF=    159 Int=      0 D2E=      0 Chk=     11 Scr=      1
 Normal termination of Gaussian 09 at Wed Apr 26 14:58:07 2017.
