 Entering Gaussian System, Link 0=/home/michal/g09/g09
 Input=JOB2-gau_m1-18-3.com
 Output=JOB2-gau_m1-18-3.log
 Initial command:
 /home/michal/g09/l1.exe "/home/michal/gauss_scratch/Gau-13822.inp" -scrdir="/home/michal/gauss_scratch/"
 Entering Link 1 = /home/michal/g09/l1.exe PID=     13823.
  
 Copyright (c) 1988,1990,1992,1993,1995,1998,2003,2009,2013,
            Gaussian, Inc.  All Rights Reserved.
  
 This is part of the Gaussian(R) 09 program.  It is based on
 the Gaussian(R) 03 system (copyright 2003, Gaussian, Inc.),
 the Gaussian(R) 98 system (copyright 1998, Gaussian, Inc.),
 the Gaussian(R) 94 system (copyright 1995, Gaussian, Inc.),
 the Gaussian 92(TM) system (copyright 1992, Gaussian, Inc.),
 the Gaussian 90(TM) system (copyright 1990, Gaussian, Inc.),
 the Gaussian 88(TM) system (copyright 1988, Gaussian, Inc.),
 the Gaussian 86(TM) system (copyright 1986, Carnegie Mellon
 University), and the Gaussian 82(TM) system (copyright 1983,
 Carnegie Mellon University). Gaussian is a federally registered
 trademark of Gaussian, Inc.
  
 This software contains proprietary and confidential information,
 including trade secrets, belonging to Gaussian, Inc.
  
 This software is provided under written license and may be
 used, copied, transmitted, or stored only in accord with that
 written license.
  
 The following legend is applicable only to US Government
 contracts under FAR:
  
                    RESTRICTED RIGHTS LEGEND
  
 Use, reproduction and disclosure by the US Government is
 subject to restrictions as set forth in subparagraphs (a)
 and (c) of the Commercial Computer Software - Restricted
 Rights clause in FAR 52.227-19.
  
 Gaussian, Inc.
 340 Quinnipiac St., Bldg. 40, Wallingford CT 06492
  
  
 ---------------------------------------------------------------
 Warning -- This program may not be used in any manner that
 competes with the business of Gaussian, Inc. or will provide
 assistance to any competitor of Gaussian, Inc.  The licensee
 of this program is prohibited from giving any competitor of
 Gaussian, Inc. access to this program.  By using this program,
 the user acknowledges that Gaussian, Inc. is engaged in the
 business of creating and licensing software in the field of
 computational chemistry and represents and warrants to the
 licensee that it is not a competitor of Gaussian, Inc. and that
 it will not use this program in any manner prohibited above.
 ---------------------------------------------------------------
  

 Cite this work as:
 Gaussian 09, Revision D.01,
 M. J. Frisch, G. W. Trucks, H. B. Schlegel, G. E. Scuseria, 
 M. A. Robb, J. R. Cheeseman, G. Scalmani, V. Barone, B. Mennucci, 
 G. A. Petersson, H. Nakatsuji, M. Caricato, X. Li, H. P. Hratchian, 
 A. F. Izmaylov, J. Bloino, G. Zheng, J. L. Sonnenberg, M. Hada, 
 M. Ehara, K. Toyota, R. Fukuda, J. Hasegawa, M. Ishida, T. Nakajima, 
 Y. Honda, O. Kitao, H. Nakai, T. Vreven, J. A. Montgomery, Jr., 
 J. E. Peralta, F. Ogliaro, M. Bearpark, J. J. Heyd, E. Brothers, 
 K. N. Kudin, V. N. Staroverov, T. Keith, R. Kobayashi, J. Normand, 
 K. Raghavachari, A. Rendell, J. C. Burant, S. S. Iyengar, J. Tomasi, 
 M. Cossi, N. Rega, J. M. Millam, M. Klene, J. E. Knox, J. B. Cross, 
 V. Bakken, C. Adamo, J. Jaramillo, R. Gomperts, R. E. Stratmann, 
 O. Yazyev, A. J. Austin, R. Cammi, C. Pomelli, J. W. Ochterski, 
 R. L. Martin, K. Morokuma, V. G. Zakrzewski, G. A. Voth, 
 P. Salvador, J. J. Dannenberg, S. Dapprich, A. D. Daniels, 
 O. Farkas, J. B. Foresman, J. V. Ortiz, J. Cioslowski, 
 and D. J. Fox, Gaussian, Inc., Wallingford CT, 2013.
 
 ******************************************
 Gaussian 09:  EM64L-G09RevD.01 24-Apr-2013
                26-Apr-2017 
 ******************************************
 %Mem=256MB
 %NProc=12
 Will use up to   12 processors via shared memory.
 ----------------------------------------------------------------------
 #P HF/6-31G* SCF(Conver=6) NoSymm Test Pop=mk IOp(6/33=2) GFInput GFPr
 int
 ----------------------------------------------------------------------
 1/38=1/1;
 2/12=2,15=1,17=6,18=5,40=1/2;
 3/5=1,6=6,7=1,11=9,16=1,24=110,25=1,30=1/1,2,3;
 4//1;
 5/5=2,6=6,38=5/2;
 6/7=2,8=2,9=2,10=2,15=8,20=1,28=1,33=2/1,2;
 99/5=1,9=1/99;
 Leave Link    1 at Wed Apr 26 14:33:29 2017, MaxMem=    33554432 cpu:         0.6
 (Enter /home/michal/g09/l101.exe)
 ----------------------------------------------
 MEP - Input generated by R.E.D.-III.x MOLECULE
 ----------------------------------------------
 Symbolic Z-matrix:
 Charge =  0 Multiplicity = 1
 C                    -0.96545   2.00645   1.68441 
 H                    -0.97975   1.02855   2.18112 
 C                     0.38586   2.68462   1.96083 
 H                     0.54006   2.77233   3.0408 
 H                     0.33171   3.71132   1.56585 
 C                     1.54661   1.94361   1.32305 
 C                     1.42371   1.6284   -0.17301 
 C                     0.01229   1.01314  -0.42442 
 H                     0.        0.        0. 
 H                    -0.14714   0.90022  -1.50223 
 C                    -1.15662   1.8057    0.18105 
 H                    -1.24733   2.78909  -0.30359 
 H                    -2.1004    1.27896   0. 
 C                     2.61035   1.60179   2.06646 
 H                     2.62139   1.85961   3.12387 
 C                     3.81562   0.87064   1.54984 
 H                     4.73073   1.30352   1.97341 
 C                     3.90047   0.8785    0.01287 
 H                     4.20798   1.90058  -0.24979 
 C                     2.51032   0.58357  -0.61064 
 H                     2.19291  -0.38034  -0.18644 
 C                     2.5939    0.39478  -2.14422 
 H                     2.74927   1.36274  -2.63134 
 H                     1.63368   0.02132  -2.51843 
 C                     3.70808  -0.56476  -2.61056 
 H                     3.48671  -1.584    -2.26319 
 H                     3.69738  -0.59878  -3.70475 
 C                     5.08819  -0.14642  -2.06347 
 C                     4.95124  -0.10962  -0.51578 
 H                     4.59903  -1.11152  -0.23441 
 C                     6.3932    0.        0. 
 H                     6.49272  -0.38837   1.01736 
 H                     6.72447   1.0462    0.02086 
 C                     7.21401  -0.82155  -1.03286 
 H                     8.05588  -0.23294  -1.4163 
 H                     7.64764  -1.71776  -0.57836 
 C                     6.24181  -1.2003   -2.19877 
 H                     5.78507  -2.17131  -1.95756 
 C                     5.52725   1.20968  -2.66058 
 H                     4.84403   2.02252  -2.40109 
 H                     6.52325   1.50461  -2.3167 
 H                     5.56239   1.15697  -3.75405 
 C                     6.97532  -1.35949  -3.55353 
 H                     7.43765  -0.39033  -3.79177 
 C                     6.04377  -1.72052  -4.72616 
 H                     5.4155   -2.58867  -4.49753 
 H                     6.63046  -1.96225  -5.62043 
 H                     5.37821  -0.89445  -4.98953 
 C                     1.56006   2.95983  -0.96171 
 H                     1.28271   2.83027  -2.012 
 H                     0.91345   3.73995  -0.55302 
 H                     2.5856    3.34001  -0.92279 
 O                     3.79375  -0.52484   1.95917 
 O                     3.97213  -0.56341   3.40292 
 H                     3.08197  -0.82446   3.69172 
 O                    -2.04902   2.71922   2.28632 
 H                    -2.11322   3.59217   1.874 
 C                     8.15188  -2.36861  -3.46836 
 H                     8.67205  -2.35281  -4.43696 
 H                     8.88403  -2.01242  -2.73293 
 C                     7.7889   -3.82544  -3.13472 
 H                     7.30072  -3.86859  -2.15351 
 H                     7.05757  -4.19912  -3.86153 
 C                     9.02661  -4.73789  -3.1339 
 H                     9.76008  -4.33434  -2.42072 
 H                     9.50458  -4.68099  -4.12273 
 C                     8.78985  -6.22796  -2.79427 
 H                     9.77712  -6.71007  -2.85122 
 C                     8.26977  -6.43446  -1.36191 
 H                     7.25708  -6.03409  -1.23696 
 H                     8.23203  -7.50069  -1.11085 
 H                     8.91713  -5.94132  -0.62723 
 C                     7.88414  -6.93297  -3.81764 
 H                     6.85717  -6.55184  -3.77866 
 H                     7.83982  -8.01046  -3.62185 
 H                     8.25391  -6.79434  -4.8405 
 
 NAtoms=     76 NQM=       76 NQMF=       0 NMMI=      0 NMMIF=      0
                NMic=       0 NMicF=      0.
                    Isotopes and Nuclear Properties:
 (Nuclear quadrupole moments (NQMom) in fm**2, nuclear magnetic moments (NMagM)
  in nuclear magnetons)

  Atom         1           2           3           4           5           6           7           8           9          10
 IAtWgt=          12           1          12           1           1          12          12          12           1           1
 AtmWgt=  12.0000000   1.0078250  12.0000000   1.0078250   1.0078250  12.0000000  12.0000000  12.0000000   1.0078250   1.0078250
 NucSpn=           0           1           0           1           1           0           0           0           1           1
 AtZEff=   0.0000000   0.0000000   0.0000000   0.0000000   0.0000000   0.0000000   0.0000000   0.0000000   0.0000000   0.0000000
 NQMom=    0.0000000   0.0000000   0.0000000   0.0000000   0.0000000   0.0000000   0.0000000   0.0000000   0.0000000   0.0000000
 NMagM=    0.0000000   2.7928460   0.0000000   2.7928460   2.7928460   0.0000000   0.0000000   0.0000000   2.7928460   2.7928460
 AtZNuc=   6.0000000   1.0000000   6.0000000   1.0000000   1.0000000   6.0000000   6.0000000   6.0000000   1.0000000   1.0000000

  Atom        11          12          13          14          15          16          17          18          19          20
 IAtWgt=          12           1           1          12           1          12           1          12           1          12
 AtmWgt=  12.0000000   1.0078250   1.0078250  12.0000000   1.0078250  12.0000000   1.0078250  12.0000000   1.0078250  12.0000000
 NucSpn=           0           1           1           0           1           0           1           0           1           0
 AtZEff=   0.0000000   0.0000000   0.0000000   0.0000000   0.0000000   0.0000000   0.0000000   0.0000000   0.0000000   0.0000000
 NQMom=    0.0000000   0.0000000   0.0000000   0.0000000   0.0000000   0.0000000   0.0000000   0.0000000   0.0000000   0.0000000
 NMagM=    0.0000000   2.7928460   2.7928460   0.0000000   2.7928460   0.0000000   2.7928460   0.0000000   2.7928460   0.0000000
 AtZNuc=   6.0000000   1.0000000   1.0000000   6.0000000   1.0000000   6.0000000   1.0000000   6.0000000   1.0000000   6.0000000

  Atom        21          22          23          24          25          26          27          28          29          30
 IAtWgt=           1          12           1           1          12           1           1          12          12           1
 AtmWgt=   1.0078250  12.0000000   1.0078250   1.0078250  12.0000000   1.0078250   1.0078250  12.0000000  12.0000000   1.0078250
 NucSpn=           1           0           1           1           0           1           1           0           0           1
 AtZEff=   0.0000000   0.0000000   0.0000000   0.0000000   0.0000000   0.0000000   0.0000000   0.0000000   0.0000000   0.0000000
 NQMom=    0.0000000   0.0000000   0.0000000   0.0000000   0.0000000   0.0000000   0.0000000   0.0000000   0.0000000   0.0000000
 NMagM=    2.7928460   0.0000000   2.7928460   2.7928460   0.0000000   2.7928460   2.7928460   0.0000000   0.0000000   2.7928460
 AtZNuc=   1.0000000   6.0000000   1.0000000   1.0000000   6.0000000   1.0000000   1.0000000   6.0000000   6.0000000   1.0000000

  Atom        31          32          33          34          35          36          37          38          39          40
 IAtWgt=          12           1           1          12           1           1          12           1          12           1
 AtmWgt=  12.0000000   1.0078250   1.0078250  12.0000000   1.0078250   1.0078250  12.0000000   1.0078250  12.0000000   1.0078250
 NucSpn=           0           1           1           0           1           1           0           1           0           1
 AtZEff=   0.0000000   0.0000000   0.0000000   0.0000000   0.0000000   0.0000000   0.0000000   0.0000000   0.0000000   0.0000000
 NQMom=    0.0000000   0.0000000   0.0000000   0.0000000   0.0000000   0.0000000   0.0000000   0.0000000   0.0000000   0.0000000
 NMagM=    0.0000000   2.7928460   2.7928460   0.0000000   2.7928460   2.7928460   0.0000000   2.7928460   0.0000000   2.7928460
 AtZNuc=   6.0000000   1.0000000   1.0000000   6.0000000   1.0000000   1.0000000   6.0000000   1.0000000   6.0000000   1.0000000

  Atom        41          42          43          44          45          46          47          48          49          50
 IAtWgt=           1           1          12           1          12           1           1           1          12           1
 AtmWgt=   1.0078250   1.0078250  12.0000000   1.0078250  12.0000000   1.0078250   1.0078250   1.0078250  12.0000000   1.0078250
 NucSpn=           1           1           0           1           0           1           1           1           0           1
 AtZEff=   0.0000000   0.0000000   0.0000000   0.0000000   0.0000000   0.0000000   0.0000000   0.0000000   0.0000000   0.0000000
 NQMom=    0.0000000   0.0000000   0.0000000   0.0000000   0.0000000   0.0000000   0.0000000   0.0000000   0.0000000   0.0000000
 NMagM=    2.7928460   2.7928460   0.0000000   2.7928460   0.0000000   2.7928460   2.7928460   2.7928460   0.0000000   2.7928460
 AtZNuc=   1.0000000   1.0000000   6.0000000   1.0000000   6.0000000   1.0000000   1.0000000   1.0000000   6.0000000   1.0000000

  Atom        51          52          53          54          55          56          57          58          59          60
 IAtWgt=           1           1          16          16           1          16           1          12           1           1
 AtmWgt=   1.0078250   1.0078250  15.9949146  15.9949146   1.0078250  15.9949146   1.0078250  12.0000000   1.0078250   1.0078250
 NucSpn=           1           1           0           0           1           0           1           0           1           1
 AtZEff=   0.0000000   0.0000000   0.0000000   0.0000000   0.0000000   0.0000000   0.0000000   0.0000000   0.0000000   0.0000000
 NQMom=    0.0000000   0.0000000   0.0000000   0.0000000   0.0000000   0.0000000   0.0000000   0.0000000   0.0000000   0.0000000
 NMagM=    2.7928460   2.7928460   0.0000000   0.0000000   2.7928460   0.0000000   2.7928460   0.0000000   2.7928460   2.7928460
 AtZNuc=   1.0000000   1.0000000   8.0000000   8.0000000   1.0000000   8.0000000   1.0000000   6.0000000   1.0000000   1.0000000

  Atom        61          62          63          64          65          66          67          68          69          70
 IAtWgt=          12           1           1          12           1           1          12           1          12           1
 AtmWgt=  12.0000000   1.0078250   1.0078250  12.0000000   1.0078250   1.0078250  12.0000000   1.0078250  12.0000000   1.0078250
 NucSpn=           0           1           1           0           1           1           0           1           0           1
 AtZEff=   0.0000000   0.0000000   0.0000000   0.0000000   0.0000000   0.0000000   0.0000000   0.0000000   0.0000000   0.0000000
 NQMom=    0.0000000   0.0000000   0.0000000   0.0000000   0.0000000   0.0000000   0.0000000   0.0000000   0.0000000   0.0000000
 NMagM=    0.0000000   2.7928460   2.7928460   0.0000000   2.7928460   2.7928460   0.0000000   2.7928460   0.0000000   2.7928460
 AtZNuc=   6.0000000   1.0000000   1.0000000   6.0000000   1.0000000   1.0000000   6.0000000   1.0000000   6.0000000   1.0000000

  Atom        71          72          73          74          75          76
 IAtWgt=           1           1          12           1           1           1
 AtmWgt=   1.0078250   1.0078250  12.0000000   1.0078250   1.0078250   1.0078250
 NucSpn=           1           1           0           1           1           1
 AtZEff=   0.0000000   0.0000000   0.0000000   0.0000000   0.0000000   0.0000000
 NQMom=    0.0000000   0.0000000   0.0000000   0.0000000   0.0000000   0.0000000
 NMagM=    2.7928460   2.7928460   0.0000000   2.7928460   2.7928460   2.7928460
 AtZNuc=   1.0000000   1.0000000   6.0000000   1.0000000   1.0000000   1.0000000
 Leave Link  101 at Wed Apr 26 14:33:29 2017, MaxMem=    33554432 cpu:         1.8
 (Enter /home/michal/g09/l202.exe)
 Symmetry turned off by external request.
 Stoichiometry    C27H46O3
 Framework group  C1[X(C27H46O3)]
 Deg. of freedom   222
 Full point group                 C1      NOp   1
                          Input orientation:                          
 ---------------------------------------------------------------------
 Center     Atomic      Atomic             Coordinates (Angstroms)
 Number     Number       Type             X           Y           Z
 ---------------------------------------------------------------------
      1          6           0       -0.965450    2.006449    1.684405
      2          1           0       -0.979752    1.028550    2.181120
      3          6           0        0.385860    2.684622    1.960831
      4          1           0        0.540063    2.772331    3.040798
      5          1           0        0.331707    3.711322    1.565851
      6          6           0        1.546608    1.943614    1.323054
      7          6           0        1.423712    1.628396   -0.173010
      8          6           0        0.012295    1.013139   -0.424425
      9          1           0        0.000000    0.000000    0.000000
     10          1           0       -0.147141    0.900221   -1.502231
     11          6           0       -1.156616    1.805705    0.181050
     12          1           0       -1.247325    2.789095   -0.303587
     13          1           0       -2.100396    1.278964    0.000000
     14          6           0        2.610346    1.601786    2.066456
     15          1           0        2.621393    1.859607    3.123867
     16          6           0        3.815615    0.870644    1.549839
     17          1           0        4.730732    1.303518    1.973407
     18          6           0        3.900472    0.878498    0.012866
     19          1           0        4.207977    1.900581   -0.249785
     20          6           0        2.510320    0.583574   -0.610638
     21          1           0        2.192914   -0.380340   -0.186440
     22          6           0        2.593904    0.394782   -2.144216
     23          1           0        2.749269    1.362740   -2.631345
     24          1           0        1.633678    0.021324   -2.518426
     25          6           0        3.708085   -0.564757   -2.610565
     26          1           0        3.486713   -1.584002   -2.263188
     27          1           0        3.697384   -0.598777   -3.704751
     28          6           0        5.088189   -0.146418   -2.063472
     29          6           0        4.951236   -0.109618   -0.515783
     30          1           0        4.599032   -1.111519   -0.234413
     31          6           0        6.393205    0.000000    0.000000
     32          1           0        6.492717   -0.388373    1.017363
     33          1           0        6.724469    1.046200    0.020858
     34          6           0        7.214015   -0.821553   -1.032859
     35          1           0        8.055875   -0.232941   -1.416301
     36          1           0        7.647640   -1.717757   -0.578357
     37          6           0        6.241814   -1.200303   -2.198771
     38          1           0        5.785066   -2.171314   -1.957565
     39          6           0        5.527255    1.209685   -2.660580
     40          1           0        4.844030    2.022517   -2.401092
     41          1           0        6.523245    1.504615   -2.316704
     42          1           0        5.562393    1.156972   -3.754051
     43          6           0        6.975322   -1.359490   -3.553530
     44          1           0        7.437655   -0.390330   -3.791768
     45          6           0        6.043774   -1.720520   -4.726160
     46          1           0        5.415497   -2.588673   -4.497532
     47          1           0        6.630458   -1.962245   -5.620431
     48          1           0        5.378210   -0.894447   -4.989527
     49          6           0        1.560058    2.959825   -0.961712
     50          1           0        1.282714    2.830267   -2.012002
     51          1           0        0.913447    3.739954   -0.553022
     52          1           0        2.585600    3.340006   -0.922788
     53          8           0        3.793751   -0.524843    1.959168
     54          8           0        3.972126   -0.563412    3.402918
     55          1           0        3.081971   -0.824455    3.691719
     56          8           0       -2.049024    2.719221    2.286322
     57          1           0       -2.113224    3.592166    1.874001
     58          6           0        8.151881   -2.368611   -3.468360
     59          1           0        8.672054   -2.352813   -4.436957
     60          1           0        8.884034   -2.012423   -2.732931
     61          6           0        7.788901   -3.825436   -3.134722
     62          1           0        7.300716   -3.868594   -2.153513
     63          1           0        7.057574   -4.199117   -3.861534
     64          6           0        9.026614   -4.737890   -3.133898
     65          1           0        9.760081   -4.334342   -2.420725
     66          1           0        9.504580   -4.680988   -4.122731
     67          6           0        8.789849   -6.227959   -2.794273
     68          1           0        9.777118   -6.710068   -2.851218
     69          6           0        8.269769   -6.434464   -1.361909
     70          1           0        7.257085   -6.034090   -1.236961
     71          1           0        8.232034   -7.500686   -1.110853
     72          1           0        8.917133   -5.941317   -0.627234
     73          6           0        7.884143   -6.932973   -3.817636
     74          1           0        6.857166   -6.551838   -3.778660
     75          1           0        7.839822   -8.010460   -3.621853
     76          1           0        8.253908   -6.794341   -4.840503
 ---------------------------------------------------------------------
 Rotational constants (GHZ):      0.3073833      0.0605756      0.0576626
 Leave Link  202 at Wed Apr 26 14:33:29 2017, MaxMem=    33554432 cpu:         0.0
 (Enter /home/michal/g09/l301.exe)
 Standard basis: 6-31G(d) (6D, 7F)
 Ernie: Thresh=  0.10000D-02 Tol=  0.10000D-05 Strict=F.
 AO basis set in the form of general basis input (Overlap normalization):
      1 0
 S   6 1.00       0.000000000000
      0.3047524880D+04  0.1834737132D-02
      0.4573695180D+03  0.1403732281D-01
      0.1039486850D+03  0.6884262226D-01
      0.2921015530D+02  0.2321844432D+00
      0.9286662960D+01  0.4679413484D+00
      0.3163926960D+01  0.3623119853D+00
 SP   3 1.00       0.000000000000
      0.7868272350D+01 -0.1193324198D+00  0.6899906659D-01
      0.1881288540D+01 -0.1608541517D+00  0.3164239610D+00
      0.5442492580D+00  0.1143456438D+01  0.7443082909D+00
 SP   1 1.00       0.000000000000
      0.1687144782D+00  0.1000000000D+01  0.1000000000D+01
 D   1 1.00       0.000000000000
      0.8000000000D+00  0.1000000000D+01
 ****
      2 0
 S   3 1.00       0.000000000000
      0.1873113696D+02  0.3349460434D-01
      0.2825394365D+01  0.2347269535D+00
      0.6401216923D+00  0.8137573261D+00
 S   1 1.00       0.000000000000
      0.1612777588D+00  0.1000000000D+01
 ****
      3 0
 S   6 1.00       0.000000000000
      0.3047524880D+04  0.1834737132D-02
      0.4573695180D+03  0.1403732281D-01
      0.1039486850D+03  0.6884262226D-01
      0.2921015530D+02  0.2321844432D+00
      0.9286662960D+01  0.4679413484D+00
      0.3163926960D+01  0.3623119853D+00
 SP   3 1.00       0.000000000000
      0.7868272350D+01 -0.1193324198D+00  0.6899906659D-01
      0.1881288540D+01 -0.1608541517D+00  0.3164239610D+00
      0.5442492580D+00  0.1143456438D+01  0.7443082909D+00
 SP   1 1.00       0.000000000000
      0.1687144782D+00  0.1000000000D+01  0.1000000000D+01
 D   1 1.00       0.000000000000
      0.8000000000D+00  0.1000000000D+01
 ****
      4 0
 S   3 1.00       0.000000000000
      0.1873113696D+02  0.3349460434D-01
      0.2825394365D+01  0.2347269535D+00
      0.6401216923D+00  0.8137573261D+00
 S   1 1.00       0.000000000000
      0.1612777588D+00  0.1000000000D+01
 ****
      5 0
 S   3 1.00       0.000000000000
      0.1873113696D+02  0.3349460434D-01
      0.2825394365D+01  0.2347269535D+00
      0.6401216923D+00  0.8137573261D+00
 S   1 1.00       0.000000000000
      0.1612777588D+00  0.1000000000D+01
 ****
      6 0
 S   6 1.00       0.000000000000
      0.3047524880D+04  0.1834737132D-02
      0.4573695180D+03  0.1403732281D-01
      0.1039486850D+03  0.6884262226D-01
      0.2921015530D+02  0.2321844432D+00
      0.9286662960D+01  0.4679413484D+00
      0.3163926960D+01  0.3623119853D+00
 SP   3 1.00       0.000000000000
      0.7868272350D+01 -0.1193324198D+00  0.6899906659D-01
      0.1881288540D+01 -0.1608541517D+00  0.3164239610D+00
      0.5442492580D+00  0.1143456438D+01  0.7443082909D+00
 SP   1 1.00       0.000000000000
      0.1687144782D+00  0.1000000000D+01  0.1000000000D+01
 D   1 1.00       0.000000000000
      0.8000000000D+00  0.1000000000D+01
 ****
      7 0
 S   6 1.00       0.000000000000
      0.3047524880D+04  0.1834737132D-02
      0.4573695180D+03  0.1403732281D-01
      0.1039486850D+03  0.6884262226D-01
      0.2921015530D+02  0.2321844432D+00
      0.9286662960D+01  0.4679413484D+00
      0.3163926960D+01  0.3623119853D+00
 SP   3 1.00       0.000000000000
      0.7868272350D+01 -0.1193324198D+00  0.6899906659D-01
      0.1881288540D+01 -0.1608541517D+00  0.3164239610D+00
      0.5442492580D+00  0.1143456438D+01  0.7443082909D+00
 SP   1 1.00       0.000000000000
      0.1687144782D+00  0.1000000000D+01  0.1000000000D+01
 D   1 1.00       0.000000000000
      0.8000000000D+00  0.1000000000D+01
 ****
      8 0
 S   6 1.00       0.000000000000
      0.3047524880D+04  0.1834737132D-02
      0.4573695180D+03  0.1403732281D-01
      0.1039486850D+03  0.6884262226D-01
      0.2921015530D+02  0.2321844432D+00
      0.9286662960D+01  0.4679413484D+00
      0.3163926960D+01  0.3623119853D+00
 SP   3 1.00       0.000000000000
      0.7868272350D+01 -0.1193324198D+00  0.6899906659D-01
      0.1881288540D+01 -0.1608541517D+00  0.3164239610D+00
      0.5442492580D+00  0.1143456438D+01  0.7443082909D+00
 SP   1 1.00       0.000000000000
      0.1687144782D+00  0.1000000000D+01  0.1000000000D+01
 D   1 1.00       0.000000000000
      0.8000000000D+00  0.1000000000D+01
 ****
      9 0
 S   3 1.00       0.000000000000
      0.1873113696D+02  0.3349460434D-01
      0.2825394365D+01  0.2347269535D+00
      0.6401216923D+00  0.8137573261D+00
 S   1 1.00       0.000000000000
      0.1612777588D+00  0.1000000000D+01
 ****
     10 0
 S   3 1.00       0.000000000000
      0.1873113696D+02  0.3349460434D-01
      0.2825394365D+01  0.2347269535D+00
      0.6401216923D+00  0.8137573261D+00
 S   1 1.00       0.000000000000
      0.1612777588D+00  0.1000000000D+01
 ****
     11 0
 S   6 1.00       0.000000000000
      0.3047524880D+04  0.1834737132D-02
      0.4573695180D+03  0.1403732281D-01
      0.1039486850D+03  0.6884262226D-01
      0.2921015530D+02  0.2321844432D+00
      0.9286662960D+01  0.4679413484D+00
      0.3163926960D+01  0.3623119853D+00
 SP   3 1.00       0.000000000000
      0.7868272350D+01 -0.1193324198D+00  0.6899906659D-01
      0.1881288540D+01 -0.1608541517D+00  0.3164239610D+00
      0.5442492580D+00  0.1143456438D+01  0.7443082909D+00
 SP   1 1.00       0.000000000000
      0.1687144782D+00  0.1000000000D+01  0.1000000000D+01
 D   1 1.00       0.000000000000
      0.8000000000D+00  0.1000000000D+01
 ****
     12 0
 S   3 1.00       0.000000000000
      0.1873113696D+02  0.3349460434D-01
      0.2825394365D+01  0.2347269535D+00
      0.6401216923D+00  0.8137573261D+00
 S   1 1.00       0.000000000000
      0.1612777588D+00  0.1000000000D+01
 ****
     13 0
 S   3 1.00       0.000000000000
      0.1873113696D+02  0.3349460434D-01
      0.2825394365D+01  0.2347269535D+00
      0.6401216923D+00  0.8137573261D+00
 S   1 1.00       0.000000000000
      0.1612777588D+00  0.1000000000D+01
 ****
     14 0
 S   6 1.00       0.000000000000
      0.3047524880D+04  0.1834737132D-02
      0.4573695180D+03  0.1403732281D-01
      0.1039486850D+03  0.6884262226D-01
      0.2921015530D+02  0.2321844432D+00
      0.9286662960D+01  0.4679413484D+00
      0.3163926960D+01  0.3623119853D+00
 SP   3 1.00       0.000000000000
      0.7868272350D+01 -0.1193324198D+00  0.6899906659D-01
      0.1881288540D+01 -0.1608541517D+00  0.3164239610D+00
      0.5442492580D+00  0.1143456438D+01  0.7443082909D+00
 SP   1 1.00       0.000000000000
      0.1687144782D+00  0.1000000000D+01  0.1000000000D+01
 D   1 1.00       0.000000000000
      0.8000000000D+00  0.1000000000D+01
 ****
     15 0
 S   3 1.00       0.000000000000
      0.1873113696D+02  0.3349460434D-01
      0.2825394365D+01  0.2347269535D+00
      0.6401216923D+00  0.8137573261D+00
 S   1 1.00       0.000000000000
      0.1612777588D+00  0.1000000000D+01
 ****
     16 0
 S   6 1.00       0.000000000000
      0.3047524880D+04  0.1834737132D-02
      0.4573695180D+03  0.1403732281D-01
      0.1039486850D+03  0.6884262226D-01
      0.2921015530D+02  0.2321844432D+00
      0.9286662960D+01  0.4679413484D+00
      0.3163926960D+01  0.3623119853D+00
 SP   3 1.00       0.000000000000
      0.7868272350D+01 -0.1193324198D+00  0.6899906659D-01
      0.1881288540D+01 -0.1608541517D+00  0.3164239610D+00
      0.5442492580D+00  0.1143456438D+01  0.7443082909D+00
 SP   1 1.00       0.000000000000
      0.1687144782D+00  0.1000000000D+01  0.1000000000D+01
 D   1 1.00       0.000000000000
      0.8000000000D+00  0.1000000000D+01
 ****
     17 0
 S   3 1.00       0.000000000000
      0.1873113696D+02  0.3349460434D-01
      0.2825394365D+01  0.2347269535D+00
      0.6401216923D+00  0.8137573261D+00
 S   1 1.00       0.000000000000
      0.1612777588D+00  0.1000000000D+01
 ****
     18 0
 S   6 1.00       0.000000000000
      0.3047524880D+04  0.1834737132D-02
      0.4573695180D+03  0.1403732281D-01
      0.1039486850D+03  0.6884262226D-01
      0.2921015530D+02  0.2321844432D+00
      0.9286662960D+01  0.4679413484D+00
      0.3163926960D+01  0.3623119853D+00
 SP   3 1.00       0.000000000000
      0.7868272350D+01 -0.1193324198D+00  0.6899906659D-01
      0.1881288540D+01 -0.1608541517D+00  0.3164239610D+00
      0.5442492580D+00  0.1143456438D+01  0.7443082909D+00
 SP   1 1.00       0.000000000000
      0.1687144782D+00  0.1000000000D+01  0.1000000000D+01
 D   1 1.00       0.000000000000
      0.8000000000D+00  0.1000000000D+01
 ****
     19 0
 S   3 1.00       0.000000000000
      0.1873113696D+02  0.3349460434D-01
      0.2825394365D+01  0.2347269535D+00
      0.6401216923D+00  0.8137573261D+00
 S   1 1.00       0.000000000000
      0.1612777588D+00  0.1000000000D+01
 ****
     20 0
 S   6 1.00       0.000000000000
      0.3047524880D+04  0.1834737132D-02
      0.4573695180D+03  0.1403732281D-01
      0.1039486850D+03  0.6884262226D-01
      0.2921015530D+02  0.2321844432D+00
      0.9286662960D+01  0.4679413484D+00
      0.3163926960D+01  0.3623119853D+00
 SP   3 1.00       0.000000000000
      0.7868272350D+01 -0.1193324198D+00  0.6899906659D-01
      0.1881288540D+01 -0.1608541517D+00  0.3164239610D+00
      0.5442492580D+00  0.1143456438D+01  0.7443082909D+00
 SP   1 1.00       0.000000000000
      0.1687144782D+00  0.1000000000D+01  0.1000000000D+01
 D   1 1.00       0.000000000000
      0.8000000000D+00  0.1000000000D+01
 ****
     21 0
 S   3 1.00       0.000000000000
      0.1873113696D+02  0.3349460434D-01
      0.2825394365D+01  0.2347269535D+00
      0.6401216923D+00  0.8137573261D+00
 S   1 1.00       0.000000000000
      0.1612777588D+00  0.1000000000D+01
 ****
     22 0
 S   6 1.00       0.000000000000
      0.3047524880D+04  0.1834737132D-02
      0.4573695180D+03  0.1403732281D-01
      0.1039486850D+03  0.6884262226D-01
      0.2921015530D+02  0.2321844432D+00
      0.9286662960D+01  0.4679413484D+00
      0.3163926960D+01  0.3623119853D+00
 SP   3 1.00       0.000000000000
      0.7868272350D+01 -0.1193324198D+00  0.6899906659D-01
      0.1881288540D+01 -0.1608541517D+00  0.3164239610D+00
      0.5442492580D+00  0.1143456438D+01  0.7443082909D+00
 SP   1 1.00       0.000000000000
      0.1687144782D+00  0.1000000000D+01  0.1000000000D+01
 D   1 1.00       0.000000000000
      0.8000000000D+00  0.1000000000D+01
 ****
     23 0
 S   3 1.00       0.000000000000
      0.1873113696D+02  0.3349460434D-01
      0.2825394365D+01  0.2347269535D+00
      0.6401216923D+00  0.8137573261D+00
 S   1 1.00       0.000000000000
      0.1612777588D+00  0.1000000000D+01
 ****
     24 0
 S   3 1.00       0.000000000000
      0.1873113696D+02  0.3349460434D-01
      0.2825394365D+01  0.2347269535D+00
      0.6401216923D+00  0.8137573261D+00
 S   1 1.00       0.000000000000
      0.1612777588D+00  0.1000000000D+01
 ****
     25 0
 S   6 1.00       0.000000000000
      0.3047524880D+04  0.1834737132D-02
      0.4573695180D+03  0.1403732281D-01
      0.1039486850D+03  0.6884262226D-01
      0.2921015530D+02  0.2321844432D+00
      0.9286662960D+01  0.4679413484D+00
      0.3163926960D+01  0.3623119853D+00
 SP   3 1.00       0.000000000000
      0.7868272350D+01 -0.1193324198D+00  0.6899906659D-01
      0.1881288540D+01 -0.1608541517D+00  0.3164239610D+00
      0.5442492580D+00  0.1143456438D+01  0.7443082909D+00
 SP   1 1.00       0.000000000000
      0.1687144782D+00  0.1000000000D+01  0.1000000000D+01
 D   1 1.00       0.000000000000
      0.8000000000D+00  0.1000000000D+01
 ****
     26 0
 S   3 1.00       0.000000000000
      0.1873113696D+02  0.3349460434D-01
      0.2825394365D+01  0.2347269535D+00
      0.6401216923D+00  0.8137573261D+00
 S   1 1.00       0.000000000000
      0.1612777588D+00  0.1000000000D+01
 ****
     27 0
 S   3 1.00       0.000000000000
      0.1873113696D+02  0.3349460434D-01
      0.2825394365D+01  0.2347269535D+00
      0.6401216923D+00  0.8137573261D+00
 S   1 1.00       0.000000000000
      0.1612777588D+00  0.1000000000D+01
 ****
     28 0
 S   6 1.00       0.000000000000
      0.3047524880D+04  0.1834737132D-02
      0.4573695180D+03  0.1403732281D-01
      0.1039486850D+03  0.6884262226D-01
      0.2921015530D+02  0.2321844432D+00
      0.9286662960D+01  0.4679413484D+00
      0.3163926960D+01  0.3623119853D+00
 SP   3 1.00       0.000000000000
      0.7868272350D+01 -0.1193324198D+00  0.6899906659D-01
      0.1881288540D+01 -0.1608541517D+00  0.3164239610D+00
      0.5442492580D+00  0.1143456438D+01  0.7443082909D+00
 SP   1 1.00       0.000000000000
      0.1687144782D+00  0.1000000000D+01  0.1000000000D+01
 D   1 1.00       0.000000000000
      0.8000000000D+00  0.1000000000D+01
 ****
     29 0
 S   6 1.00       0.000000000000
      0.3047524880D+04  0.1834737132D-02
      0.4573695180D+03  0.1403732281D-01
      0.1039486850D+03  0.6884262226D-01
      0.2921015530D+02  0.2321844432D+00
      0.9286662960D+01  0.4679413484D+00
      0.3163926960D+01  0.3623119853D+00
 SP   3 1.00       0.000000000000
      0.7868272350D+01 -0.1193324198D+00  0.6899906659D-01
      0.1881288540D+01 -0.1608541517D+00  0.3164239610D+00
      0.5442492580D+00  0.1143456438D+01  0.7443082909D+00
 SP   1 1.00       0.000000000000
      0.1687144782D+00  0.1000000000D+01  0.1000000000D+01
 D   1 1.00       0.000000000000
      0.8000000000D+00  0.1000000000D+01
 ****
     30 0
 S   3 1.00       0.000000000000
      0.1873113696D+02  0.3349460434D-01
      0.2825394365D+01  0.2347269535D+00
      0.6401216923D+00  0.8137573261D+00
 S   1 1.00       0.000000000000
      0.1612777588D+00  0.1000000000D+01
 ****
     31 0
 S   6 1.00       0.000000000000
      0.3047524880D+04  0.1834737132D-02
      0.4573695180D+03  0.1403732281D-01
      0.1039486850D+03  0.6884262226D-01
      0.2921015530D+02  0.2321844432D+00
      0.9286662960D+01  0.4679413484D+00
      0.3163926960D+01  0.3623119853D+00
 SP   3 1.00       0.000000000000
      0.7868272350D+01 -0.1193324198D+00  0.6899906659D-01
      0.1881288540D+01 -0.1608541517D+00  0.3164239610D+00
      0.5442492580D+00  0.1143456438D+01  0.7443082909D+00
 SP   1 1.00       0.000000000000
      0.1687144782D+00  0.1000000000D+01  0.1000000000D+01
 D   1 1.00       0.000000000000
      0.8000000000D+00  0.1000000000D+01
 ****
     32 0
 S   3 1.00       0.000000000000
      0.1873113696D+02  0.3349460434D-01
      0.2825394365D+01  0.2347269535D+00
      0.6401216923D+00  0.8137573261D+00
 S   1 1.00       0.000000000000
      0.1612777588D+00  0.1000000000D+01
 ****
     33 0
 S   3 1.00       0.000000000000
      0.1873113696D+02  0.3349460434D-01
      0.2825394365D+01  0.2347269535D+00
      0.6401216923D+00  0.8137573261D+00
 S   1 1.00       0.000000000000
      0.1612777588D+00  0.1000000000D+01
 ****
     34 0
 S   6 1.00       0.000000000000
      0.3047524880D+04  0.1834737132D-02
      0.4573695180D+03  0.1403732281D-01
      0.1039486850D+03  0.6884262226D-01
      0.2921015530D+02  0.2321844432D+00
      0.9286662960D+01  0.4679413484D+00
      0.3163926960D+01  0.3623119853D+00
 SP   3 1.00       0.000000000000
      0.7868272350D+01 -0.1193324198D+00  0.6899906659D-01
      0.1881288540D+01 -0.1608541517D+00  0.3164239610D+00
      0.5442492580D+00  0.1143456438D+01  0.7443082909D+00
 SP   1 1.00       0.000000000000
      0.1687144782D+00  0.1000000000D+01  0.1000000000D+01
 D   1 1.00       0.000000000000
      0.8000000000D+00  0.1000000000D+01
 ****
     35 0
 S   3 1.00       0.000000000000
      0.1873113696D+02  0.3349460434D-01
      0.2825394365D+01  0.2347269535D+00
      0.6401216923D+00  0.8137573261D+00
 S   1 1.00       0.000000000000
      0.1612777588D+00  0.1000000000D+01
 ****
     36 0
 S   3 1.00       0.000000000000
      0.1873113696D+02  0.3349460434D-01
      0.2825394365D+01  0.2347269535D+00
      0.6401216923D+00  0.8137573261D+00
 S   1 1.00       0.000000000000
      0.1612777588D+00  0.1000000000D+01
 ****
     37 0
 S   6 1.00       0.000000000000
      0.3047524880D+04  0.1834737132D-02
      0.4573695180D+03  0.1403732281D-01
      0.1039486850D+03  0.6884262226D-01
      0.2921015530D+02  0.2321844432D+00
      0.9286662960D+01  0.4679413484D+00
      0.3163926960D+01  0.3623119853D+00
 SP   3 1.00       0.000000000000
      0.7868272350D+01 -0.1193324198D+00  0.6899906659D-01
      0.1881288540D+01 -0.1608541517D+00  0.3164239610D+00
      0.5442492580D+00  0.1143456438D+01  0.7443082909D+00
 SP   1 1.00       0.000000000000
      0.1687144782D+00  0.1000000000D+01  0.1000000000D+01
 D   1 1.00       0.000000000000
      0.8000000000D+00  0.1000000000D+01
 ****
     38 0
 S   3 1.00       0.000000000000
      0.1873113696D+02  0.3349460434D-01
      0.2825394365D+01  0.2347269535D+00
      0.6401216923D+00  0.8137573261D+00
 S   1 1.00       0.000000000000
      0.1612777588D+00  0.1000000000D+01
 ****
     39 0
 S   6 1.00       0.000000000000
      0.3047524880D+04  0.1834737132D-02
      0.4573695180D+03  0.1403732281D-01
      0.1039486850D+03  0.6884262226D-01
      0.2921015530D+02  0.2321844432D+00
      0.9286662960D+01  0.4679413484D+00
      0.3163926960D+01  0.3623119853D+00
 SP   3 1.00       0.000000000000
      0.7868272350D+01 -0.1193324198D+00  0.6899906659D-01
      0.1881288540D+01 -0.1608541517D+00  0.3164239610D+00
      0.5442492580D+00  0.1143456438D+01  0.7443082909D+00
 SP   1 1.00       0.000000000000
      0.1687144782D+00  0.1000000000D+01  0.1000000000D+01
 D   1 1.00       0.000000000000
      0.8000000000D+00  0.1000000000D+01
 ****
     40 0
 S   3 1.00       0.000000000000
      0.1873113696D+02  0.3349460434D-01
      0.2825394365D+01  0.2347269535D+00
      0.6401216923D+00  0.8137573261D+00
 S   1 1.00       0.000000000000
      0.1612777588D+00  0.1000000000D+01
 ****
     41 0
 S   3 1.00       0.000000000000
      0.1873113696D+02  0.3349460434D-01
      0.2825394365D+01  0.2347269535D+00
      0.6401216923D+00  0.8137573261D+00
 S   1 1.00       0.000000000000
      0.1612777588D+00  0.1000000000D+01
 ****
     42 0
 S   3 1.00       0.000000000000
      0.1873113696D+02  0.3349460434D-01
      0.2825394365D+01  0.2347269535D+00
      0.6401216923D+00  0.8137573261D+00
 S   1 1.00       0.000000000000
      0.1612777588D+00  0.1000000000D+01
 ****
     43 0
 S   6 1.00       0.000000000000
      0.3047524880D+04  0.1834737132D-02
      0.4573695180D+03  0.1403732281D-01
      0.1039486850D+03  0.6884262226D-01
      0.2921015530D+02  0.2321844432D+00
      0.9286662960D+01  0.4679413484D+00
      0.3163926960D+01  0.3623119853D+00
 SP   3 1.00       0.000000000000
      0.7868272350D+01 -0.1193324198D+00  0.6899906659D-01
      0.1881288540D+01 -0.1608541517D+00  0.3164239610D+00
      0.5442492580D+00  0.1143456438D+01  0.7443082909D+00
 SP   1 1.00       0.000000000000
      0.1687144782D+00  0.1000000000D+01  0.1000000000D+01
 D   1 1.00       0.000000000000
      0.8000000000D+00  0.1000000000D+01
 ****
     44 0
 S   3 1.00       0.000000000000
      0.1873113696D+02  0.3349460434D-01
      0.2825394365D+01  0.2347269535D+00
      0.6401216923D+00  0.8137573261D+00
 S   1 1.00       0.000000000000
      0.1612777588D+00  0.1000000000D+01
 ****
     45 0
 S   6 1.00       0.000000000000
      0.3047524880D+04  0.1834737132D-02
      0.4573695180D+03  0.1403732281D-01
      0.1039486850D+03  0.6884262226D-01
      0.2921015530D+02  0.2321844432D+00
      0.9286662960D+01  0.4679413484D+00
      0.3163926960D+01  0.3623119853D+00
 SP   3 1.00       0.000000000000
      0.7868272350D+01 -0.1193324198D+00  0.6899906659D-01
      0.1881288540D+01 -0.1608541517D+00  0.3164239610D+00
      0.5442492580D+00  0.1143456438D+01  0.7443082909D+00
 SP   1 1.00       0.000000000000
      0.1687144782D+00  0.1000000000D+01  0.1000000000D+01
 D   1 1.00       0.000000000000
      0.8000000000D+00  0.1000000000D+01
 ****
     46 0
 S   3 1.00       0.000000000000
      0.1873113696D+02  0.3349460434D-01
      0.2825394365D+01  0.2347269535D+00
      0.6401216923D+00  0.8137573261D+00
 S   1 1.00       0.000000000000
      0.1612777588D+00  0.1000000000D+01
 ****
     47 0
 S   3 1.00       0.000000000000
      0.1873113696D+02  0.3349460434D-01
      0.2825394365D+01  0.2347269535D+00
      0.6401216923D+00  0.8137573261D+00
 S   1 1.00       0.000000000000
      0.1612777588D+00  0.1000000000D+01
 ****
     48 0
 S   3 1.00       0.000000000000
      0.1873113696D+02  0.3349460434D-01
      0.2825394365D+01  0.2347269535D+00
      0.6401216923D+00  0.8137573261D+00
 S   1 1.00       0.000000000000
      0.1612777588D+00  0.1000000000D+01
 ****
     49 0
 S   6 1.00       0.000000000000
      0.3047524880D+04  0.1834737132D-02
      0.4573695180D+03  0.1403732281D-01
      0.1039486850D+03  0.6884262226D-01
      0.2921015530D+02  0.2321844432D+00
      0.9286662960D+01  0.4679413484D+00
      0.3163926960D+01  0.3623119853D+00
 SP   3 1.00       0.000000000000
      0.7868272350D+01 -0.1193324198D+00  0.6899906659D-01
      0.1881288540D+01 -0.1608541517D+00  0.3164239610D+00
      0.5442492580D+00  0.1143456438D+01  0.7443082909D+00
 SP   1 1.00       0.000000000000
      0.1687144782D+00  0.1000000000D+01  0.1000000000D+01
 D   1 1.00       0.000000000000
      0.8000000000D+00  0.1000000000D+01
 ****
     50 0
 S   3 1.00       0.000000000000
      0.1873113696D+02  0.3349460434D-01
      0.2825394365D+01  0.2347269535D+00
      0.6401216923D+00  0.8137573261D+00
 S   1 1.00       0.000000000000
      0.1612777588D+00  0.1000000000D+01
 ****
     51 0
 S   3 1.00       0.000000000000
      0.1873113696D+02  0.3349460434D-01
      0.2825394365D+01  0.2347269535D+00
      0.6401216923D+00  0.8137573261D+00
 S   1 1.00       0.000000000000
      0.1612777588D+00  0.1000000000D+01
 ****
     52 0
 S   3 1.00       0.000000000000
      0.1873113696D+02  0.3349460434D-01
      0.2825394365D+01  0.2347269535D+00
      0.6401216923D+00  0.8137573261D+00
 S   1 1.00       0.000000000000
      0.1612777588D+00  0.1000000000D+01
 ****
     53 0
 S   6 1.00       0.000000000000
      0.5484671660D+04  0.1831074430D-02
      0.8252349460D+03  0.1395017220D-01
      0.1880469580D+03  0.6844507810D-01
      0.5296450000D+02  0.2327143360D+00
      0.1689757040D+02  0.4701928980D+00
      0.5799635340D+01  0.3585208530D+00
 SP   3 1.00       0.000000000000
      0.1553961625D+02 -0.1107775495D+00  0.7087426823D-01
      0.3599933586D+01 -0.1480262627D+00  0.3397528391D+00
      0.1013761750D+01  0.1130767015D+01  0.7271585773D+00
 SP   1 1.00       0.000000000000
      0.2700058226D+00  0.1000000000D+01  0.1000000000D+01
 D   1 1.00       0.000000000000
      0.8000000000D+00  0.1000000000D+01
 ****
     54 0
 S   6 1.00       0.000000000000
      0.5484671660D+04  0.1831074430D-02
      0.8252349460D+03  0.1395017220D-01
      0.1880469580D+03  0.6844507810D-01
      0.5296450000D+02  0.2327143360D+00
      0.1689757040D+02  0.4701928980D+00
      0.5799635340D+01  0.3585208530D+00
 SP   3 1.00       0.000000000000
      0.1553961625D+02 -0.1107775495D+00  0.7087426823D-01
      0.3599933586D+01 -0.1480262627D+00  0.3397528391D+00
      0.1013761750D+01  0.1130767015D+01  0.7271585773D+00
 SP   1 1.00       0.000000000000
      0.2700058226D+00  0.1000000000D+01  0.1000000000D+01
 D   1 1.00       0.000000000000
      0.8000000000D+00  0.1000000000D+01
 ****
     55 0
 S   3 1.00       0.000000000000
      0.1873113696D+02  0.3349460434D-01
      0.2825394365D+01  0.2347269535D+00
      0.6401216923D+00  0.8137573261D+00
 S   1 1.00       0.000000000000
      0.1612777588D+00  0.1000000000D+01
 ****
     56 0
 S   6 1.00       0.000000000000
      0.5484671660D+04  0.1831074430D-02
      0.8252349460D+03  0.1395017220D-01
      0.1880469580D+03  0.6844507810D-01
      0.5296450000D+02  0.2327143360D+00
      0.1689757040D+02  0.4701928980D+00
      0.5799635340D+01  0.3585208530D+00
 SP   3 1.00       0.000000000000
      0.1553961625D+02 -0.1107775495D+00  0.7087426823D-01
      0.3599933586D+01 -0.1480262627D+00  0.3397528391D+00
      0.1013761750D+01  0.1130767015D+01  0.7271585773D+00
 SP   1 1.00       0.000000000000
      0.2700058226D+00  0.1000000000D+01  0.1000000000D+01
 D   1 1.00       0.000000000000
      0.8000000000D+00  0.1000000000D+01
 ****
     57 0
 S   3 1.00       0.000000000000
      0.1873113696D+02  0.3349460434D-01
      0.2825394365D+01  0.2347269535D+00
      0.6401216923D+00  0.8137573261D+00
 S   1 1.00       0.000000000000
      0.1612777588D+00  0.1000000000D+01
 ****
     58 0
 S   6 1.00       0.000000000000
      0.3047524880D+04  0.1834737132D-02
      0.4573695180D+03  0.1403732281D-01
      0.1039486850D+03  0.6884262226D-01
      0.2921015530D+02  0.2321844432D+00
      0.9286662960D+01  0.4679413484D+00
      0.3163926960D+01  0.3623119853D+00
 SP   3 1.00       0.000000000000
      0.7868272350D+01 -0.1193324198D+00  0.6899906659D-01
      0.1881288540D+01 -0.1608541517D+00  0.3164239610D+00
      0.5442492580D+00  0.1143456438D+01  0.7443082909D+00
 SP   1 1.00       0.000000000000
      0.1687144782D+00  0.1000000000D+01  0.1000000000D+01
 D   1 1.00       0.000000000000
      0.8000000000D+00  0.1000000000D+01
 ****
     59 0
 S   3 1.00       0.000000000000
      0.1873113696D+02  0.3349460434D-01
      0.2825394365D+01  0.2347269535D+00
      0.6401216923D+00  0.8137573261D+00
 S   1 1.00       0.000000000000
      0.1612777588D+00  0.1000000000D+01
 ****
     60 0
 S   3 1.00       0.000000000000
      0.1873113696D+02  0.3349460434D-01
      0.2825394365D+01  0.2347269535D+00
      0.6401216923D+00  0.8137573261D+00
 S   1 1.00       0.000000000000
      0.1612777588D+00  0.1000000000D+01
 ****
     61 0
 S   6 1.00       0.000000000000
      0.3047524880D+04  0.1834737132D-02
      0.4573695180D+03  0.1403732281D-01
      0.1039486850D+03  0.6884262226D-01
      0.2921015530D+02  0.2321844432D+00
      0.9286662960D+01  0.4679413484D+00
      0.3163926960D+01  0.3623119853D+00
 SP   3 1.00       0.000000000000
      0.7868272350D+01 -0.1193324198D+00  0.6899906659D-01
      0.1881288540D+01 -0.1608541517D+00  0.3164239610D+00
      0.5442492580D+00  0.1143456438D+01  0.7443082909D+00
 SP   1 1.00       0.000000000000
      0.1687144782D+00  0.1000000000D+01  0.1000000000D+01
 D   1 1.00       0.000000000000
      0.8000000000D+00  0.1000000000D+01
 ****
     62 0
 S   3 1.00       0.000000000000
      0.1873113696D+02  0.3349460434D-01
      0.2825394365D+01  0.2347269535D+00
      0.6401216923D+00  0.8137573261D+00
 S   1 1.00       0.000000000000
      0.1612777588D+00  0.1000000000D+01
 ****
     63 0
 S   3 1.00       0.000000000000
      0.1873113696D+02  0.3349460434D-01
      0.2825394365D+01  0.2347269535D+00
      0.6401216923D+00  0.8137573261D+00
 S   1 1.00       0.000000000000
      0.1612777588D+00  0.1000000000D+01
 ****
     64 0
 S   6 1.00       0.000000000000
      0.3047524880D+04  0.1834737132D-02
      0.4573695180D+03  0.1403732281D-01
      0.1039486850D+03  0.6884262226D-01
      0.2921015530D+02  0.2321844432D+00
      0.9286662960D+01  0.4679413484D+00
      0.3163926960D+01  0.3623119853D+00
 SP   3 1.00       0.000000000000
      0.7868272350D+01 -0.1193324198D+00  0.6899906659D-01
      0.1881288540D+01 -0.1608541517D+00  0.3164239610D+00
      0.5442492580D+00  0.1143456438D+01  0.7443082909D+00
 SP   1 1.00       0.000000000000
      0.1687144782D+00  0.1000000000D+01  0.1000000000D+01
 D   1 1.00       0.000000000000
      0.8000000000D+00  0.1000000000D+01
 ****
     65 0
 S   3 1.00       0.000000000000
      0.1873113696D+02  0.3349460434D-01
      0.2825394365D+01  0.2347269535D+00
      0.6401216923D+00  0.8137573261D+00
 S   1 1.00       0.000000000000
      0.1612777588D+00  0.1000000000D+01
 ****
     66 0
 S   3 1.00       0.000000000000
      0.1873113696D+02  0.3349460434D-01
      0.2825394365D+01  0.2347269535D+00
      0.6401216923D+00  0.8137573261D+00
 S   1 1.00       0.000000000000
      0.1612777588D+00  0.1000000000D+01
 ****
     67 0
 S   6 1.00       0.000000000000
      0.3047524880D+04  0.1834737132D-02
      0.4573695180D+03  0.1403732281D-01
      0.1039486850D+03  0.6884262226D-01
      0.2921015530D+02  0.2321844432D+00
      0.9286662960D+01  0.4679413484D+00
      0.3163926960D+01  0.3623119853D+00
 SP   3 1.00       0.000000000000
      0.7868272350D+01 -0.1193324198D+00  0.6899906659D-01
      0.1881288540D+01 -0.1608541517D+00  0.3164239610D+00
      0.5442492580D+00  0.1143456438D+01  0.7443082909D+00
 SP   1 1.00       0.000000000000
      0.1687144782D+00  0.1000000000D+01  0.1000000000D+01
 D   1 1.00       0.000000000000
      0.8000000000D+00  0.1000000000D+01
 ****
     68 0
 S   3 1.00       0.000000000000
      0.1873113696D+02  0.3349460434D-01
      0.2825394365D+01  0.2347269535D+00
      0.6401216923D+00  0.8137573261D+00
 S   1 1.00       0.000000000000
      0.1612777588D+00  0.1000000000D+01
 ****
     69 0
 S   6 1.00       0.000000000000
      0.3047524880D+04  0.1834737132D-02
      0.4573695180D+03  0.1403732281D-01
      0.1039486850D+03  0.6884262226D-01
      0.2921015530D+02  0.2321844432D+00
      0.9286662960D+01  0.4679413484D+00
      0.3163926960D+01  0.3623119853D+00
 SP   3 1.00       0.000000000000
      0.7868272350D+01 -0.1193324198D+00  0.6899906659D-01
      0.1881288540D+01 -0.1608541517D+00  0.3164239610D+00
      0.5442492580D+00  0.1143456438D+01  0.7443082909D+00
 SP   1 1.00       0.000000000000
      0.1687144782D+00  0.1000000000D+01  0.1000000000D+01
 D   1 1.00       0.000000000000
      0.8000000000D+00  0.1000000000D+01
 ****
     70 0
 S   3 1.00       0.000000000000
      0.1873113696D+02  0.3349460434D-01
      0.2825394365D+01  0.2347269535D+00
      0.6401216923D+00  0.8137573261D+00
 S   1 1.00       0.000000000000
      0.1612777588D+00  0.1000000000D+01
 ****
     71 0
 S   3 1.00       0.000000000000
      0.1873113696D+02  0.3349460434D-01
      0.2825394365D+01  0.2347269535D+00
      0.6401216923D+00  0.8137573261D+00
 S   1 1.00       0.000000000000
      0.1612777588D+00  0.1000000000D+01
 ****
     72 0
 S   3 1.00       0.000000000000
      0.1873113696D+02  0.3349460434D-01
      0.2825394365D+01  0.2347269535D+00
      0.6401216923D+00  0.8137573261D+00
 S   1 1.00       0.000000000000
      0.1612777588D+00  0.1000000000D+01
 ****
     73 0
 S   6 1.00       0.000000000000
      0.3047524880D+04  0.1834737132D-02
      0.4573695180D+03  0.1403732281D-01
      0.1039486850D+03  0.6884262226D-01
      0.2921015530D+02  0.2321844432D+00
      0.9286662960D+01  0.4679413484D+00
      0.3163926960D+01  0.3623119853D+00
 SP   3 1.00       0.000000000000
      0.7868272350D+01 -0.1193324198D+00  0.6899906659D-01
      0.1881288540D+01 -0.1608541517D+00  0.3164239610D+00
      0.5442492580D+00  0.1143456438D+01  0.7443082909D+00
 SP   1 1.00       0.000000000000
      0.1687144782D+00  0.1000000000D+01  0.1000000000D+01
 D   1 1.00       0.000000000000
      0.8000000000D+00  0.1000000000D+01
 ****
     74 0
 S   3 1.00       0.000000000000
      0.1873113696D+02  0.3349460434D-01
      0.2825394365D+01  0.2347269535D+00
      0.6401216923D+00  0.8137573261D+00
 S   1 1.00       0.000000000000
      0.1612777588D+00  0.1000000000D+01
 ****
     75 0
 S   3 1.00       0.000000000000
      0.1873113696D+02  0.3349460434D-01
      0.2825394365D+01  0.2347269535D+00
      0.6401216923D+00  0.8137573261D+00
 S   1 1.00       0.000000000000
      0.1612777588D+00  0.1000000000D+01
 ****
     76 0
 S   3 1.00       0.000000000000
      0.1873113696D+02  0.3349460434D-01
      0.2825394365D+01  0.2347269535D+00
      0.6401216923D+00  0.8137573261D+00
 S   1 1.00       0.000000000000
      0.1612777588D+00  0.1000000000D+01
 ****

 AO basis set (Overlap normalization):
 Atom C1       Shell     1 S   6     bf    1 -     1         -1.824436435145          3.791638523787          3.183065035035
      0.3047524880D+04  0.1834737132D-02
      0.4573695180D+03  0.1403732281D-01
      0.1039486850D+03  0.6884262226D-01
      0.2921015530D+02  0.2321844432D+00
      0.9286662960D+01  0.4679413484D+00
      0.3163926960D+01  0.3623119853D+00
 Atom C1       Shell     2 SP   3    bf    2 -     5         -1.824436435145          3.791638523787          3.183065035035
      0.7868272350D+01 -0.1193324198D+00  0.6899906659D-01
      0.1881288540D+01 -0.1608541517D+00  0.3164239610D+00
      0.5442492580D+00  0.1143456438D+01  0.7443082909D+00
 Atom C1       Shell     3 SP   1    bf    6 -     9         -1.824436435145          3.791638523787          3.183065035035
      0.1687144782D+00  0.1000000000D+01  0.1000000000D+01
 Atom C1       Shell     4 D   1     bf   10 -    15         -1.824436435145          3.791638523787          3.183065035035
      0.8000000000D+00  0.1000000000D+01
 Atom H2       Shell     5 S   3     bf   16 -    16         -1.851462599099          1.943677719493          4.121719746418
      0.1873113696D+02  0.3349460434D-01
      0.2825394365D+01  0.2347269535D+00
      0.6401216923D+00  0.8137573261D+00
 Atom H2       Shell     6 S   1     bf   17 -    17         -1.851462599099          1.943677719493          4.121719746418
      0.1612777588D+00  0.1000000000D+01
 Atom C3       Shell     7 S   6     bf   18 -    18          0.729168780772          5.073201181799          3.705432808085
      0.3047524880D+04  0.1834737132D-02
      0.4573695180D+03  0.1403732281D-01
      0.1039486850D+03  0.6884262226D-01
      0.2921015530D+02  0.2321844432D+00
      0.9286662960D+01  0.4679413484D+00
      0.3163926960D+01  0.3623119853D+00
 Atom C3       Shell     8 SP   3    bf   19 -    22          0.729168780772          5.073201181799          3.705432808085
      0.7868272350D+01 -0.1193324198D+00  0.6899906659D-01
      0.1881288540D+01 -0.1608541517D+00  0.3164239610D+00
      0.5442492580D+00  0.1143456438D+01  0.7443082909D+00
 Atom C3       Shell     9 SP   1    bf   23 -    26          0.729168780772          5.073201181799          3.705432808085
      0.1687144782D+00  0.1000000000D+01  0.1000000000D+01
 Atom C3       Shell    10 D   1     bf   27 -    32          0.729168780772          5.073201181799          3.705432808085
      0.8000000000D+00  0.1000000000D+01
 Atom H4       Shell    11 S   3     bf   33 -    33          1.020571107813          5.238945489332          5.746275313146
      0.1873113696D+02  0.3349460434D-01
      0.2825394365D+01  0.2347269535D+00
      0.6401216923D+00  0.8137573261D+00
 Atom H4       Shell    12 S   1     bf   34 -    34          1.020571107813          5.238945489332          5.746275313146
      0.1612777588D+00  0.1000000000D+01
 Atom H5       Shell    13 S   3     bf   35 -    35          0.626834479293          7.013382473310          2.959029498213
      0.1873113696D+02  0.3349460434D-01
      0.2825394365D+01  0.2347269535D+00
      0.6401216923D+00  0.8137573261D+00
 Atom H5       Shell    14 S   1     bf   36 -    36          0.626834479293          7.013382473310          2.959029498213
      0.1612777588D+00  0.1000000000D+01
 Atom C6       Shell    15 S   6     bf   37 -    37          2.922665328163          3.672897903481          2.500209057615
      0.3047524880D+04  0.1834737132D-02
      0.4573695180D+03  0.1403732281D-01
      0.1039486850D+03  0.6884262226D-01
      0.2921015530D+02  0.2321844432D+00
      0.9286662960D+01  0.4679413484D+00
      0.3163926960D+01  0.3623119853D+00
 Atom C6       Shell    16 SP   3    bf   38 -    41          2.922665328163          3.672897903481          2.500209057615
      0.7868272350D+01 -0.1193324198D+00  0.6899906659D-01
      0.1881288540D+01 -0.1608541517D+00  0.3164239610D+00
      0.5442492580D+00  0.1143456438D+01  0.7443082909D+00
 Atom C6       Shell    17 SP   1    bf   42 -    45          2.922665328163          3.672897903481          2.500209057615
      0.1687144782D+00  0.1000000000D+01  0.1000000000D+01
 Atom C6       Shell    18 D   1     bf   46 -    51          2.922665328163          3.672897903481          2.500209057615
      0.8000000000D+00  0.1000000000D+01
 Atom C7       Shell    19 S   6     bf   52 -    52          2.690424959521          3.077222532578         -0.326941178100
      0.3047524880D+04  0.1834737132D-02
      0.4573695180D+03  0.1403732281D-01
      0.1039486850D+03  0.6884262226D-01
      0.2921015530D+02  0.2321844432D+00
      0.9286662960D+01  0.4679413484D+00
      0.3163926960D+01  0.3623119853D+00
 Atom C7       Shell    20 SP   3    bf   53 -    56          2.690424959521          3.077222532578         -0.326941178100
      0.7868272350D+01 -0.1193324198D+00  0.6899906659D-01
      0.1881288540D+01 -0.1608541517D+00  0.3164239610D+00
      0.5442492580D+00  0.1143456438D+01  0.7443082909D+00
 Atom C7       Shell    21 SP   1    bf   57 -    60          2.690424959521          3.077222532578         -0.326941178100
      0.1687144782D+00  0.1000000000D+01  0.1000000000D+01
 Atom C7       Shell    22 D   1     bf   61 -    66          2.690424959521          3.077222532578         -0.326941178100
      0.8000000000D+00  0.1000000000D+01
 Atom C8       Shell    23 S   6     bf   67 -    67          0.023233729270          1.914554545347         -0.802046730491
      0.3047524880D+04  0.1834737132D-02
      0.4573695180D+03  0.1403732281D-01
      0.1039486850D+03  0.6884262226D-01
      0.2921015530D+02  0.2321844432D+00
      0.9286662960D+01  0.4679413484D+00
      0.3163926960D+01  0.3623119853D+00
 Atom C8       Shell    24 SP   3    bf   68 -    71          0.023233729270          1.914554545347         -0.802046730491
      0.7868272350D+01 -0.1193324198D+00  0.6899906659D-01
      0.1881288540D+01 -0.1608541517D+00  0.3164239610D+00
      0.5442492580D+00  0.1143456438D+01  0.7443082909D+00
 Atom C8       Shell    25 SP   1    bf   72 -    75          0.023233729270          1.914554545347         -0.802046730491
      0.1687144782D+00  0.1000000000D+01  0.1000000000D+01
 Atom C8       Shell    26 D   1     bf   76 -    81          0.023233729270          1.914554545347         -0.802046730491
      0.8000000000D+00  0.1000000000D+01
 Atom H9       Shell    27 S   3     bf   82 -    82          0.000000000000          0.000000000000          0.000000000000
      0.1873113696D+02  0.3349460434D-01
      0.2825394365D+01  0.2347269535D+00
      0.6401216923D+00  0.8137573261D+00
 Atom H9       Shell    28 S   1     bf   83 -    83          0.000000000000          0.000000000000          0.000000000000
      0.1612777588D+00  0.1000000000D+01
 Atom H10      Shell    29 S   3     bf   84 -    84         -0.278055871665          1.701170298696         -2.838805423995
      0.1873113696D+02  0.3349460434D-01
      0.2825394365D+01  0.2347269535D+00
      0.6401216923D+00  0.8137573261D+00
 Atom H10      Shell    30 S   1     bf   85 -    85         -0.278055871665          1.701170298696         -2.838805423995
      0.1612777588D+00  0.1000000000D+01
 Atom C11      Shell    31 S   6     bf   86 -    86         -2.185687367530          3.412287095303          0.342134330544
      0.3047524880D+04  0.1834737132D-02
      0.4573695180D+03  0.1403732281D-01
      0.1039486850D+03  0.6884262226D-01
      0.2921015530D+02  0.2321844432D+00
      0.9286662960D+01  0.4679413484D+00
      0.3163926960D+01  0.3623119853D+00
 Atom C11      Shell    32 SP   3    bf   87 -    90         -2.185687367530          3.412287095303          0.342134330544
      0.7868272350D+01 -0.1193324198D+00  0.6899906659D-01
      0.1881288540D+01 -0.1608541517D+00  0.3164239610D+00
      0.5442492580D+00  0.1143456438D+01  0.7443082909D+00
 Atom C11      Shell    33 SP   1    bf   91 -    94         -2.185687367530          3.412287095303          0.342134330544
      0.1687144782D+00  0.1000000000D+01  0.1000000000D+01
 Atom C11      Shell    34 D   1     bf   95 -   100         -2.185687367530          3.412287095303          0.342134330544
      0.8000000000D+00  0.1000000000D+01
 Atom H12      Shell    35 S   3     bf  101 -   101         -2.357102951058          5.270624858224         -0.573696249710
      0.1873113696D+02  0.3349460434D-01
      0.2825394365D+01  0.2347269535D+00
      0.6401216923D+00  0.8137573261D+00
 Atom H12      Shell    36 S   1     bf  102 -   102         -2.357102951058          5.270624858224         -0.573696249710
      0.1612777588D+00  0.1000000000D+01
 Atom H13      Shell    37 S   3     bf  103 -   103         -3.969172908252          2.416892411916          0.000000000000
      0.1873113696D+02  0.3349460434D-01
      0.2825394365D+01  0.2347269535D+00
      0.6401216923D+00  0.8137573261D+00
 Atom H13      Shell    38 S   1     bf  104 -   104         -3.969172908252          2.416892411916          0.000000000000
      0.1612777588D+00  0.1000000000D+01
 Atom C14      Shell    39 S   6     bf  105 -   105          4.932839902450          3.026937505997          3.905036510371
      0.3047524880D+04  0.1834737132D-02
      0.4573695180D+03  0.1403732281D-01
      0.1039486850D+03  0.6884262226D-01
      0.2921015530D+02  0.2321844432D+00
      0.9286662960D+01  0.4679413484D+00
      0.3163926960D+01  0.3623119853D+00
 Atom C14      Shell    40 SP   3    bf  106 -   109          4.932839902450          3.026937505997          3.905036510371
      0.7868272350D+01 -0.1193324198D+00  0.6899906659D-01
      0.1881288540D+01 -0.1608541517D+00  0.3164239610D+00
      0.5442492580D+00  0.1143456438D+01  0.7443082909D+00
 Atom C14      Shell    41 SP   1    bf  110 -   113          4.932839902450          3.026937505997          3.905036510371
      0.1687144782D+00  0.1000000000D+01  0.1000000000D+01
 Atom C14      Shell    42 D   1     bf  114 -   119          4.932839902450          3.026937505997          3.905036510371
      0.8000000000D+00  0.1000000000D+01
 Atom H15      Shell    43 S   3     bf  120 -   120          4.953714951150          3.514148549509          5.903254031525
      0.1873113696D+02  0.3349460434D-01
      0.2825394365D+01  0.2347269535D+00
      0.6401216923D+00  0.8137573261D+00
 Atom H15      Shell    44 S   1     bf  121 -   121          4.953714951150          3.514148549509          5.903254031525
      0.1612777588D+00  0.1000000000D+01
 Atom C16      Shell    45 S   6     bf  122 -   122          7.210468134421          1.645279286158          2.928770390791
      0.3047524880D+04  0.1834737132D-02
      0.4573695180D+03  0.1403732281D-01
      0.1039486850D+03  0.6884262226D-01
      0.2921015530D+02  0.2321844432D+00
      0.9286662960D+01  0.4679413484D+00
      0.3163926960D+01  0.3623119853D+00
 Atom C16      Shell    46 SP   3    bf  123 -   126          7.210468134421          1.645279286158          2.928770390791
      0.7868272350D+01 -0.1193324198D+00  0.6899906659D-01
      0.1881288540D+01 -0.1608541517D+00  0.3164239610D+00
      0.5442492580D+00  0.1143456438D+01  0.7443082909D+00
 Atom C16      Shell    47 SP   1    bf  127 -   130          7.210468134421          1.645279286158          2.928770390791
      0.1687144782D+00  0.1000000000D+01  0.1000000000D+01
 Atom C16      Shell    48 D   1     bf  131 -   136          7.210468134421          1.645279286158          2.928770390791
      0.8000000000D+00  0.1000000000D+01
 Atom H17      Shell    49 S   3     bf  137 -   137          8.939787547928          2.463292690691          3.729198230699
      0.1873113696D+02  0.3349460434D-01
      0.2825394365D+01  0.2347269535D+00
      0.6401216923D+00  0.8137573261D+00
 Atom H17      Shell    50 S   1     bf  138 -   138          8.939787547928          2.463292690691          3.729198230699
      0.1612777588D+00  0.1000000000D+01
 Atom C18      Shell    51 S   6     bf  139 -   139          7.370824587085          1.660120325932          0.024312706200
      0.3047524880D+04  0.1834737132D-02
      0.4573695180D+03  0.1403732281D-01
      0.1039486850D+03  0.6884262226D-01
      0.2921015530D+02  0.2321844432D+00
      0.9286662960D+01  0.4679413484D+00
      0.3163926960D+01  0.3623119853D+00
 Atom C18      Shell    52 SP   3    bf  140 -   143          7.370824587085          1.660120325932          0.024312706200
      0.7868272350D+01 -0.1193324198D+00  0.6899906659D-01
      0.1881288540D+01 -0.1608541517D+00  0.3164239610D+00
      0.5442492580D+00  0.1143456438D+01  0.7443082909D+00
 Atom C18      Shell    53 SP   1    bf  144 -   147          7.370824587085          1.660120325932          0.024312706200
      0.1687144782D+00  0.1000000000D+01  0.1000000000D+01
 Atom C18      Shell    54 D   1     bf  148 -   153          7.370824587085          1.660120325932          0.024312706200
      0.8000000000D+00  0.1000000000D+01
 Atom H19      Shell    55 S   3     bf  154 -   154          7.951923820023          3.591577999106         -0.472025638945
      0.1873113696D+02  0.3349460434D-01
      0.2825394365D+01  0.2347269535D+00
      0.6401216923D+00  0.8137573261D+00
 Atom H19      Shell    56 S   1     bf  155 -   155          7.951923820023          3.591577999106         -0.472025638945
      0.1612777588D+00  0.1000000000D+01
 Atom C20      Shell    57 S   6     bf  156 -   156          4.743817079138          1.102795624088         -1.153939512299
      0.3047524880D+04  0.1834737132D-02
      0.4573695180D+03  0.1403732281D-01
      0.1039486850D+03  0.6884262226D-01
      0.2921015530D+02  0.2321844432D+00
      0.9286662960D+01  0.4679413484D+00
      0.3163926960D+01  0.3623119853D+00
 Atom C20      Shell    58 SP   3    bf  157 -   160          4.743817079138          1.102795624088         -1.153939512299
      0.7868272350D+01 -0.1193324198D+00  0.6899906659D-01
      0.1881288540D+01 -0.1608541517D+00  0.3164239610D+00
      0.5442492580D+00  0.1143456438D+01  0.7443082909D+00
 Atom C20      Shell    59 SP   1    bf  161 -   164          4.743817079138          1.102795624088         -1.153939512299
      0.1687144782D+00  0.1000000000D+01  0.1000000000D+01
 Atom C20      Shell    60 D   1     bf  165 -   170          4.743817079138          1.102795624088         -1.153939512299
      0.8000000000D+00  0.1000000000D+01
 Atom H21      Shell    61 S   3     bf  171 -   171          4.144005967005         -0.718737624799         -0.352319878811
      0.1873113696D+02  0.3349460434D-01
      0.2825394365D+01  0.2347269535D+00
      0.6401216923D+00  0.8137573261D+00
 Atom H21      Shell    62 S   1     bf  172 -   172          4.144005967005         -0.718737624799         -0.352319878811
      0.1612777588D+00  0.1000000000D+01
 Atom C22      Shell    63 S   6     bf  173 -   173          4.901768855298          0.746029333070         -4.051981255416
      0.3047524880D+04  0.1834737132D-02
      0.4573695180D+03  0.1403732281D-01
      0.1039486850D+03  0.6884262226D-01
      0.2921015530D+02  0.2321844432D+00
      0.9286662960D+01  0.4679413484D+00
      0.3163926960D+01  0.3623119853D+00
 Atom C22      Shell    64 SP   3    bf  174 -   177          4.901768855298          0.746029333070         -4.051981255416
      0.7868272350D+01 -0.1193324198D+00  0.6899906659D-01
      0.1881288540D+01 -0.1608541517D+00  0.3164239610D+00
      0.5442492580D+00  0.1143456438D+01  0.7443082909D+00
 Atom C22      Shell    65 SP   1    bf  178 -   181          4.901768855298          0.746029333070         -4.051981255416
      0.1687144782D+00  0.1000000000D+01  0.1000000000D+01
 Atom C22      Shell    66 D   1     bf  182 -   187          4.901768855298          0.746029333070         -4.051981255416
      0.8000000000D+00  0.1000000000D+01
 Atom H23      Shell    67 S   3     bf  188 -   188          5.195364908715          2.575205087972         -4.972520787528
      0.1873113696D+02  0.3349460434D-01
      0.2825394365D+01  0.2347269535D+00
      0.6401216923D+00  0.8137573261D+00
 Atom H23      Shell    68 S   1     bf  189 -   189          5.195364908715          2.575205087972         -4.972520787528
      0.1612777588D+00  0.1000000000D+01
 Atom H24      Shell    69 S   3     bf  190 -   190          3.087204103807          0.040296368880         -4.759135558219
      0.1873113696D+02  0.3349460434D-01
      0.2825394365D+01  0.2347269535D+00
      0.6401216923D+00  0.8137573261D+00
 Atom H24      Shell    70 S   1     bf  191 -   191          3.087204103807          0.040296368880         -4.759135558219
      0.1612777588D+00  0.1000000000D+01
 Atom C25      Shell    71 S   6     bf  192 -   192          7.007264995180         -1.067236250603         -4.933252259590
      0.3047524880D+04  0.1834737132D-02
      0.4573695180D+03  0.1403732281D-01
      0.1039486850D+03  0.6884262226D-01
      0.2921015530D+02  0.2321844432D+00
      0.9286662960D+01  0.4679413484D+00
      0.3163926960D+01  0.3623119853D+00
 Atom C25      Shell    72 SP   3    bf  193 -   196          7.007264995180         -1.067236250603         -4.933252259590
      0.7868272350D+01 -0.1193324198D+00  0.6899906659D-01
      0.1881288540D+01 -0.1608541517D+00  0.3164239610D+00
      0.5442492580D+00  0.1143456438D+01  0.7443082909D+00
 Atom C25      Shell    73 SP   1    bf  197 -   200          7.007264995180         -1.067236250603         -4.933252259590
      0.1687144782D+00  0.1000000000D+01  0.1000000000D+01
 Atom C25      Shell    74 D   1     bf  201 -   206          7.007264995180         -1.067236250603         -4.933252259590
      0.8000000000D+00  0.1000000000D+01
 Atom H26      Shell    75 S   3     bf  207 -   207          6.588933581041         -2.993330011738         -4.276805412747
      0.1873113696D+02  0.3349460434D-01
      0.2825394365D+01  0.2347269535D+00
      0.6401216923D+00  0.8137573261D+00
 Atom H26      Shell    76 S   1     bf  208 -   208          6.588933581041         -2.993330011738         -4.276805412747
      0.1612777588D+00  0.1000000000D+01
 Atom H27      Shell    77 S   3     bf  209 -   209          6.987042846860         -1.131524450185         -7.000965574219
      0.1873113696D+02  0.3349460434D-01
      0.2825394365D+01  0.2347269535D+00
      0.6401216923D+00  0.8137573261D+00
 Atom H27      Shell    78 S   1     bf  210 -   210          6.987042846860         -1.131524450185         -7.000965574219
      0.1612777588D+00  0.1000000000D+01
 Atom C28      Shell    79 S   6     bf  211 -   211          9.615283722361         -0.276689939822         -3.899396584933
      0.3047524880D+04  0.1834737132D-02
      0.4573695180D+03  0.1403732281D-01
      0.1039486850D+03  0.6884262226D-01
      0.2921015530D+02  0.2321844432D+00
      0.9286662960D+01  0.4679413484D+00
      0.3163926960D+01  0.3623119853D+00
 Atom C28      Shell    80 SP   3    bf  212 -   215          9.615283722361         -0.276689939822         -3.899396584933
      0.7868272350D+01 -0.1193324198D+00  0.6899906659D-01
      0.1881288540D+01 -0.1608541517D+00  0.3164239610D+00
      0.5442492580D+00  0.1143456438D+01  0.7443082909D+00
 Atom C28      Shell    81 SP   1    bf  216 -   219          9.615283722361         -0.276689939822         -3.899396584933
      0.1687144782D+00  0.1000000000D+01  0.1000000000D+01
 Atom C28      Shell    82 D   1     bf  220 -   225          9.615283722361         -0.276689939822         -3.899396584933
      0.8000000000D+00  0.1000000000D+01
 Atom C29      Shell    83 S   6     bf  226 -   226          9.356479889209         -0.207147073269         -0.974688708484
      0.3047524880D+04  0.1834737132D-02
      0.4573695180D+03  0.1403732281D-01
      0.1039486850D+03  0.6884262226D-01
      0.2921015530D+02  0.2321844432D+00
      0.9286662960D+01  0.4679413484D+00
      0.3163926960D+01  0.3623119853D+00
 Atom C29      Shell    84 SP   3    bf  227 -   230          9.356479889209         -0.207147073269         -0.974688708484
      0.7868272350D+01 -0.1193324198D+00  0.6899906659D-01
      0.1881288540D+01 -0.1608541517D+00  0.3164239610D+00
      0.5442492580D+00  0.1143456438D+01  0.7443082909D+00
 Atom C29      Shell    85 SP   1    bf  231 -   234          9.356479889209         -0.207147073269         -0.974688708484
      0.1687144782D+00  0.1000000000D+01  0.1000000000D+01
 Atom C29      Shell    86 D   1     bf  235 -   240          9.356479889209         -0.207147073269         -0.974688708484
      0.8000000000D+00  0.1000000000D+01
 Atom H30      Shell    87 S   3     bf  241 -   241          8.690911315425         -2.100466350321         -0.442975502714
      0.1873113696D+02  0.3349460434D-01
      0.2825394365D+01  0.2347269535D+00
      0.6401216923D+00  0.8137573261D+00
 Atom H30      Shell    88 S   1     bf  242 -   242          8.690911315425         -2.100466350321         -0.442975502714
      0.1612777588D+00  0.1000000000D+01
 Atom C31      Shell    89 S   6     bf  243 -   243         12.081406070066          0.000000000000          0.000000000000
      0.3047524880D+04  0.1834737132D-02
      0.4573695180D+03  0.1403732281D-01
      0.1039486850D+03  0.6884262226D-01
      0.2921015530D+02  0.2321844432D+00
      0.9286662960D+01  0.4679413484D+00
      0.3163926960D+01  0.3623119853D+00
 Atom C31      Shell    90 SP   3    bf  244 -   247         12.081406070066          0.000000000000          0.000000000000
      0.7868272350D+01 -0.1193324198D+00  0.6899906659D-01
      0.1881288540D+01 -0.1608541517D+00  0.3164239610D+00
      0.5442492580D+00  0.1143456438D+01  0.7443082909D+00
 Atom C31      Shell    91 SP   1    bf  248 -   251         12.081406070066          0.000000000000          0.000000000000
      0.1687144782D+00  0.1000000000D+01  0.1000000000D+01
 Atom C31      Shell    92 D   1     bf  252 -   257         12.081406070066          0.000000000000          0.000000000000
      0.8000000000D+00  0.1000000000D+01
 Atom H32      Shell    93 S   3     bf  258 -   258         12.269456591488         -0.733918607407          1.922536843019
      0.1873113696D+02  0.3349460434D-01
      0.2825394365D+01  0.2347269535D+00
      0.6401216923D+00  0.8137573261D+00
 Atom H32      Shell    94 S   1     bf  259 -   259         12.269456591488         -0.733918607407          1.922536843019
      0.1612777588D+00  0.1000000000D+01
 Atom H33      Shell    95 S   3     bf  260 -   260         12.707404534518          1.977031272355          0.039416323419
      0.1873113696D+02  0.3349460434D-01
      0.2825394365D+01  0.2347269535D+00
      0.6401216923D+00  0.8137573261D+00
 Atom H33      Shell    96 S   1     bf  261 -   261         12.707404534518          1.977031272355          0.039416323419
      0.1612777588D+00  0.1000000000D+01
 Atom C34      Shell    97 S   6     bf  262 -   262         13.632511855947         -1.552509625630         -1.951821324188
      0.3047524880D+04  0.1834737132D-02
      0.4573695180D+03  0.1403732281D-01
      0.1039486850D+03  0.6884262226D-01
      0.2921015530D+02  0.2321844432D+00
      0.9286662960D+01  0.4679413484D+00
      0.3163926960D+01  0.3623119853D+00
 Atom C34      Shell    98 SP   3    bf  263 -   266         13.632511855947         -1.552509625630         -1.951821324188
      0.7868272350D+01 -0.1193324198D+00  0.6899906659D-01
      0.1881288540D+01 -0.1608541517D+00  0.3164239610D+00
      0.5442492580D+00  0.1143456438D+01  0.7443082909D+00
 Atom C34      Shell    99 SP   1    bf  267 -   270         13.632511855947         -1.552509625630         -1.951821324188
      0.1687144782D+00  0.1000000000D+01  0.1000000000D+01
 Atom C34      Shell   100 D   1     bf  271 -   276         13.632511855947         -1.552509625630         -1.951821324188
      0.8000000000D+00  0.1000000000D+01
 Atom H35      Shell   101 S   3     bf  277 -   277         15.223398398931         -0.440194808504         -2.676420482609
      0.1873113696D+02  0.3349460434D-01
      0.2825394365D+01  0.2347269535D+00
      0.6401216923D+00  0.8137573261D+00
 Atom H35      Shell   102 S   1     bf  278 -   278         15.223398398931         -0.440194808504         -2.676420482609
      0.1612777588D+00  0.1000000000D+01
 Atom H36      Shell   103 S   3     bf  279 -   279         14.451944425908         -3.246089593649         -1.092937263003
      0.1873113696D+02  0.3349460434D-01
      0.2825394365D+01  0.2347269535D+00
      0.6401216923D+00  0.8137573261D+00
 Atom H36      Shell   104 S   1     bf  280 -   280         14.451944425908         -3.246089593649         -1.092937263003
      0.1612777588D+00  0.1000000000D+01
 Atom C37      Shell   105 S   6     bf  281 -   281         11.795318730055         -2.268244022070         -4.155075000034
      0.3047524880D+04  0.1834737132D-02
      0.4573695180D+03  0.1403732281D-01
      0.1039486850D+03  0.6884262226D-01
      0.2921015530D+02  0.2321844432D+00
      0.9286662960D+01  0.4679413484D+00
      0.3163926960D+01  0.3623119853D+00
 Atom C37      Shell   106 SP   3    bf  282 -   285         11.795318730055         -2.268244022070         -4.155075000034
      0.7868272350D+01 -0.1193324198D+00  0.6899906659D-01
      0.1881288540D+01 -0.1608541517D+00  0.3164239610D+00
      0.5442492580D+00  0.1143456438D+01  0.7443082909D+00
[...]
 1607 Fit      -0.003371
 1608 Fit       0.001772
 1609 Fit       0.000015
 1610 Fit      -0.002419
 1611 Fit       0.001029
 1612 Fit      -0.000803
 1613 Fit      -0.001217
 1614 Fit      -0.001840
 1615 Fit      -0.003141
 1616 Fit      -0.000449
 1617 Fit       0.001266
 1618 Fit       0.001422
 1619 Fit       0.000321
 1620 Fit      -0.001216
 1621 Fit       0.000508
 1622 Fit       0.001035
 1623 Fit       0.000354
 1624 Fit      -0.000929
 1625 Fit      -0.001828
 1626 Fit      -0.000644
 1627 Fit      -0.000938
 1628 Fit      -0.002339
 1629 Fit       0.000853
 1630 Fit      -0.000066
 1631 Fit      -0.001265
 1632 Fit      -0.003065
 1633 Fit      -0.001921
 1634 Fit      -0.000453
 1635 Fit       0.001600
 1636 Fit       0.001804
 1637 Fit       0.000442
 1638 Fit      -0.000880
 1639 Fit      -0.000950
 1640 Fit       0.000227
 1641 Fit       0.001018
 1642 Fit      -0.005253
 1643 Fit      -0.003352
 1644 Fit       0.003572
 1645 Fit      -0.003900
 1646 Fit       0.002777
 1647 Fit       0.007737
 1648 Fit       0.010257
 1649 Fit      -0.010536
 1650 Fit      -0.001318
 1651 Fit       0.003613
 1652 Fit       0.006650
 1653 Fit       0.007713
 1654 Fit       0.001501
 1655 Fit       0.005334
 1656 Fit       0.002747
 1657 Fit       0.004011
 1658 Fit       0.004754
 1659 Fit       0.000672
 1660 Fit       0.002621
 1661 Fit       0.006638
 1662 Fit       0.003706
 1663 Fit      -0.000622
 1664 Fit      -0.004854
 1665 Fit       0.000863
 1666 Fit       0.006660
 1667 Fit       0.005391
 1668 Fit       0.003609
 1669 Fit       0.001409
 1670 Fit      -0.005442
 1671 Fit       0.005499
 1672 Fit       0.005136
 1673 Fit       0.007212
 1674 Fit       0.005746
 1675 Fit       0.008918
 1676 Fit       0.012754
 1677 Fit       0.007919
 1678 Fit       0.011669
 1679 Fit       0.016156
 1680 Fit      -0.000381
 1681 Fit       0.004630
 1682 Fit       0.005682
 1683 Fit       0.004864
 1684 Fit       0.004796
 1685 Fit       0.005135
 1686 Fit       0.005866
 1687 Fit       0.005260
 1688 Fit       0.002146
 1689 Fit       0.004825
 1690 Fit       0.004503
 1691 Fit       0.003021
 1692 Fit       0.004441
 1693 Fit       0.004158
 1694 Fit       0.003574
 1695 Fit       0.004242
 1696 Fit       0.006218
 1697 Fit       0.009023
 1698 Fit       0.007789
 1699 Fit       0.007134
 1700 Fit       0.006732
 1701 Fit       0.009460
 1702 Fit       0.008408
 1703 Fit       0.008280
 1704 Fit       0.008993
 1705 Fit       0.006017
 1706 Fit       0.005758
 1707 Fit       0.007331
 1708 Fit       0.017082
 1709 Fit       0.014635
 1710 Fit       0.009380
 1711 Fit       0.012446
 1712 Fit       0.010584
 1713 Fit       0.007351
 1714 Fit       0.009496
 1715 Fit       0.007599
 1716 Fit       0.009475
 1717 Fit      -0.012921
 1718 Fit      -0.004278
 1719 Fit      -0.007135
 1720 Fit      -0.005310
 1721 Fit      -0.001966
 1722 Fit       0.000943
 1723 Fit       0.003470
 1724 Fit       0.001149
 1725 Fit       0.000987
 1726 Fit       0.002205
 1727 Fit       0.003508
 1728 Fit       0.004594
 1729 Fit       0.003850
 1730 Fit       0.004117
 1731 Fit       0.004863
 1732 Fit       0.005491
 1733 Fit       0.005461
 1734 Fit       0.006192
 1735 Fit       0.001156
 1736 Fit       0.000052
 1737 Fit      -0.000228
 1738 Fit       0.006223
 1739 Fit       0.000798
 1740 Fit       0.005105
 1741 Fit      -0.000823
 1742 Fit       0.003597
 1743 Fit       0.006217
 1744 Fit       0.007579
 1745 Fit       0.010026
 1746 Fit       0.000289
 1747 Fit       0.003073
 1748 Fit       0.005143
 1749 Fit       0.001248
 1750 Fit       0.001750
 1751 Fit      -0.005374
 1752 Fit      -0.008703
 1753 Fit      -0.002569
 1754 Fit       0.000361
 1755 Fit      -0.000419
 1756 Fit       0.002340
 1757 Fit       0.003022
 1758 Fit       0.004485
 1759 Fit       0.005254
 1760 Fit       0.006184
 1761 Fit       0.006922
 1762 Fit       0.006272
 1763 Fit       0.000777
 1764 Fit      -0.002347
 1765 Fit      -0.008950
 1766 Fit       0.003470
 1767 Fit       0.000928
 1768 Fit       0.004764
 1769 Fit       0.004338
 1770 Fit       0.005608
 1771 Fit       0.007368
 1772 Fit       0.005046
 1773 Fit       0.006028
 1774 Fit       0.004850
 1775 Fit       0.004505
 1776 Fit       0.003005
 1777 Fit       0.006936
 1778 Fit       0.004791
 1779 Fit       0.002816
 1780 Fit       0.008404
 1781 Fit       0.008297
 1782 Fit       0.006778
 1783 Fit       0.004814
 1784 Fit       0.002530
 1785 Fit       0.005499
 1786 Fit       0.004036
 1787 Fit       0.001668
 1788 Fit       0.000159
 1789 Fit      -0.000310
 1790 Fit      -0.001456
 1791 Fit       0.002346
 1792 Fit       0.001310
 1793 Fit       0.000808
 1794 Fit       0.000876
 1795 Fit       0.002145
 1796 Fit       0.001375
 1797 Fit       0.001203
 1798 Fit       0.001464
 1799 Fit       0.000521
 1800 Fit       0.000683
 1801 Fit       0.005086
 1802 Fit       0.004603
 1803 Fit       0.004045
 1804 Fit       0.002910
 1805 Fit       0.001212
 1806 Fit       0.004911
 1807 Fit       0.003656
 1808 Fit       0.001646
 1809 Fit      -0.018969
 1810 Fit      -0.009228
 1811 Fit      -0.008607
 1812 Fit      -0.007837
 1813 Fit      -0.001551
 1814 Fit      -0.005958
 1815 Fit      -0.003087
 1816 Fit      -0.005844
 1817 Fit      -0.004570
 1818 Fit      -0.002963
 1819 Fit      -0.011829
 1820 Fit      -0.011646
 1821 Fit      -0.017616
 1822 Fit      -0.007560
 1823 Fit      -0.006925
 1824 Fit      -0.022885
 1825 Fit      -0.012683
 1826 Fit      -0.008828
 1827 Fit      -0.017661
 1828 Fit      -0.010093
 1829 Fit      -0.002223
 1830 Fit      -0.001969
 1831 Fit       0.000655
 1832 Fit      -0.000663
 1833 Fit       0.001359
 1834 Fit       0.003085
 1835 Fit       0.005221
 1836 Fit       0.001366
 1837 Fit       0.002787
 1838 Fit       0.003774
 1839 Fit       0.005174
 1840 Fit      -0.005712
 1841 Fit      -0.004123
 1842 Fit      -0.003809
 1843 Fit      -0.008322
 1844 Fit      -0.002189
 1845 Fit      -0.001129
 1846 Fit      -0.000139
 1847 Fit       0.000943
 1848 Fit       0.000194
 1849 Fit       0.001108
 1850 Fit       0.002259
 1851 Fit       0.001575
 1852 Fit      -0.005843
 1853 Fit      -0.005873
 1854 Fit      -0.003913
 1855 Fit      -0.008955
 1856 Fit      -0.005090
 1857 Fit      -0.003088
 1858 Fit      -0.002737
 1859 Fit      -0.002611
 1860 Fit      -0.000766
 1861 Fit      -0.001169
 1862 Fit      -0.003012
 1863 Fit      -0.001688
 1864 Fit       0.000250
 1865 Fit       0.001307
 1866 Fit       0.003790
 1867 Fit       0.001018
 1868 Fit       0.002033
 1869 Fit       0.000915
 1870 Fit       0.000459
 1871 Fit       0.000718
 1872 Fit       0.001863
 1873 Fit       0.006290
 1874 Fit       0.005264
 1875 Fit       0.003416
 1876 Fit       0.005877
 1877 Fit       0.003514
 1878 Fit       0.005724
 1879 Fit       0.003330
 1880 Fit       0.003012
 1881 Fit       0.002598
 1882 Fit       0.002638
 1883 Fit       0.002062
 1884 Fit       0.001299
 1885 Fit       0.001523
 1886 Fit       0.001704
 1887 Fit       0.002407
 1888 Fit       0.003542
 1889 Fit       0.004713
 1890 Fit       0.002272
 1891 Fit       0.002955
 1892 Fit       0.003871
 1893 Fit       0.005335
 1894 Fit       0.001150
 1895 Fit       0.002456
 1896 Fit       0.000477
 1897 Fit       0.001500
 1898 Fit       0.001166
 1899 Fit       0.000686
 1900 Fit       0.001306
 1901 Fit       0.000607
 1902 Fit       0.000251
 1903 Fit       0.000974
 1904 Fit      -0.000376
 1905 Fit      -0.000886
 1906 Fit      -0.000009
 1907 Fit      -0.001071
 1908 Fit      -0.001478
 1909 Fit      -0.000413
 1910 Fit      -0.000925
 1911 Fit       0.001569
 1912 Fit       0.000955
 1913 Fit       0.001805
 1914 Fit      -0.000060
 1915 Fit       0.000707
 1916 Fit       0.001272
 1917 Fit       0.001620
 1918 Fit      -0.000442
 1919 Fit      -0.000073
 1920 Fit      -0.000235
 1921 Fit       0.002060
 1922 Fit       0.001300
 1923 Fit       0.000375
 1924 Fit      -0.000267
 1925 Fit       0.000941
 1926 Fit       0.001920
 1927 Fit       0.001682
 1928 Fit       0.000904
 1929 Fit      -0.000041
 1930 Fit      -0.000485
 1931 Fit       0.000106
 1932 Fit       0.001278
 1933 Fit       0.000814
 1934 Fit       0.001777
 1935 Fit       0.003632
 1936 Fit       0.004150
 1937 Fit       0.003288
 1938 Fit       0.000876
 1939 Fit       0.001661
 1940 Fit       0.000632
 1941 Fit       0.005831
 1942 Fit       0.006194
 1943 Fit       0.005280
 1944 Fit       0.006049
 1945 Fit       0.007709
 1946 Fit       0.009313
 1947 Fit       0.006491
 1948 Fit       0.005599
 1949 Fit       0.006018
 1950 Fit       0.006659
 1951 Fit       0.007812
 1952 Fit       0.008824
 1953 Fit       0.009930
 1954 Fit       0.007215
 1955 Fit       0.007793
 1956 Fit       0.008654
 1957 Fit       0.008226
 1958 Fit       0.007984
 1959 Fit       0.009010
 1960 Fit       0.013213
 1961 Fit       0.019032
 1962 Fit       0.007524
 1963 Fit       0.010402
 1964 Fit       0.013735
 1965 Fit       0.009884
 1966 Fit       0.005392
 1967 Fit       0.004381
 1968 Fit       0.008113
 1969 Fit       0.006441
 1970 Fit       0.005706
 1971 Fit       0.008175
 1972 Fit       0.006780
 1973 Fit       0.005826
 1974 Fit       0.007357
 1975 Fit       0.005990
 1976 Fit       0.000669
 1977 Fit      -0.001308
 1978 Fit      -0.006687
 1979 Fit      -0.013044
 1980 Fit      -0.018895
 1981 Fit      -0.022952
 1982 Fit      -0.011047
 1983 Fit      -0.014849
 1984 Fit      -0.002410
 1985 Fit      -0.012041
 1986 Fit      -0.008622
 1987 Fit       0.000763
 1988 Fit       0.004329
 1989 Fit      -0.007478
 1990 Fit      -0.018677
 1991 Fit      -0.016606
 1992 Fit      -0.012360
 1993 Fit      -0.005418
 1994 Fit      -0.004229
 1995 Fit      -0.013667
 1996 Fit      -0.018124
 1997 Fit      -0.021615
 1998 Fit      -0.018609
 1999 Fit      -0.014229
 2000 Fit      -0.008534
 2001 Fit      -0.005373
 2002 Fit      -0.015864
 2003 Fit      -0.021451
 2004 Fit      -0.022916
 2005 Fit      -0.020403
 2006 Fit      -0.016167
 2007 Fit      -0.005506
 2008 Fit      -0.015974
 2009 Fit      -0.022449
 2010 Fit      -0.024832
 2011 Fit      -0.023655
 2012 Fit       0.007442
 2013 Fit       0.009864
 2014 Fit       0.014128
 2015 Fit       0.011396
 2016 Fit       0.013119
 2017 Fit       0.016084
 2018 Fit       0.016964
 2019 Fit       0.014362
 2020 Fit       0.007551
 2021 Fit       0.013875
 2022 Fit       0.016342
 2023 Fit       0.016222
 2024 Fit       0.012894
 2025 Fit       0.005942
 2026 Fit       0.011999
 2027 Fit       0.012089
 2028 Fit       0.008077
 2029 Fit       0.000060
 2030 Fit      -0.019709
 2031 Fit      -0.014880
 2032 Fit      -0.018282
 2033 Fit      -0.022556
 2034 Fit      -0.021300
 2035 Fit      -0.015224
 2036 Fit      -0.006738
 2037 Fit      -0.007586
 2038 Fit      -0.011140
 2039 Fit      -0.017168
 2040 Fit      -0.022440
 2041 Fit      -0.023907
 2042 Fit      -0.020400
 2043 Fit      -0.008494
 2044 Fit      -0.017036
 2045 Fit      -0.022294
 2046 Fit      -0.022643
 2047 Fit      -0.017779
 2048 Fit      -0.002304
 2049 Fit      -0.012494
 2050 Fit      -0.018682
 2051 Fit      -0.019871
 2052 Fit      -0.015938
 2053 Fit      -0.005820
 2054 Fit      -0.013070
 2055 Fit      -0.002924
 2056 Fit       0.006181
 2057 Fit       0.005909
 2058 Fit       0.000676
 2059 Fit       0.016192
 2060 Fit       0.014470
 2061 Fit       0.009975
 2062 Fit       0.001845
 2063 Fit       0.022082
 2064 Fit       0.019701
 2065 Fit       0.015289
 2066 Fit       0.008011
 2067 Fit       0.025910
 2068 Fit       0.022574
 2069 Fit       0.017584
 2070 Fit       0.009759
 2071 Fit      -0.003431
 2072 Fit      -0.002656
 2073 Fit      -0.001629
 2074 Fit      -0.001634
 2075 Fit      -0.001422
 2076 Fit      -0.001016
 2077 Fit       0.000277
 2078 Fit       0.000243
 2079 Fit       0.000408
 2080 Fit       0.001414
 2081 Fit       0.001455
 2082 Fit       0.001624
 2083 Fit       0.002270
 2084 Fit      -0.000524
 2085 Fit      -0.000818
 2086 Fit      -0.001097
 2087 Fit      -0.000638
 2088 Fit       0.000298
 2089 Fit      -0.002660
 2090 Fit      -0.001740
 2091 Fit      -0.000783
 2092 Fit       0.000804
 2093 Fit      -0.003181
 2094 Fit      -0.000642
 2095 Fit       0.002244
 2096 Fit      -0.000586
 2097 Fit      -0.002605
 2098 Fit      -0.003144
 2099 Fit      -0.003738
 2100 Fit       0.000258
 2101 Fit      -0.000255
 2102 Fit      -0.000217
 2103 Fit      -0.000184
 2104 Fit      -0.000247
 2105 Fit      -0.000404
 2106 Fit      -0.001008
 2107 Fit      -0.000899
 2108 Fit      -0.000781
 2109 Fit      -0.001138
 2110 Fit      -0.002284
 2111 Fit      -0.002325
 2112 Fit      -0.001505
 2113 Fit      -0.001977
 2114 Fit      -0.000989
 2115 Fit       0.000013
 2116 Fit      -0.000151
 2117 Fit       0.000278
 2118 Fit       0.001056
 2119 Fit       0.001244
 2120 Fit       0.000794
 2121 Fit       0.001445
 2122 Fit       0.001409
 2123 Fit      -0.001019
 2124 Fit      -0.001319
 2125 Fit      -0.001081
 2126 Fit      -0.000535
 2127 Fit      -0.001298
 2128 Fit      -0.000384
 2129 Fit      -0.000306
 2130 Fit      -0.000218
 2131 Fit      -0.000438
 2132 Fit      -0.001693
 2133 Fit      -0.000611
 2134 Fit      -0.000198
 2135 Fit      -0.000033
 2136 Fit      -0.000520
 2137 Fit      -0.001112
 2138 Fit      -0.000373
 2139 Fit      -0.000394
 2140 Fit      -0.004837
 2141 Fit      -0.005506
 2142 Fit      -0.005621
 2143 Fit      -0.004857
 2144 Fit      -0.004276
 2145 Fit      -0.005741
 2146 Fit      -0.004948
 2147 Fit      -0.004170
 2148 Fit      -0.003814
 2149 Fit      -0.002730
 2150 Fit      -0.003350
 2151 Fit      -0.001819
 2152 Fit      -0.001978
 2153 Fit      -0.003346
 2154 Fit      -0.005627
 2155 Fit      -0.004943
 2156 Fit      -0.003670
 2157 Fit      -0.003770
 2158 Fit      -0.003153
 2159 Fit      -0.003221
 2160 Fit      -0.000763
 2161 Fit      -0.001164
 2162 Fit      -0.002220
 2163 Fit       0.000664
 2164 Fit       0.000052
 2165 Fit      -0.001532
 2166 Fit      -0.003015
 2167 Fit      -0.002847
 2168 Fit      -0.001943
 2169 Fit      -0.000887
 2170 Fit      -0.001095
 2171 Fit      -0.002354
 2172 Fit      -0.002789
 2173 Fit      -0.001006
 2174 Fit       0.000136
 2175 Fit       0.000259
 2176 Fit      -0.000549
 2177 Fit      -0.001888
 2178 Fit      -0.002868
 2179 Fit      -0.000667
 2180 Fit       0.000778
 2181 Fit       0.000861
 2182 Fit      -0.000001
 2183 Fit      -0.003540
 2184 Fit      -0.001942
 2185 Fit      -0.002244
 2186 Fit      -0.004220
 2187 Fit      -0.003311
 2188 Fit      -0.001024
 2189 Fit      -0.000580
 2190 Fit      -0.001254
 2191 Fit      -0.002844
 2192 Fit      -0.002281
 2193 Fit      -0.000780
 2194 Fit       0.000028
 2195 Fit       0.000193
 2196 Fit      -0.000548
 2197 Fit      -0.001964
 2198 Fit      -0.002902
 2199 Fit      -0.002610
 2200 Fit      -0.002632
 2201 Fit      -0.001504
 2202 Fit      -0.002862
 2203 Fit      -0.002551
 2204 Fit      -0.002011
 2205 Fit      -0.001079
 2206 Fit      -0.001770
 2207 Fit      -0.002528
 2208 Fit      -0.002789
 2209 Fit      -0.002517
 2210 Fit       0.000557
 2211 Fit      -0.001174
 2212 Fit       0.001478
 2213 Fit       0.000495
 2214 Fit      -0.001110
 2215 Fit       0.001796
 2216 Fit       0.000541
 2217 Fit      -0.001058
 2218 Fit       0.000270
 2219 Fit      -0.001105
 2220 Fit      -0.000699
 2221 Fit       0.000810
 2222 Fit       0.001163
 2223 Fit      -0.002119
 2224 Fit      -0.000524
 2225 Fit       0.000559
 2226 Fit       0.000817
 2227 Fit       0.000313
 2228 Fit      -0.002411
 2229 Fit      -0.000983
 2230 Fit      -0.000052
 2231 Fit       0.000078
 2232 Fit      -0.000523
 2233 Fit      -0.002081
 2234 Fit      -0.001263
 2235 Fit      -0.001419
 2236 Fit      -0.000082
 2237 Fit      -0.000957
 2238 Fit       0.000812
 2239 Fit       0.001584
 2240 Fit       0.000327
 2241 Fit      -0.000718
 2242 Fit      -0.002034
 2243 Fit      -0.001179
 2244 Fit      -0.000140
 2245 Fit       0.001123
 2246 Fit       0.001317
 2247 Fit       0.000384
 2248 Fit      -0.000585
 2249 Fit      -0.000682
 2250 Fit       0.000139
 2251 Fit       0.000642
 -----------------------------------------------------------------
 Leave Link  602 at Wed Apr 26 14:34:40 2017, MaxMem=    33554432 cpu:         4.9
 (Enter /home/michal/g09/l9999.exe)

 Test job not archived.
 1\1\GINC-LINUX\SP\RHF\6-31G(d)\C27H46O3\MICHAL\26-Apr-2017\0\\#P HF/6-
 31G* SCF(Conver=6) NoSymm Test Pop=mk IOp(6/33=2) GFInput GFPrint\\MEP
  - Input generated by R.E.D.-III.x MOLECULE\\0,1\C,0,-0.96545018,2.006
 44869,1.68440547\H,0,-0.97975181,1.02854995,2.18112015\C,0,0.3858595,2
 .68462244,1.96083059\H,0,0.54006297,2.77233055,3.04079793\H,0,0.331706
 52,3.71132216,1.56585097\C,0,1.54660788,1.94361386,1.32305365\C,0,1.42
 371157,1.62839603,-0.17300982\C,0,0.01229476,1.01313863,-0.42442485\H,
 0,0.,0.,0.\H,0,-0.14714083,0.90022055,-1.50223113\C,0,-1.15661594,1.80
 570456,0.18104969\H,0,-1.24732516,2.78909455,-0.30358698\H,0,-2.100395
 84,1.27896438,0.\C,0,2.61034645,1.60178634,2.06645632\H,0,2.62139305,1
 .85960732,3.12386749\C,0,3.8156154,0.8706443,1.54983854\H,0,4.73073182
 ,1.30351835,1.97340671\C,0,3.90047238,0.87849784,0.01286573\H,0,4.2079
 7685,1.90058122,-0.24978521\C,0,2.51031988,0.58357431,-0.61063849\H,0,
 2.19291351,-0.38033957,-0.18643965\C,0,2.59390436,0.39478172,-2.144216
 13\H,0,2.7492687,1.36273984,-2.63134467\H,0,1.63367805,0.02132392,-2.5
 1842607\C,0,3.70808493,-0.5647571,-2.61056466\H,0,3.48671348,-1.584002
 02,-2.26318795\H,0,3.69738383,-0.59877695,-3.70475142\C,0,5.088189,-0.
 14641801,-2.0634718\C,0,4.95123591,-0.10961751,-0.51578305\H,0,4.59903
 219,-1.11151892,-0.23441254\C,0,6.39320474,0.,0.\H,0,6.49271679,-0.388
 373,1.01736268\H,0,6.72446886,1.04619989,0.02085822\C,0,7.21401457,-0.
 82155271,-1.03285936\H,0,8.05587547,-0.23294106,-1.41630072\H,0,7.6476
 3961,-1.71775663,-0.57835749\C,0,6.24181384,-1.20030304,-2.19877099\H,
 0,5.78506571,-2.17131375,-1.95756466\C,0,5.52725456,1.20968466,-2.6605
 7981\H,0,4.84403046,2.02251666,-2.40109172\H,0,6.52324532,1.50461499,-
 2.31670443\H,0,5.56239337,1.15697209,-3.75405056\C,0,6.97532198,-1.359
 49017,-3.5535297\H,0,7.43765451,-0.39032956,-3.7917676\C,0,6.04377444,
 -1.72051959,-4.72616022\H,0,5.4154973,-2.58867253,-4.49753222\H,0,6.63
 045831,-1.96224501,-5.62043064\H,0,5.37821014,-0.89444746,-4.98952655\
 C,0,1.56005821,2.95982523,-0.96171194\H,0,1.28271428,2.8302674,-2.0120
 0239\H,0,0.91344653,3.73995418,-0.55302196\H,0,2.58559997,3.3400062,-0
 .92278838\O,0,3.79375144,-0.52484301,1.95916815\O,0,3.97212636,-0.5634
 1207,3.40291838\H,0,3.08197125,-0.82445504,3.69171923\O,0,-2.04902411,
 2.71922125,2.28632199\H,0,-2.11322439,3.59216639,1.87400074\C,0,8.1518
 8121,-2.36861108,-3.46835967\H,0,8.67205406,-2.35281322,-4.43695655\H,
 0,8.88403399,-2.01242337,-2.73293078\C,0,7.78890074,-3.82543587,-3.134
 72203\H,0,7.30071613,-3.86859391,-2.15351339\H,0,7.05757372,-4.1991173
 6,-3.86153359\C,0,9.02661372,-4.73789007,-3.13389793\H,0,9.76008103,-4
 .33434238,-2.4207247\H,0,9.50458009,-4.68098756,-4.12273097\C,0,8.7898
 4883,-6.22795857,-2.79427302\H,0,9.77711757,-6.71006843,-2.85121837\C,
 0,8.26976856,-6.43446352,-1.36190932\H,0,7.25708491,-6.03409007,-1.236
 96102\H,0,8.23203378,-7.50068641,-1.1108526\H,0,8.91713325,-5.94131749
 ,-0.62723424\C,0,7.88414328,-6.93297306,-3.81763638\H,0,6.85716648,-6.
 55183804,-3.77866009\H,0,7.83982183,-8.01046006,-3.621853\H,0,8.253908
 35,-6.79434127,-4.84050293\\Version=EM64L-G09RevD.01\HF=-1273.6829869\
 RMSD=5.694e-07\Dipole=-0.2635243,0.6483477,-0.714768\Quadrupole=-7.095
 5616,7.3852492,-0.2896876,3.7400401,-1.5986399,-1.6181726\PG=C01 [X(C2
 7H46O3)]\\@


 IT TAKES GREATER CHARACTER TO CARRY OFF GOOD FORTUNE THAN BAD.
                     FRENCH PROVERB.
 Job cpu time:       0 days  0 hours 13 minutes 10.9 seconds.
 File lengths (MBytes):  RWF=    159 Int=      0 D2E=      0 Chk=     11 Scr=      1
 Normal termination of Gaussian 09 at Wed Apr 26 14:34:41 2017.
