 Entering Gaussian System, Link 0=/home/michal/g09/g09
 Input=JOB2-gau_m1-21-2.com
 Output=JOB2-gau_m1-21-2.log
 Initial command:
 /home/michal/g09/l1.exe "/home/michal/gauss_scratch/Gau-15333.inp" -scrdir="/home/michal/gauss_scratch/"
 Entering Link 1 = /home/michal/g09/l1.exe PID=     15334.
  
 Copyright (c) 1988,1990,1992,1993,1995,1998,2003,2009,2013,
            Gaussian, Inc.  All Rights Reserved.
  
 This is part of the Gaussian(R) 09 program.  It is based on
 the Gaussian(R) 03 system (copyright 2003, Gaussian, Inc.),
 the Gaussian(R) 98 system (copyright 1998, Gaussian, Inc.),
 the Gaussian(R) 94 system (copyright 1995, Gaussian, Inc.),
 the Gaussian 92(TM) system (copyright 1992, Gaussian, Inc.),
 the Gaussian 90(TM) system (copyright 1990, Gaussian, Inc.),
 the Gaussian 88(TM) system (copyright 1988, Gaussian, Inc.),
 the Gaussian 86(TM) system (copyright 1986, Carnegie Mellon
 University), and the Gaussian 82(TM) system (copyright 1983,
 Carnegie Mellon University). Gaussian is a federally registered
 trademark of Gaussian, Inc.
  
 This software contains proprietary and confidential information,
 including trade secrets, belonging to Gaussian, Inc.
  
 This software is provided under written license and may be
 used, copied, transmitted, or stored only in accord with that
 written license.
  
 The following legend is applicable only to US Government
 contracts under FAR:
  
                    RESTRICTED RIGHTS LEGEND
  
 Use, reproduction and disclosure by the US Government is
 subject to restrictions as set forth in subparagraphs (a)
 and (c) of the Commercial Computer Software - Restricted
 Rights clause in FAR 52.227-19.
  
 Gaussian, Inc.
 340 Quinnipiac St., Bldg. 40, Wallingford CT 06492
  
  
 ---------------------------------------------------------------
 Warning -- This program may not be used in any manner that
 competes with the business of Gaussian, Inc. or will provide
 assistance to any competitor of Gaussian, Inc.  The licensee
 of this program is prohibited from giving any competitor of
 Gaussian, Inc. access to this program.  By using this program,
 the user acknowledges that Gaussian, Inc. is engaged in the
 business of creating and licensing software in the field of
 computational chemistry and represents and warrants to the
 licensee that it is not a competitor of Gaussian, Inc. and that
 it will not use this program in any manner prohibited above.
 ---------------------------------------------------------------
  

 Cite this work as:
 Gaussian 09, Revision D.01,
 M. J. Frisch, G. W. Trucks, H. B. Schlegel, G. E. Scuseria, 
 M. A. Robb, J. R. Cheeseman, G. Scalmani, V. Barone, B. Mennucci, 
 G. A. Petersson, H. Nakatsuji, M. Caricato, X. Li, H. P. Hratchian, 
 A. F. Izmaylov, J. Bloino, G. Zheng, J. L. Sonnenberg, M. Hada, 
 M. Ehara, K. Toyota, R. Fukuda, J. Hasegawa, M. Ishida, T. Nakajima, 
 Y. Honda, O. Kitao, H. Nakai, T. Vreven, J. A. Montgomery, Jr., 
 J. E. Peralta, F. Ogliaro, M. Bearpark, J. J. Heyd, E. Brothers, 
 K. N. Kudin, V. N. Staroverov, T. Keith, R. Kobayashi, J. Normand, 
 K. Raghavachari, A. Rendell, J. C. Burant, S. S. Iyengar, J. Tomasi, 
 M. Cossi, N. Rega, J. M. Millam, M. Klene, J. E. Knox, J. B. Cross, 
 V. Bakken, C. Adamo, J. Jaramillo, R. Gomperts, R. E. Stratmann, 
 O. Yazyev, A. J. Austin, R. Cammi, C. Pomelli, J. W. Ochterski, 
 R. L. Martin, K. Morokuma, V. G. Zakrzewski, G. A. Voth, 
 P. Salvador, J. J. Dannenberg, S. Dapprich, A. D. Daniels, 
 O. Farkas, J. B. Foresman, J. V. Ortiz, J. Cioslowski, 
 and D. J. Fox, Gaussian, Inc., Wallingford CT, 2013.
 
 ******************************************
 Gaussian 09:  EM64L-G09RevD.01 24-Apr-2013
                26-Apr-2017 
 ******************************************
 %Mem=256MB
 %NProc=12
 Will use up to   12 processors via shared memory.
 ----------------------------------------------------------------------
 #P HF/6-31G* SCF(Conver=6) NoSymm Test Pop=mk IOp(6/33=2) GFInput GFPr
 int
 ----------------------------------------------------------------------
 1/38=1/1;
 2/12=2,15=1,17=6,18=5,40=1/2;
 3/5=1,6=6,7=1,11=9,16=1,24=110,25=1,30=1/1,2,3;
 4//1;
 5/5=2,6=6,38=5/2;
 6/7=2,8=2,9=2,10=2,15=8,20=1,28=1,33=2/1,2;
 99/5=1,9=1/99;
 Leave Link    1 at Wed Apr 26 14:45:49 2017, MaxMem=    33554432 cpu:         1.3
 (Enter /home/michal/g09/l101.exe)
 ----------------------------------------------
 MEP - Input generated by R.E.D.-III.x MOLECULE
 ----------------------------------------------
 Symbolic Z-matrix:
 Charge =  0 Multiplicity = 1
 C                     7.50857   2.15077  -0.05267 
 H                     7.40443   2.06952   1.03627 
 C                     6.75676   0.9837   -0.71225 
 H                     7.14712   0.03353  -0.33461 
 H                     6.97915   1.00959  -1.79064 
 C                     5.25759   1.06158  -0.48956 
 C                     4.57548   2.38663  -0.85225 
 C                     5.41023   3.54844  -0.22993 
 H                     5.26095   3.53256   0.85828 
 H                     5.01638   4.50748  -0.58345 
 C                     6.91918   3.48427  -0.51235 
 H                     7.11571   3.6122   -1.58713 
 H                     7.43187   4.30622   0. 
 C                     4.59842   0.        0. 
 H                     5.15473  -0.90543   0.2354 
 C                     3.12047  -0.04341   0.26145 
 H                     2.7087   -1.00926  -0.05764 
 C                     2.36125   1.10114  -0.43401 
 H                     2.3445    0.82635  -1.49806 
 C                     3.12248   2.44192  -0.26129 
 H                     3.24066   2.57919   0.82359 
 C                     2.29746   3.64376  -0.77973 
 H                     2.28486   3.64374  -1.87444 
 H                     2.78944   4.57802  -0.48541 
 C                     0.83857   3.68056  -0.2805 
 H                     0.8246    3.83861   0.80733 
 H                     0.34431   4.54869  -0.7277 
 C                     0.09247   2.3675   -0.59607 
 C                     0.91539   1.22922   0.06953 
 H                     0.98228   1.50419   1.13119 
 C                     0.        0.        0. 
 H                     0.25016  -0.741     0.7643 
 H                     0.08671  -0.49901  -0.97366 
 C                    -1.42096   0.59582   0.19643 
 H                    -2.10831   0.23524  -0.57832 
 H                    -1.84589   0.28502   1.15522 
 C                    -1.2863    2.15608   0.1232 
 H                    -1.15417   2.53316   1.14975 
 C                    -0.06638   2.17563  -2.1219 
 H                     0.89487   2.10309  -2.63739 
 H                    -0.62971   1.26895  -2.36248 
 H                    -0.60499   3.01974  -2.56499 
 C                    -2.5582    2.8392   -0.44327 
 H                    -2.74517   2.42162  -1.4445 
 C                    -2.41427   4.36561  -0.58193 
 H                    -2.10645   4.81632   0.36985 
 H                    -3.36116   4.82896  -0.87526 
 H                    -1.67654   4.64571  -1.33739 
 C                     4.56871   2.52095  -2.39995 
 H                     4.27725   3.52863  -2.71053 
 H                     5.55536   2.32637  -2.82703 
 H                     3.87512   1.80795  -2.85632 
 O                     2.83874   0.07394   1.68348 
 O                     3.33324  -1.13113   2.33217 
 H                     4.10542  -0.78124   2.80681 
 O                     8.9184    2.06647  -0.27559 
 H                     9.08859   2.15788  -1.22366 
 C                    -3.79197   2.49824   0.43198 
 H                    -3.75833   1.43998   0.70773 
 H                    -3.71954   3.06057   1.37602 
 C                    -5.15113   2.78405  -0.22777 
 H                    -5.19205   3.82737  -0.56325 
 H                    -5.24243   2.17531  -1.1377 
 C                    -6.366     2.54566   0.68861 
 H                    -7.27409   2.86514   0.15586 
 H                    -6.27873   3.20924   1.56116 
 C                    -6.58979   1.10439   1.1943 
 H                    -5.69308   0.78845   1.7462 
 C                    -7.77073   1.06623   2.17758 
 H                    -8.70238   1.36813   1.68176 
 H                    -7.92089   0.05825   2.58087 
 H                    -7.60893   1.74508   3.02282 
 C                    -6.81278   0.10769   0.04587 
 H                    -7.68808   0.39275  -0.55243 
 H                    -6.99029  -0.90209   0.43308 
 H                    -5.95185   0.05448  -0.62838 
 
 NAtoms=     76 NQM=       76 NQMF=       0 NMMI=      0 NMMIF=      0
                NMic=       0 NMicF=      0.
                    Isotopes and Nuclear Properties:
 (Nuclear quadrupole moments (NQMom) in fm**2, nuclear magnetic moments (NMagM)
  in nuclear magnetons)

  Atom         1           2           3           4           5           6           7           8           9          10
 IAtWgt=          12           1          12           1           1          12          12          12           1           1
 AtmWgt=  12.0000000   1.0078250  12.0000000   1.0078250   1.0078250  12.0000000  12.0000000  12.0000000   1.0078250   1.0078250
 NucSpn=           0           1           0           1           1           0           0           0           1           1
 AtZEff=   0.0000000   0.0000000   0.0000000   0.0000000   0.0000000   0.0000000   0.0000000   0.0000000   0.0000000   0.0000000
 NQMom=    0.0000000   0.0000000   0.0000000   0.0000000   0.0000000   0.0000000   0.0000000   0.0000000   0.0000000   0.0000000
 NMagM=    0.0000000   2.7928460   0.0000000   2.7928460   2.7928460   0.0000000   0.0000000   0.0000000   2.7928460   2.7928460
 AtZNuc=   6.0000000   1.0000000   6.0000000   1.0000000   1.0000000   6.0000000   6.0000000   6.0000000   1.0000000   1.0000000

  Atom        11          12          13          14          15          16          17          18          19          20
 IAtWgt=          12           1           1          12           1          12           1          12           1          12
 AtmWgt=  12.0000000   1.0078250   1.0078250  12.0000000   1.0078250  12.0000000   1.0078250  12.0000000   1.0078250  12.0000000
 NucSpn=           0           1           1           0           1           0           1           0           1           0
 AtZEff=   0.0000000   0.0000000   0.0000000   0.0000000   0.0000000   0.0000000   0.0000000   0.0000000   0.0000000   0.0000000
 NQMom=    0.0000000   0.0000000   0.0000000   0.0000000   0.0000000   0.0000000   0.0000000   0.0000000   0.0000000   0.0000000
 NMagM=    0.0000000   2.7928460   2.7928460   0.0000000   2.7928460   0.0000000   2.7928460   0.0000000   2.7928460   0.0000000
 AtZNuc=   6.0000000   1.0000000   1.0000000   6.0000000   1.0000000   6.0000000   1.0000000   6.0000000   1.0000000   6.0000000

  Atom        21          22          23          24          25          26          27          28          29          30
 IAtWgt=           1          12           1           1          12           1           1          12          12           1
 AtmWgt=   1.0078250  12.0000000   1.0078250   1.0078250  12.0000000   1.0078250   1.0078250  12.0000000  12.0000000   1.0078250
 NucSpn=           1           0           1           1           0           1           1           0           0           1
 AtZEff=   0.0000000   0.0000000   0.0000000   0.0000000   0.0000000   0.0000000   0.0000000   0.0000000   0.0000000   0.0000000
 NQMom=    0.0000000   0.0000000   0.0000000   0.0000000   0.0000000   0.0000000   0.0000000   0.0000000   0.0000000   0.0000000
 NMagM=    2.7928460   0.0000000   2.7928460   2.7928460   0.0000000   2.7928460   2.7928460   0.0000000   0.0000000   2.7928460
 AtZNuc=   1.0000000   6.0000000   1.0000000   1.0000000   6.0000000   1.0000000   1.0000000   6.0000000   6.0000000   1.0000000

  Atom        31          32          33          34          35          36          37          38          39          40
 IAtWgt=          12           1           1          12           1           1          12           1          12           1
 AtmWgt=  12.0000000   1.0078250   1.0078250  12.0000000   1.0078250   1.0078250  12.0000000   1.0078250  12.0000000   1.0078250
 NucSpn=           0           1           1           0           1           1           0           1           0           1
 AtZEff=   0.0000000   0.0000000   0.0000000   0.0000000   0.0000000   0.0000000   0.0000000   0.0000000   0.0000000   0.0000000
 NQMom=    0.0000000   0.0000000   0.0000000   0.0000000   0.0000000   0.0000000   0.0000000   0.0000000   0.0000000   0.0000000
 NMagM=    0.0000000   2.7928460   2.7928460   0.0000000   2.7928460   2.7928460   0.0000000   2.7928460   0.0000000   2.7928460
 AtZNuc=   6.0000000   1.0000000   1.0000000   6.0000000   1.0000000   1.0000000   6.0000000   1.0000000   6.0000000   1.0000000

  Atom        41          42          43          44          45          46          47          48          49          50
 IAtWgt=           1           1          12           1          12           1           1           1          12           1
 AtmWgt=   1.0078250   1.0078250  12.0000000   1.0078250  12.0000000   1.0078250   1.0078250   1.0078250  12.0000000   1.0078250
 NucSpn=           1           1           0           1           0           1           1           1           0           1
 AtZEff=   0.0000000   0.0000000   0.0000000   0.0000000   0.0000000   0.0000000   0.0000000   0.0000000   0.0000000   0.0000000
 NQMom=    0.0000000   0.0000000   0.0000000   0.0000000   0.0000000   0.0000000   0.0000000   0.0000000   0.0000000   0.0000000
 NMagM=    2.7928460   2.7928460   0.0000000   2.7928460   0.0000000   2.7928460   2.7928460   2.7928460   0.0000000   2.7928460
 AtZNuc=   1.0000000   1.0000000   6.0000000   1.0000000   6.0000000   1.0000000   1.0000000   1.0000000   6.0000000   1.0000000

  Atom        51          52          53          54          55          56          57          58          59          60
 IAtWgt=           1           1          16          16           1          16           1          12           1           1
 AtmWgt=   1.0078250   1.0078250  15.9949146  15.9949146   1.0078250  15.9949146   1.0078250  12.0000000   1.0078250   1.0078250
 NucSpn=           1           1           0           0           1           0           1           0           1           1
 AtZEff=   0.0000000   0.0000000   0.0000000   0.0000000   0.0000000   0.0000000   0.0000000   0.0000000   0.0000000   0.0000000
 NQMom=    0.0000000   0.0000000   0.0000000   0.0000000   0.0000000   0.0000000   0.0000000   0.0000000   0.0000000   0.0000000
 NMagM=    2.7928460   2.7928460   0.0000000   0.0000000   2.7928460   0.0000000   2.7928460   0.0000000   2.7928460   2.7928460
 AtZNuc=   1.0000000   1.0000000   8.0000000   8.0000000   1.0000000   8.0000000   1.0000000   6.0000000   1.0000000   1.0000000

  Atom        61          62          63          64          65          66          67          68          69          70
 IAtWgt=          12           1           1          12           1           1          12           1          12           1
 AtmWgt=  12.0000000   1.0078250   1.0078250  12.0000000   1.0078250   1.0078250  12.0000000   1.0078250  12.0000000   1.0078250
 NucSpn=           0           1           1           0           1           1           0           1           0           1
 AtZEff=   0.0000000   0.0000000   0.0000000   0.0000000   0.0000000   0.0000000   0.0000000   0.0000000   0.0000000   0.0000000
 NQMom=    0.0000000   0.0000000   0.0000000   0.0000000   0.0000000   0.0000000   0.0000000   0.0000000   0.0000000   0.0000000
 NMagM=    0.0000000   2.7928460   2.7928460   0.0000000   2.7928460   2.7928460   0.0000000   2.7928460   0.0000000   2.7928460
 AtZNuc=   6.0000000   1.0000000   1.0000000   6.0000000   1.0000000   1.0000000   6.0000000   1.0000000   6.0000000   1.0000000

  Atom        71          72          73          74          75          76
 IAtWgt=           1           1          12           1           1           1
 AtmWgt=   1.0078250   1.0078250  12.0000000   1.0078250   1.0078250   1.0078250
 NucSpn=           1           1           0           1           1           1
 AtZEff=   0.0000000   0.0000000   0.0000000   0.0000000   0.0000000   0.0000000
 NQMom=    0.0000000   0.0000000   0.0000000   0.0000000   0.0000000   0.0000000
 NMagM=    2.7928460   2.7928460   0.0000000   2.7928460   2.7928460   2.7928460
 AtZNuc=   1.0000000   1.0000000   6.0000000   1.0000000   1.0000000   1.0000000
 Leave Link  101 at Wed Apr 26 14:45:49 2017, MaxMem=    33554432 cpu:         1.8
 (Enter /home/michal/g09/l202.exe)
 Symmetry turned off by external request.
 Stoichiometry    C27H46O3
 Framework group  C1[X(C27H46O3)]
 Deg. of freedom   222
 Full point group                 C1      NOp   1
                          Input orientation:                          
 ---------------------------------------------------------------------
 Center     Atomic      Atomic             Coordinates (Angstroms)
 Number     Number       Type             X           Y           Z
 ---------------------------------------------------------------------
      1          6           0        7.508565    2.150772   -0.052671
      2          1           0        7.404427    2.069521    1.036271
      3          6           0        6.756760    0.983695   -0.712247
      4          1           0        7.147124    0.033535   -0.334609
      5          1           0        6.979148    1.009591   -1.790639
      6          6           0        5.257589    1.061577   -0.489558
      7          6           0        4.575481    2.386626   -0.852248
      8          6           0        5.410229    3.548436   -0.229934
      9          1           0        5.260947    3.532555    0.858281
     10          1           0        5.016384    4.507478   -0.583448
     11          6           0        6.919177    3.484273   -0.512345
     12          1           0        7.115712    3.612199   -1.587129
     13          1           0        7.431871    4.306220    0.000000
     14          6           0        4.598417    0.000000    0.000000
     15          1           0        5.154731   -0.905430    0.235399
     16          6           0        3.120473   -0.043406    0.261452
     17          1           0        2.708698   -1.009260   -0.057643
     18          6           0        2.361252    1.101142   -0.434012
     19          1           0        2.344499    0.826352   -1.498061
     20          6           0        3.122477    2.441917   -0.261295
     21          1           0        3.240663    2.579186    0.823587
     22          6           0        2.297458    3.643756   -0.779732
     23          1           0        2.284863    3.643740   -1.874436
     24          1           0        2.789442    4.578021   -0.485408
     25          6           0        0.838565    3.680558   -0.280502
     26          1           0        0.824603    3.838606    0.807333
     27          1           0        0.344308    4.548685   -0.727697
     28          6           0        0.092471    2.367498   -0.596066
     29          6           0        0.915390    1.229224    0.069528
     30          1           0        0.982279    1.504188    1.131194
     31          6           0        0.000000    0.000000    0.000000
     32          1           0        0.250161   -0.741001    0.764299
     33          1           0        0.086715   -0.499012   -0.973658
     34          6           0       -1.420959    0.595819    0.196429
     35          1           0       -2.108309    0.235239   -0.578321
     36          1           0       -1.845891    0.285020    1.155222
     37          6           0       -1.286304    2.156081    0.123196
     38          1           0       -1.154174    2.533165    1.149746
     39          6           0       -0.066383    2.175630   -2.121901
     40          1           0        0.894870    2.103089   -2.637393
     41          1           0       -0.629706    1.268955   -2.362484
     42          1           0       -0.604994    3.019739   -2.564988
     43          6           0       -2.558198    2.839204   -0.443275
     44          1           0       -2.745167    2.421620   -1.444501
     45          6           0       -2.414269    4.365614   -0.581927
     46          1           0       -2.106453    4.816316    0.369848
     47          1           0       -3.361160    4.828957   -0.875260
     48          1           0       -1.676544    4.645706   -1.337386
     49          6           0        4.568706    2.520950   -2.399946
     50          1           0        4.277254    3.528629   -2.710528
     51          1           0        5.555358    2.326365   -2.827034
     52          1           0        3.875122    1.807950   -2.856319
     53          8           0        2.838744    0.073936    1.683478
     54          8           0        3.333244   -1.131135    2.332170
     55          1           0        4.105423   -0.781241    2.806807
     56          8           0        8.918401    2.066466   -0.275587
     57          1           0        9.088592    2.157878   -1.223658
     58          6           0       -3.791966    2.498240    0.431981
     59          1           0       -3.758328    1.439984    0.707727
     60          1           0       -3.719537    3.060575    1.376021
     61          6           0       -5.151130    2.784046   -0.227767
     62          1           0       -5.192047    3.827370   -0.563249
     63          1           0       -5.242428    2.175307   -1.137700
     64          6           0       -6.366002    2.545659    0.688615
     65          1           0       -7.274086    2.865142    0.155855
     66          1           0       -6.278731    3.209237    1.561162
     67          6           0       -6.589791    1.104388    1.194298
     68          1           0       -5.693076    0.788449    1.746204
     69          6           0       -7.770729    1.066231    2.177577
     70          1           0       -8.702381    1.368129    1.681759
     71          1           0       -7.920895    0.058251    2.580866
     72          1           0       -7.608934    1.745083    3.022821
     73          6           0       -6.812777    0.107693    0.045875
     74          1           0       -7.688085    0.392754   -0.552428
     75          1           0       -6.990291   -0.902089    0.433085
     76          1           0       -5.951850    0.054479   -0.628377
 ---------------------------------------------------------------------
 Rotational constants (GHZ):      0.3963117      0.0547471      0.0507446
 Leave Link  202 at Wed Apr 26 14:45:49 2017, MaxMem=    33554432 cpu:         0.0
 (Enter /home/michal/g09/l301.exe)
 Standard basis: 6-31G(d) (6D, 7F)
 Ernie: Thresh=  0.10000D-02 Tol=  0.10000D-05 Strict=F.
 AO basis set in the form of general basis input (Overlap normalization):
      1 0
 S   6 1.00       0.000000000000
      0.3047524880D+04  0.1834737132D-02
      0.4573695180D+03  0.1403732281D-01
      0.1039486850D+03  0.6884262226D-01
      0.2921015530D+02  0.2321844432D+00
      0.9286662960D+01  0.4679413484D+00
      0.3163926960D+01  0.3623119853D+00
 SP   3 1.00       0.000000000000
      0.7868272350D+01 -0.1193324198D+00  0.6899906659D-01
      0.1881288540D+01 -0.1608541517D+00  0.3164239610D+00
      0.5442492580D+00  0.1143456438D+01  0.7443082909D+00
 SP   1 1.00       0.000000000000
      0.1687144782D+00  0.1000000000D+01  0.1000000000D+01
 D   1 1.00       0.000000000000
      0.8000000000D+00  0.1000000000D+01
 ****
      2 0
 S   3 1.00       0.000000000000
      0.1873113696D+02  0.3349460434D-01
      0.2825394365D+01  0.2347269535D+00
      0.6401216923D+00  0.8137573261D+00
 S   1 1.00       0.000000000000
      0.1612777588D+00  0.1000000000D+01
 ****
      3 0
 S   6 1.00       0.000000000000
      0.3047524880D+04  0.1834737132D-02
      0.4573695180D+03  0.1403732281D-01
      0.1039486850D+03  0.6884262226D-01
      0.2921015530D+02  0.2321844432D+00
      0.9286662960D+01  0.4679413484D+00
      0.3163926960D+01  0.3623119853D+00
 SP   3 1.00       0.000000000000
      0.7868272350D+01 -0.1193324198D+00  0.6899906659D-01
      0.1881288540D+01 -0.1608541517D+00  0.3164239610D+00
      0.5442492580D+00  0.1143456438D+01  0.7443082909D+00
 SP   1 1.00       0.000000000000
      0.1687144782D+00  0.1000000000D+01  0.1000000000D+01
 D   1 1.00       0.000000000000
      0.8000000000D+00  0.1000000000D+01
 ****
      4 0
 S   3 1.00       0.000000000000
      0.1873113696D+02  0.3349460434D-01
      0.2825394365D+01  0.2347269535D+00
      0.6401216923D+00  0.8137573261D+00
 S   1 1.00       0.000000000000
      0.1612777588D+00  0.1000000000D+01
 ****
      5 0
 S   3 1.00       0.000000000000
      0.1873113696D+02  0.3349460434D-01
      0.2825394365D+01  0.2347269535D+00
      0.6401216923D+00  0.8137573261D+00
 S   1 1.00       0.000000000000
      0.1612777588D+00  0.1000000000D+01
 ****
      6 0
 S   6 1.00       0.000000000000
      0.3047524880D+04  0.1834737132D-02
      0.4573695180D+03  0.1403732281D-01
      0.1039486850D+03  0.6884262226D-01
      0.2921015530D+02  0.2321844432D+00
      0.9286662960D+01  0.4679413484D+00
      0.3163926960D+01  0.3623119853D+00
 SP   3 1.00       0.000000000000
      0.7868272350D+01 -0.1193324198D+00  0.6899906659D-01
      0.1881288540D+01 -0.1608541517D+00  0.3164239610D+00
      0.5442492580D+00  0.1143456438D+01  0.7443082909D+00
 SP   1 1.00       0.000000000000
      0.1687144782D+00  0.1000000000D+01  0.1000000000D+01
 D   1 1.00       0.000000000000
      0.8000000000D+00  0.1000000000D+01
 ****
      7 0
 S   6 1.00       0.000000000000
      0.3047524880D+04  0.1834737132D-02
      0.4573695180D+03  0.1403732281D-01
      0.1039486850D+03  0.6884262226D-01
      0.2921015530D+02  0.2321844432D+00
      0.9286662960D+01  0.4679413484D+00
      0.3163926960D+01  0.3623119853D+00
 SP   3 1.00       0.000000000000
      0.7868272350D+01 -0.1193324198D+00  0.6899906659D-01
      0.1881288540D+01 -0.1608541517D+00  0.3164239610D+00
      0.5442492580D+00  0.1143456438D+01  0.7443082909D+00
 SP   1 1.00       0.000000000000
      0.1687144782D+00  0.1000000000D+01  0.1000000000D+01
 D   1 1.00       0.000000000000
      0.8000000000D+00  0.1000000000D+01
 ****
      8 0
 S   6 1.00       0.000000000000
      0.3047524880D+04  0.1834737132D-02
      0.4573695180D+03  0.1403732281D-01
      0.1039486850D+03  0.6884262226D-01
      0.2921015530D+02  0.2321844432D+00
      0.9286662960D+01  0.4679413484D+00
      0.3163926960D+01  0.3623119853D+00
 SP   3 1.00       0.000000000000
      0.7868272350D+01 -0.1193324198D+00  0.6899906659D-01
      0.1881288540D+01 -0.1608541517D+00  0.3164239610D+00
      0.5442492580D+00  0.1143456438D+01  0.7443082909D+00
 SP   1 1.00       0.000000000000
      0.1687144782D+00  0.1000000000D+01  0.1000000000D+01
 D   1 1.00       0.000000000000
      0.8000000000D+00  0.1000000000D+01
 ****
      9 0
 S   3 1.00       0.000000000000
      0.1873113696D+02  0.3349460434D-01
      0.2825394365D+01  0.2347269535D+00
      0.6401216923D+00  0.8137573261D+00
 S   1 1.00       0.000000000000
      0.1612777588D+00  0.1000000000D+01
 ****
     10 0
 S   3 1.00       0.000000000000
      0.1873113696D+02  0.3349460434D-01
      0.2825394365D+01  0.2347269535D+00
      0.6401216923D+00  0.8137573261D+00
 S   1 1.00       0.000000000000
      0.1612777588D+00  0.1000000000D+01
 ****
     11 0
 S   6 1.00       0.000000000000
      0.3047524880D+04  0.1834737132D-02
      0.4573695180D+03  0.1403732281D-01
      0.1039486850D+03  0.6884262226D-01
      0.2921015530D+02  0.2321844432D+00
      0.9286662960D+01  0.4679413484D+00
      0.3163926960D+01  0.3623119853D+00
 SP   3 1.00       0.000000000000
      0.7868272350D+01 -0.1193324198D+00  0.6899906659D-01
      0.1881288540D+01 -0.1608541517D+00  0.3164239610D+00
      0.5442492580D+00  0.1143456438D+01  0.7443082909D+00
 SP   1 1.00       0.000000000000
      0.1687144782D+00  0.1000000000D+01  0.1000000000D+01
 D   1 1.00       0.000000000000
      0.8000000000D+00  0.1000000000D+01
 ****
     12 0
 S   3 1.00       0.000000000000
      0.1873113696D+02  0.3349460434D-01
      0.2825394365D+01  0.2347269535D+00
      0.6401216923D+00  0.8137573261D+00
 S   1 1.00       0.000000000000
      0.1612777588D+00  0.1000000000D+01
 ****
     13 0
 S   3 1.00       0.000000000000
      0.1873113696D+02  0.3349460434D-01
      0.2825394365D+01  0.2347269535D+00
      0.6401216923D+00  0.8137573261D+00
 S   1 1.00       0.000000000000
      0.1612777588D+00  0.1000000000D+01
 ****
     14 0
 S   6 1.00       0.000000000000
      0.3047524880D+04  0.1834737132D-02
      0.4573695180D+03  0.1403732281D-01
      0.1039486850D+03  0.6884262226D-01
      0.2921015530D+02  0.2321844432D+00
      0.9286662960D+01  0.4679413484D+00
      0.3163926960D+01  0.3623119853D+00
 SP   3 1.00       0.000000000000
      0.7868272350D+01 -0.1193324198D+00  0.6899906659D-01
      0.1881288540D+01 -0.1608541517D+00  0.3164239610D+00
      0.5442492580D+00  0.1143456438D+01  0.7443082909D+00
 SP   1 1.00       0.000000000000
      0.1687144782D+00  0.1000000000D+01  0.1000000000D+01
 D   1 1.00       0.000000000000
      0.8000000000D+00  0.1000000000D+01
 ****
     15 0
 S   3 1.00       0.000000000000
      0.1873113696D+02  0.3349460434D-01
      0.2825394365D+01  0.2347269535D+00
      0.6401216923D+00  0.8137573261D+00
 S   1 1.00       0.000000000000
      0.1612777588D+00  0.1000000000D+01
 ****
     16 0
 S   6 1.00       0.000000000000
      0.3047524880D+04  0.1834737132D-02
      0.4573695180D+03  0.1403732281D-01
      0.1039486850D+03  0.6884262226D-01
      0.2921015530D+02  0.2321844432D+00
      0.9286662960D+01  0.4679413484D+00
      0.3163926960D+01  0.3623119853D+00
 SP   3 1.00       0.000000000000
      0.7868272350D+01 -0.1193324198D+00  0.6899906659D-01
      0.1881288540D+01 -0.1608541517D+00  0.3164239610D+00
      0.5442492580D+00  0.1143456438D+01  0.7443082909D+00
 SP   1 1.00       0.000000000000
      0.1687144782D+00  0.1000000000D+01  0.1000000000D+01
 D   1 1.00       0.000000000000
      0.8000000000D+00  0.1000000000D+01
 ****
     17 0
 S   3 1.00       0.000000000000
      0.1873113696D+02  0.3349460434D-01
      0.2825394365D+01  0.2347269535D+00
      0.6401216923D+00  0.8137573261D+00
 S   1 1.00       0.000000000000
      0.1612777588D+00  0.1000000000D+01
 ****
     18 0
 S   6 1.00       0.000000000000
      0.3047524880D+04  0.1834737132D-02
      0.4573695180D+03  0.1403732281D-01
      0.1039486850D+03  0.6884262226D-01
      0.2921015530D+02  0.2321844432D+00
      0.9286662960D+01  0.4679413484D+00
      0.3163926960D+01  0.3623119853D+00
 SP   3 1.00       0.000000000000
      0.7868272350D+01 -0.1193324198D+00  0.6899906659D-01
      0.1881288540D+01 -0.1608541517D+00  0.3164239610D+00
      0.5442492580D+00  0.1143456438D+01  0.7443082909D+00
 SP   1 1.00       0.000000000000
      0.1687144782D+00  0.1000000000D+01  0.1000000000D+01
 D   1 1.00       0.000000000000
      0.8000000000D+00  0.1000000000D+01
 ****
     19 0
 S   3 1.00       0.000000000000
      0.1873113696D+02  0.3349460434D-01
      0.2825394365D+01  0.2347269535D+00
      0.6401216923D+00  0.8137573261D+00
 S   1 1.00       0.000000000000
      0.1612777588D+00  0.1000000000D+01
 ****
     20 0
 S   6 1.00       0.000000000000
      0.3047524880D+04  0.1834737132D-02
      0.4573695180D+03  0.1403732281D-01
      0.1039486850D+03  0.6884262226D-01
      0.2921015530D+02  0.2321844432D+00
      0.9286662960D+01  0.4679413484D+00
      0.3163926960D+01  0.3623119853D+00
 SP   3 1.00       0.000000000000
      0.7868272350D+01 -0.1193324198D+00  0.6899906659D-01
      0.1881288540D+01 -0.1608541517D+00  0.3164239610D+00
      0.5442492580D+00  0.1143456438D+01  0.7443082909D+00
 SP   1 1.00       0.000000000000
      0.1687144782D+00  0.1000000000D+01  0.1000000000D+01
 D   1 1.00       0.000000000000
      0.8000000000D+00  0.1000000000D+01
 ****
     21 0
 S   3 1.00       0.000000000000
      0.1873113696D+02  0.3349460434D-01
      0.2825394365D+01  0.2347269535D+00
      0.6401216923D+00  0.8137573261D+00
 S   1 1.00       0.000000000000
      0.1612777588D+00  0.1000000000D+01
 ****
     22 0
 S   6 1.00       0.000000000000
      0.3047524880D+04  0.1834737132D-02
      0.4573695180D+03  0.1403732281D-01
      0.1039486850D+03  0.6884262226D-01
      0.2921015530D+02  0.2321844432D+00
      0.9286662960D+01  0.4679413484D+00
      0.3163926960D+01  0.3623119853D+00
 SP   3 1.00       0.000000000000
      0.7868272350D+01 -0.1193324198D+00  0.6899906659D-01
      0.1881288540D+01 -0.1608541517D+00  0.3164239610D+00
      0.5442492580D+00  0.1143456438D+01  0.7443082909D+00
 SP   1 1.00       0.000000000000
      0.1687144782D+00  0.1000000000D+01  0.1000000000D+01
 D   1 1.00       0.000000000000
      0.8000000000D+00  0.1000000000D+01
 ****
     23 0
 S   3 1.00       0.000000000000
      0.1873113696D+02  0.3349460434D-01
      0.2825394365D+01  0.2347269535D+00
      0.6401216923D+00  0.8137573261D+00
 S   1 1.00       0.000000000000
      0.1612777588D+00  0.1000000000D+01
 ****
     24 0
 S   3 1.00       0.000000000000
      0.1873113696D+02  0.3349460434D-01
      0.2825394365D+01  0.2347269535D+00
      0.6401216923D+00  0.8137573261D+00
 S   1 1.00       0.000000000000
      0.1612777588D+00  0.1000000000D+01
 ****
     25 0
 S   6 1.00       0.000000000000
      0.3047524880D+04  0.1834737132D-02
      0.4573695180D+03  0.1403732281D-01
      0.1039486850D+03  0.6884262226D-01
      0.2921015530D+02  0.2321844432D+00
      0.9286662960D+01  0.4679413484D+00
      0.3163926960D+01  0.3623119853D+00
 SP   3 1.00       0.000000000000
      0.7868272350D+01 -0.1193324198D+00  0.6899906659D-01
      0.1881288540D+01 -0.1608541517D+00  0.3164239610D+00
      0.5442492580D+00  0.1143456438D+01  0.7443082909D+00
 SP   1 1.00       0.000000000000
      0.1687144782D+00  0.1000000000D+01  0.1000000000D+01
 D   1 1.00       0.000000000000
      0.8000000000D+00  0.1000000000D+01
 ****
     26 0
 S   3 1.00       0.000000000000
      0.1873113696D+02  0.3349460434D-01
      0.2825394365D+01  0.2347269535D+00
      0.6401216923D+00  0.8137573261D+00
 S   1 1.00       0.000000000000
      0.1612777588D+00  0.1000000000D+01
 ****
     27 0
 S   3 1.00       0.000000000000
      0.1873113696D+02  0.3349460434D-01
      0.2825394365D+01  0.2347269535D+00
      0.6401216923D+00  0.8137573261D+00
 S   1 1.00       0.000000000000
      0.1612777588D+00  0.1000000000D+01
 ****
     28 0
 S   6 1.00       0.000000000000
      0.3047524880D+04  0.1834737132D-02
      0.4573695180D+03  0.1403732281D-01
      0.1039486850D+03  0.6884262226D-01
      0.2921015530D+02  0.2321844432D+00
      0.9286662960D+01  0.4679413484D+00
      0.3163926960D+01  0.3623119853D+00
 SP   3 1.00       0.000000000000
      0.7868272350D+01 -0.1193324198D+00  0.6899906659D-01
      0.1881288540D+01 -0.1608541517D+00  0.3164239610D+00
      0.5442492580D+00  0.1143456438D+01  0.7443082909D+00
 SP   1 1.00       0.000000000000
      0.1687144782D+00  0.1000000000D+01  0.1000000000D+01
 D   1 1.00       0.000000000000
      0.8000000000D+00  0.1000000000D+01
 ****
     29 0
 S   6 1.00       0.000000000000
      0.3047524880D+04  0.1834737132D-02
      0.4573695180D+03  0.1403732281D-01
      0.1039486850D+03  0.6884262226D-01
      0.2921015530D+02  0.2321844432D+00
      0.9286662960D+01  0.4679413484D+00
      0.3163926960D+01  0.3623119853D+00
 SP   3 1.00       0.000000000000
      0.7868272350D+01 -0.1193324198D+00  0.6899906659D-01
      0.1881288540D+01 -0.1608541517D+00  0.3164239610D+00
      0.5442492580D+00  0.1143456438D+01  0.7443082909D+00
 SP   1 1.00       0.000000000000
      0.1687144782D+00  0.1000000000D+01  0.1000000000D+01
 D   1 1.00       0.000000000000
      0.8000000000D+00  0.1000000000D+01
 ****
     30 0
 S   3 1.00       0.000000000000
      0.1873113696D+02  0.3349460434D-01
      0.2825394365D+01  0.2347269535D+00
      0.6401216923D+00  0.8137573261D+00
 S   1 1.00       0.000000000000
      0.1612777588D+00  0.1000000000D+01
 ****
     31 0
 S   6 1.00       0.000000000000
      0.3047524880D+04  0.1834737132D-02
      0.4573695180D+03  0.1403732281D-01
      0.1039486850D+03  0.6884262226D-01
      0.2921015530D+02  0.2321844432D+00
      0.9286662960D+01  0.4679413484D+00
      0.3163926960D+01  0.3623119853D+00
 SP   3 1.00       0.000000000000
      0.7868272350D+01 -0.1193324198D+00  0.6899906659D-01
      0.1881288540D+01 -0.1608541517D+00  0.3164239610D+00
      0.5442492580D+00  0.1143456438D+01  0.7443082909D+00
 SP   1 1.00       0.000000000000
      0.1687144782D+00  0.1000000000D+01  0.1000000000D+01
 D   1 1.00       0.000000000000
      0.8000000000D+00  0.1000000000D+01
 ****
     32 0
 S   3 1.00       0.000000000000
      0.1873113696D+02  0.3349460434D-01
      0.2825394365D+01  0.2347269535D+00
      0.6401216923D+00  0.8137573261D+00
 S   1 1.00       0.000000000000
      0.1612777588D+00  0.1000000000D+01
 ****
     33 0
 S   3 1.00       0.000000000000
      0.1873113696D+02  0.3349460434D-01
      0.2825394365D+01  0.2347269535D+00
      0.6401216923D+00  0.8137573261D+00
 S   1 1.00       0.000000000000
      0.1612777588D+00  0.1000000000D+01
 ****
     34 0
 S   6 1.00       0.000000000000
      0.3047524880D+04  0.1834737132D-02
      0.4573695180D+03  0.1403732281D-01
      0.1039486850D+03  0.6884262226D-01
      0.2921015530D+02  0.2321844432D+00
      0.9286662960D+01  0.4679413484D+00
      0.3163926960D+01  0.3623119853D+00
 SP   3 1.00       0.000000000000
      0.7868272350D+01 -0.1193324198D+00  0.6899906659D-01
      0.1881288540D+01 -0.1608541517D+00  0.3164239610D+00
      0.5442492580D+00  0.1143456438D+01  0.7443082909D+00
 SP   1 1.00       0.000000000000
      0.1687144782D+00  0.1000000000D+01  0.1000000000D+01
 D   1 1.00       0.000000000000
      0.8000000000D+00  0.1000000000D+01
 ****
     35 0
 S   3 1.00       0.000000000000
      0.1873113696D+02  0.3349460434D-01
      0.2825394365D+01  0.2347269535D+00
      0.6401216923D+00  0.8137573261D+00
 S   1 1.00       0.000000000000
      0.1612777588D+00  0.1000000000D+01
 ****
     36 0
 S   3 1.00       0.000000000000
      0.1873113696D+02  0.3349460434D-01
      0.2825394365D+01  0.2347269535D+00
      0.6401216923D+00  0.8137573261D+00
 S   1 1.00       0.000000000000
      0.1612777588D+00  0.1000000000D+01
 ****
     37 0
 S   6 1.00       0.000000000000
      0.3047524880D+04  0.1834737132D-02
      0.4573695180D+03  0.1403732281D-01
      0.1039486850D+03  0.6884262226D-01
      0.2921015530D+02  0.2321844432D+00
      0.9286662960D+01  0.4679413484D+00
      0.3163926960D+01  0.3623119853D+00
 SP   3 1.00       0.000000000000
      0.7868272350D+01 -0.1193324198D+00  0.6899906659D-01
      0.1881288540D+01 -0.1608541517D+00  0.3164239610D+00
      0.5442492580D+00  0.1143456438D+01  0.7443082909D+00
 SP   1 1.00       0.000000000000
      0.1687144782D+00  0.1000000000D+01  0.1000000000D+01
 D   1 1.00       0.000000000000
      0.8000000000D+00  0.1000000000D+01
 ****
     38 0
 S   3 1.00       0.000000000000
      0.1873113696D+02  0.3349460434D-01
      0.2825394365D+01  0.2347269535D+00
      0.6401216923D+00  0.8137573261D+00
 S   1 1.00       0.000000000000
      0.1612777588D+00  0.1000000000D+01
 ****
     39 0
 S   6 1.00       0.000000000000
      0.3047524880D+04  0.1834737132D-02
      0.4573695180D+03  0.1403732281D-01
      0.1039486850D+03  0.6884262226D-01
      0.2921015530D+02  0.2321844432D+00
      0.9286662960D+01  0.4679413484D+00
      0.3163926960D+01  0.3623119853D+00
 SP   3 1.00       0.000000000000
      0.7868272350D+01 -0.1193324198D+00  0.6899906659D-01
      0.1881288540D+01 -0.1608541517D+00  0.3164239610D+00
      0.5442492580D+00  0.1143456438D+01  0.7443082909D+00
 SP   1 1.00       0.000000000000
      0.1687144782D+00  0.1000000000D+01  0.1000000000D+01
 D   1 1.00       0.000000000000
      0.8000000000D+00  0.1000000000D+01
 ****
     40 0
 S   3 1.00       0.000000000000
      0.1873113696D+02  0.3349460434D-01
      0.2825394365D+01  0.2347269535D+00
      0.6401216923D+00  0.8137573261D+00
 S   1 1.00       0.000000000000
      0.1612777588D+00  0.1000000000D+01
 ****
     41 0
 S   3 1.00       0.000000000000
      0.1873113696D+02  0.3349460434D-01
      0.2825394365D+01  0.2347269535D+00
      0.6401216923D+00  0.8137573261D+00
 S   1 1.00       0.000000000000
      0.1612777588D+00  0.1000000000D+01
 ****
     42 0
 S   3 1.00       0.000000000000
      0.1873113696D+02  0.3349460434D-01
      0.2825394365D+01  0.2347269535D+00
      0.6401216923D+00  0.8137573261D+00
 S   1 1.00       0.000000000000
      0.1612777588D+00  0.1000000000D+01
 ****
     43 0
 S   6 1.00       0.000000000000
      0.3047524880D+04  0.1834737132D-02
      0.4573695180D+03  0.1403732281D-01
      0.1039486850D+03  0.6884262226D-01
      0.2921015530D+02  0.2321844432D+00
      0.9286662960D+01  0.4679413484D+00
      0.3163926960D+01  0.3623119853D+00
 SP   3 1.00       0.000000000000
      0.7868272350D+01 -0.1193324198D+00  0.6899906659D-01
      0.1881288540D+01 -0.1608541517D+00  0.3164239610D+00
      0.5442492580D+00  0.1143456438D+01  0.7443082909D+00
 SP   1 1.00       0.000000000000
      0.1687144782D+00  0.1000000000D+01  0.1000000000D+01
 D   1 1.00       0.000000000000
      0.8000000000D+00  0.1000000000D+01
 ****
     44 0
 S   3 1.00       0.000000000000
      0.1873113696D+02  0.3349460434D-01
      0.2825394365D+01  0.2347269535D+00
      0.6401216923D+00  0.8137573261D+00
 S   1 1.00       0.000000000000
      0.1612777588D+00  0.1000000000D+01
 ****
     45 0
 S   6 1.00       0.000000000000
      0.3047524880D+04  0.1834737132D-02
      0.4573695180D+03  0.1403732281D-01
      0.1039486850D+03  0.6884262226D-01
      0.2921015530D+02  0.2321844432D+00
      0.9286662960D+01  0.4679413484D+00
      0.3163926960D+01  0.3623119853D+00
 SP   3 1.00       0.000000000000
      0.7868272350D+01 -0.1193324198D+00  0.6899906659D-01
      0.1881288540D+01 -0.1608541517D+00  0.3164239610D+00
      0.5442492580D+00  0.1143456438D+01  0.7443082909D+00
 SP   1 1.00       0.000000000000
      0.1687144782D+00  0.1000000000D+01  0.1000000000D+01
 D   1 1.00       0.000000000000
      0.8000000000D+00  0.1000000000D+01
 ****
     46 0
 S   3 1.00       0.000000000000
      0.1873113696D+02  0.3349460434D-01
      0.2825394365D+01  0.2347269535D+00
      0.6401216923D+00  0.8137573261D+00
 S   1 1.00       0.000000000000
      0.1612777588D+00  0.1000000000D+01
 ****
     47 0
 S   3 1.00       0.000000000000
      0.1873113696D+02  0.3349460434D-01
      0.2825394365D+01  0.2347269535D+00
      0.6401216923D+00  0.8137573261D+00
 S   1 1.00       0.000000000000
      0.1612777588D+00  0.1000000000D+01
 ****
     48 0
 S   3 1.00       0.000000000000
      0.1873113696D+02  0.3349460434D-01
      0.2825394365D+01  0.2347269535D+00
      0.6401216923D+00  0.8137573261D+00
 S   1 1.00       0.000000000000
      0.1612777588D+00  0.1000000000D+01
 ****
     49 0
 S   6 1.00       0.000000000000
      0.3047524880D+04  0.1834737132D-02
      0.4573695180D+03  0.1403732281D-01
      0.1039486850D+03  0.6884262226D-01
      0.2921015530D+02  0.2321844432D+00
      0.9286662960D+01  0.4679413484D+00
      0.3163926960D+01  0.3623119853D+00
 SP   3 1.00       0.000000000000
      0.7868272350D+01 -0.1193324198D+00  0.6899906659D-01
      0.1881288540D+01 -0.1608541517D+00  0.3164239610D+00
      0.5442492580D+00  0.1143456438D+01  0.7443082909D+00
 SP   1 1.00       0.000000000000
      0.1687144782D+00  0.1000000000D+01  0.1000000000D+01
 D   1 1.00       0.000000000000
      0.8000000000D+00  0.1000000000D+01
 ****
     50 0
 S   3 1.00       0.000000000000
      0.1873113696D+02  0.3349460434D-01
      0.2825394365D+01  0.2347269535D+00
      0.6401216923D+00  0.8137573261D+00
 S   1 1.00       0.000000000000
      0.1612777588D+00  0.1000000000D+01
 ****
     51 0
 S   3 1.00       0.000000000000
      0.1873113696D+02  0.3349460434D-01
      0.2825394365D+01  0.2347269535D+00
      0.6401216923D+00  0.8137573261D+00
 S   1 1.00       0.000000000000
      0.1612777588D+00  0.1000000000D+01
 ****
     52 0
 S   3 1.00       0.000000000000
      0.1873113696D+02  0.3349460434D-01
      0.2825394365D+01  0.2347269535D+00
      0.6401216923D+00  0.8137573261D+00
 S   1 1.00       0.000000000000
      0.1612777588D+00  0.1000000000D+01
 ****
     53 0
 S   6 1.00       0.000000000000
      0.5484671660D+04  0.1831074430D-02
      0.8252349460D+03  0.1395017220D-01
      0.1880469580D+03  0.6844507810D-01
      0.5296450000D+02  0.2327143360D+00
      0.1689757040D+02  0.4701928980D+00
      0.5799635340D+01  0.3585208530D+00
 SP   3 1.00       0.000000000000
      0.1553961625D+02 -0.1107775495D+00  0.7087426823D-01
      0.3599933586D+01 -0.1480262627D+00  0.3397528391D+00
      0.1013761750D+01  0.1130767015D+01  0.7271585773D+00
 SP   1 1.00       0.000000000000
      0.2700058226D+00  0.1000000000D+01  0.1000000000D+01
 D   1 1.00       0.000000000000
      0.8000000000D+00  0.1000000000D+01
 ****
     54 0
 S   6 1.00       0.000000000000
      0.5484671660D+04  0.1831074430D-02
      0.8252349460D+03  0.1395017220D-01
      0.1880469580D+03  0.6844507810D-01
      0.5296450000D+02  0.2327143360D+00
      0.1689757040D+02  0.4701928980D+00
      0.5799635340D+01  0.3585208530D+00
 SP   3 1.00       0.000000000000
      0.1553961625D+02 -0.1107775495D+00  0.7087426823D-01
      0.3599933586D+01 -0.1480262627D+00  0.3397528391D+00
      0.1013761750D+01  0.1130767015D+01  0.7271585773D+00
 SP   1 1.00       0.000000000000
      0.2700058226D+00  0.1000000000D+01  0.1000000000D+01
 D   1 1.00       0.000000000000
      0.8000000000D+00  0.1000000000D+01
 ****
     55 0
 S   3 1.00       0.000000000000
      0.1873113696D+02  0.3349460434D-01
      0.2825394365D+01  0.2347269535D+00
      0.6401216923D+00  0.8137573261D+00
 S   1 1.00       0.000000000000
      0.1612777588D+00  0.1000000000D+01
 ****
     56 0
 S   6 1.00       0.000000000000
      0.5484671660D+04  0.1831074430D-02
      0.8252349460D+03  0.1395017220D-01
      0.1880469580D+03  0.6844507810D-01
      0.5296450000D+02  0.2327143360D+00
      0.1689757040D+02  0.4701928980D+00
      0.5799635340D+01  0.3585208530D+00
 SP   3 1.00       0.000000000000
      0.1553961625D+02 -0.1107775495D+00  0.7087426823D-01
      0.3599933586D+01 -0.1480262627D+00  0.3397528391D+00
      0.1013761750D+01  0.1130767015D+01  0.7271585773D+00
 SP   1 1.00       0.000000000000
      0.2700058226D+00  0.1000000000D+01  0.1000000000D+01
 D   1 1.00       0.000000000000
      0.8000000000D+00  0.1000000000D+01
 ****
     57 0
 S   3 1.00       0.000000000000
      0.1873113696D+02  0.3349460434D-01
      0.2825394365D+01  0.2347269535D+00
      0.6401216923D+00  0.8137573261D+00
 S   1 1.00       0.000000000000
      0.1612777588D+00  0.1000000000D+01
 ****
     58 0
 S   6 1.00       0.000000000000
      0.3047524880D+04  0.1834737132D-02
      0.4573695180D+03  0.1403732281D-01
      0.1039486850D+03  0.6884262226D-01
      0.2921015530D+02  0.2321844432D+00
      0.9286662960D+01  0.4679413484D+00
      0.3163926960D+01  0.3623119853D+00
 SP   3 1.00       0.000000000000
      0.7868272350D+01 -0.1193324198D+00  0.6899906659D-01
      0.1881288540D+01 -0.1608541517D+00  0.3164239610D+00
      0.5442492580D+00  0.1143456438D+01  0.7443082909D+00
 SP   1 1.00       0.000000000000
      0.1687144782D+00  0.1000000000D+01  0.1000000000D+01
 D   1 1.00       0.000000000000
      0.8000000000D+00  0.1000000000D+01
 ****
     59 0
 S   3 1.00       0.000000000000
      0.1873113696D+02  0.3349460434D-01
      0.2825394365D+01  0.2347269535D+00
      0.6401216923D+00  0.8137573261D+00
 S   1 1.00       0.000000000000
      0.1612777588D+00  0.1000000000D+01
 ****
     60 0
 S   3 1.00       0.000000000000
      0.1873113696D+02  0.3349460434D-01
      0.2825394365D+01  0.2347269535D+00
      0.6401216923D+00  0.8137573261D+00
 S   1 1.00       0.000000000000
      0.1612777588D+00  0.1000000000D+01
 ****
     61 0
 S   6 1.00       0.000000000000
      0.3047524880D+04  0.1834737132D-02
      0.4573695180D+03  0.1403732281D-01
      0.1039486850D+03  0.6884262226D-01
      0.2921015530D+02  0.2321844432D+00
      0.9286662960D+01  0.4679413484D+00
      0.3163926960D+01  0.3623119853D+00
 SP   3 1.00       0.000000000000
      0.7868272350D+01 -0.1193324198D+00  0.6899906659D-01
      0.1881288540D+01 -0.1608541517D+00  0.3164239610D+00
      0.5442492580D+00  0.1143456438D+01  0.7443082909D+00
 SP   1 1.00       0.000000000000
      0.1687144782D+00  0.1000000000D+01  0.1000000000D+01
 D   1 1.00       0.000000000000
      0.8000000000D+00  0.1000000000D+01
 ****
     62 0
 S   3 1.00       0.000000000000
      0.1873113696D+02  0.3349460434D-01
      0.2825394365D+01  0.2347269535D+00
      0.6401216923D+00  0.8137573261D+00
 S   1 1.00       0.000000000000
      0.1612777588D+00  0.1000000000D+01
 ****
     63 0
 S   3 1.00       0.000000000000
      0.1873113696D+02  0.3349460434D-01
      0.2825394365D+01  0.2347269535D+00
      0.6401216923D+00  0.8137573261D+00
 S   1 1.00       0.000000000000
      0.1612777588D+00  0.1000000000D+01
 ****
     64 0
 S   6 1.00       0.000000000000
      0.3047524880D+04  0.1834737132D-02
      0.4573695180D+03  0.1403732281D-01
      0.1039486850D+03  0.6884262226D-01
      0.2921015530D+02  0.2321844432D+00
      0.9286662960D+01  0.4679413484D+00
      0.3163926960D+01  0.3623119853D+00
 SP   3 1.00       0.000000000000
      0.7868272350D+01 -0.1193324198D+00  0.6899906659D-01
      0.1881288540D+01 -0.1608541517D+00  0.3164239610D+00
      0.5442492580D+00  0.1143456438D+01  0.7443082909D+00
 SP   1 1.00       0.000000000000
      0.1687144782D+00  0.1000000000D+01  0.1000000000D+01
 D   1 1.00       0.000000000000
      0.8000000000D+00  0.1000000000D+01
 ****
     65 0
 S   3 1.00       0.000000000000
      0.1873113696D+02  0.3349460434D-01
      0.2825394365D+01  0.2347269535D+00
      0.6401216923D+00  0.8137573261D+00
 S   1 1.00       0.000000000000
      0.1612777588D+00  0.1000000000D+01
 ****
     66 0
 S   3 1.00       0.000000000000
      0.1873113696D+02  0.3349460434D-01
      0.2825394365D+01  0.2347269535D+00
      0.6401216923D+00  0.8137573261D+00
 S   1 1.00       0.000000000000
      0.1612777588D+00  0.1000000000D+01
 ****
     67 0
 S   6 1.00       0.000000000000
      0.3047524880D+04  0.1834737132D-02
      0.4573695180D+03  0.1403732281D-01
      0.1039486850D+03  0.6884262226D-01
      0.2921015530D+02  0.2321844432D+00
      0.9286662960D+01  0.4679413484D+00
      0.3163926960D+01  0.3623119853D+00
 SP   3 1.00       0.000000000000
      0.7868272350D+01 -0.1193324198D+00  0.6899906659D-01
      0.1881288540D+01 -0.1608541517D+00  0.3164239610D+00
      0.5442492580D+00  0.1143456438D+01  0.7443082909D+00
 SP   1 1.00       0.000000000000
      0.1687144782D+00  0.1000000000D+01  0.1000000000D+01
 D   1 1.00       0.000000000000
      0.8000000000D+00  0.1000000000D+01
 ****
     68 0
 S   3 1.00       0.000000000000
      0.1873113696D+02  0.3349460434D-01
      0.2825394365D+01  0.2347269535D+00
      0.6401216923D+00  0.8137573261D+00
 S   1 1.00       0.000000000000
      0.1612777588D+00  0.1000000000D+01
 ****
     69 0
 S   6 1.00       0.000000000000
      0.3047524880D+04  0.1834737132D-02
      0.4573695180D+03  0.1403732281D-01
      0.1039486850D+03  0.6884262226D-01
      0.2921015530D+02  0.2321844432D+00
      0.9286662960D+01  0.4679413484D+00
      0.3163926960D+01  0.3623119853D+00
 SP   3 1.00       0.000000000000
      0.7868272350D+01 -0.1193324198D+00  0.6899906659D-01
      0.1881288540D+01 -0.1608541517D+00  0.3164239610D+00
      0.5442492580D+00  0.1143456438D+01  0.7443082909D+00
 SP   1 1.00       0.000000000000
      0.1687144782D+00  0.1000000000D+01  0.1000000000D+01
 D   1 1.00       0.000000000000
      0.8000000000D+00  0.1000000000D+01
 ****
     70 0
 S   3 1.00       0.000000000000
      0.1873113696D+02  0.3349460434D-01
      0.2825394365D+01  0.2347269535D+00
      0.6401216923D+00  0.8137573261D+00
 S   1 1.00       0.000000000000
      0.1612777588D+00  0.1000000000D+01
 ****
     71 0
 S   3 1.00       0.000000000000
      0.1873113696D+02  0.3349460434D-01
      0.2825394365D+01  0.2347269535D+00
      0.6401216923D+00  0.8137573261D+00
 S   1 1.00       0.000000000000
      0.1612777588D+00  0.1000000000D+01
 ****
     72 0
 S   3 1.00       0.000000000000
      0.1873113696D+02  0.3349460434D-01
      0.2825394365D+01  0.2347269535D+00
      0.6401216923D+00  0.8137573261D+00
 S   1 1.00       0.000000000000
      0.1612777588D+00  0.1000000000D+01
 ****
     73 0
 S   6 1.00       0.000000000000
      0.3047524880D+04  0.1834737132D-02
      0.4573695180D+03  0.1403732281D-01
      0.1039486850D+03  0.6884262226D-01
      0.2921015530D+02  0.2321844432D+00
      0.9286662960D+01  0.4679413484D+00
      0.3163926960D+01  0.3623119853D+00
 SP   3 1.00       0.000000000000
      0.7868272350D+01 -0.1193324198D+00  0.6899906659D-01
      0.1881288540D+01 -0.1608541517D+00  0.3164239610D+00
      0.5442492580D+00  0.1143456438D+01  0.7443082909D+00
 SP   1 1.00       0.000000000000
      0.1687144782D+00  0.1000000000D+01  0.1000000000D+01
 D   1 1.00       0.000000000000
      0.8000000000D+00  0.1000000000D+01
 ****
     74 0
 S   3 1.00       0.000000000000
      0.1873113696D+02  0.3349460434D-01
      0.2825394365D+01  0.2347269535D+00
      0.6401216923D+00  0.8137573261D+00
 S   1 1.00       0.000000000000
      0.1612777588D+00  0.1000000000D+01
 ****
     75 0
 S   3 1.00       0.000000000000
      0.1873113696D+02  0.3349460434D-01
      0.2825394365D+01  0.2347269535D+00
      0.6401216923D+00  0.8137573261D+00
 S   1 1.00       0.000000000000
      0.1612777588D+00  0.1000000000D+01
 ****
     76 0
 S   3 1.00       0.000000000000
      0.1873113696D+02  0.3349460434D-01
      0.2825394365D+01  0.2347269535D+00
      0.6401216923D+00  0.8137573261D+00
 S   1 1.00       0.000000000000
      0.1612777588D+00  0.1000000000D+01
 ****

 AO basis set (Overlap normalization):
 Atom C1       Shell     1 S   6     bf    1 -     1         14.189132143477          4.064370564505         -0.099533179330
      0.3047524880D+04  0.1834737132D-02
      0.4573695180D+03  0.1403732281D-01
      0.1039486850D+03  0.6884262226D-01
      0.2921015530D+02  0.2321844432D+00
      0.9286662960D+01  0.4679413484D+00
      0.3163926960D+01  0.3623119853D+00
 Atom C1       Shell     2 SP   3    bf    2 -     5         14.189132143477          4.064370564505         -0.099533179330
      0.7868272350D+01 -0.1193324198D+00  0.6899906659D-01
      0.1881288540D+01 -0.1608541517D+00  0.3164239610D+00
      0.5442492580D+00  0.1143456438D+01  0.7443082909D+00
 Atom C1       Shell     3 SP   1    bf    6 -     9         14.189132143477          4.064370564505         -0.099533179330
      0.1687144782D+00  0.1000000000D+01  0.1000000000D+01
 Atom C1       Shell     4 D   1     bf   10 -    15         14.189132143477          4.064370564505         -0.099533179330
      0.8000000000D+00  0.1000000000D+01
 Atom H2       Shell     5 S   3     bf   16 -    16         13.992340126910          3.910827198160          1.958268238273
      0.1873113696D+02  0.3349460434D-01
      0.2825394365D+01  0.2347269535D+00
      0.6401216923D+00  0.8137573261D+00
 Atom H2       Shell     6 S   1     bf   17 -    17         13.992340126910          3.910827198160          1.958268238273
      0.1612777588D+00  0.1000000000D+01
 Atom C3       Shell     7 S   6     bf   18 -    18         12.768425208643          1.858914356159         -1.345952392579
      0.3047524880D+04  0.1834737132D-02
      0.4573695180D+03  0.1403732281D-01
      0.1039486850D+03  0.6884262226D-01
      0.2921015530D+02  0.2321844432D+00
      0.9286662960D+01  0.4679413484D+00
      0.3163926960D+01  0.3623119853D+00
 Atom C3       Shell     8 SP   3    bf   19 -    22         12.768425208643          1.858914356159         -1.345952392579
      0.7868272350D+01 -0.1193324198D+00  0.6899906659D-01
      0.1881288540D+01 -0.1608541517D+00  0.3164239610D+00
      0.5442492580D+00  0.1143456438D+01  0.7443082909D+00
 Atom C3       Shell     9 SP   1    bf   23 -    26         12.768425208643          1.858914356159         -1.345952392579
      0.1687144782D+00  0.1000000000D+01  0.1000000000D+01
 Atom C3       Shell    10 D   1     bf   27 -    32         12.768425208643          1.858914356159         -1.345952392579
      0.8000000000D+00  0.1000000000D+01
 Atom H4       Shell    11 S   3     bf   33 -    33         13.506106827699          0.063371096592         -0.632318804681
      0.1873113696D+02  0.3349460434D-01
      0.2825394365D+01  0.2347269535D+00
      0.6401216923D+00  0.8137573261D+00
 Atom H4       Shell    12 S   1     bf   34 -    34         13.506106827699          0.063371096592         -0.632318804681
      0.1612777588D+00  0.1000000000D+01
 Atom H5       Shell    13 S   3     bf   35 -    35         13.188678417568          1.907849929308         -3.383816538077
      0.1873113696D+02  0.3349460434D-01
      0.2825394365D+01  0.2347269535D+00
      0.6401216923D+00  0.8137573261D+00
 Atom H5       Shell    14 S   1     bf   36 -    36         13.188678417568          1.907849929308         -3.383816538077
      0.1612777588D+00  0.1000000000D+01
 Atom C6       Shell    15 S   6     bf   37 -    37          9.935403782806          2.006090554861         -0.925131018595
      0.3047524880D+04  0.1834737132D-02
      0.4573695180D+03  0.1403732281D-01
      0.1039486850D+03  0.6884262226D-01
      0.2921015530D+02  0.2321844432D+00
      0.9286662960D+01  0.4679413484D+00
      0.3163926960D+01  0.3623119853D+00
 Atom C6       Shell    16 SP   3    bf   38 -    41          9.935403782806          2.006090554861         -0.925131018595
      0.7868272350D+01 -0.1193324198D+00  0.6899906659D-01
      0.1881288540D+01 -0.1608541517D+00  0.3164239610D+00
      0.5442492580D+00  0.1143456438D+01  0.7443082909D+00
 Atom C6       Shell    17 SP   1    bf   42 -    45          9.935403782806          2.006090554861         -0.925131018595
      0.1687144782D+00  0.1000000000D+01  0.1000000000D+01
 Atom C6       Shell    18 D   1     bf   46 -    51          9.935403782806          2.006090554861         -0.925131018595
      0.8000000000D+00  0.1000000000D+01
 Atom C7       Shell    19 S   6     bf   52 -    52          8.646405430407          4.510069937364         -1.610516073190
      0.3047524880D+04  0.1834737132D-02
      0.4573695180D+03  0.1403732281D-01
      0.1039486850D+03  0.6884262226D-01
      0.2921015530D+02  0.2321844432D+00
      0.9286662960D+01  0.4679413484D+00
      0.3163926960D+01  0.3623119853D+00
 Atom C7       Shell    20 SP   3    bf   53 -    56          8.646405430407          4.510069937364         -1.610516073190
      0.7868272350D+01 -0.1193324198D+00  0.6899906659D-01
      0.1881288540D+01 -0.1608541517D+00  0.3164239610D+00
      0.5442492580D+00  0.1143456438D+01  0.7443082909D+00
 Atom C7       Shell    21 SP   1    bf   57 -    60          8.646405430407          4.510069937364         -1.610516073190
      0.1687144782D+00  0.1000000000D+01  0.1000000000D+01
 Atom C7       Shell    22 D   1     bf   61 -    66          8.646405430407          4.510069937364         -1.610516073190
      0.8000000000D+00  0.1000000000D+01
 Atom C8       Shell    23 S   6     bf   67 -    67         10.223850540381          6.705572901476         -0.434512005180
      0.3047524880D+04  0.1834737132D-02
      0.4573695180D+03  0.1403732281D-01
      0.1039486850D+03  0.6884262226D-01
      0.2921015530D+02  0.2321844432D+00
      0.9286662960D+01  0.4679413484D+00
      0.3163926960D+01  0.3623119853D+00
 Atom C8       Shell    24 SP   3    bf   68 -    71         10.223850540381          6.705572901476         -0.434512005180
      0.7868272350D+01 -0.1193324198D+00  0.6899906659D-01
      0.1881288540D+01 -0.1608541517D+00  0.3164239610D+00
      0.5442492580D+00  0.1143456438D+01  0.7443082909D+00
 Atom C8       Shell    25 SP   1    bf   72 -    75         10.223850540381          6.705572901476         -0.434512005180
      0.1687144782D+00  0.1000000000D+01  0.1000000000D+01
 Atom C8       Shell    26 D   1     bf   76 -    81         10.223850540381          6.705572901476         -0.434512005180
      0.8000000000D+00  0.1000000000D+01
 Atom H9       Shell    27 S   3     bf   82 -    82          9.941749426469          6.675561877301          1.621915657114
      0.1873113696D+02  0.3349460434D-01
      0.2825394365D+01  0.2347269535D+00
      0.6401216923D+00  0.8137573261D+00
 Atom H9       Shell    28 S   1     bf   83 -    83          9.941749426469          6.675561877301          1.621915657114
      0.1612777588D+00  0.1000000000D+01
 Atom H10      Shell    29 S   3     bf   84 -    84          9.479592579896          8.517898327500         -1.102557499698
      0.1873113696D+02  0.3349460434D-01
      0.2825394365D+01  0.2347269535D+00
      0.6401216923D+00  0.8137573261D+00
 Atom H10      Shell    30 S   1     bf   85 -    85          9.479592579896          8.517898327500         -1.102557499698
      0.1612777588D+00  0.1000000000D+01
 Atom C11      Shell    31 S   6     bf   86 -    86         13.075350142982          6.584321439852         -0.968192510341
      0.3047524880D+04  0.1834737132D-02
      0.4573695180D+03  0.1403732281D-01
      0.1039486850D+03  0.6884262226D-01
      0.2921015530D+02  0.2321844432D+00
      0.9286662960D+01  0.4679413484D+00
      0.3163926960D+01  0.3623119853D+00
 Atom C11      Shell    32 SP   3    bf   87 -    90         13.075350142982          6.584321439852         -0.968192510341
      0.7868272350D+01 -0.1193324198D+00  0.6899906659D-01
      0.1881288540D+01 -0.1608541517D+00  0.3164239610D+00
      0.5442492580D+00  0.1143456438D+01  0.7443082909D+00
 Atom C11      Shell    33 SP   1    bf   91 -    94         13.075350142982          6.584321439852         -0.968192510341
      0.1687144782D+00  0.1000000000D+01  0.1000000000D+01
 Atom C11      Shell    34 D   1     bf   95 -   100         13.075350142982          6.584321439852         -0.968192510341
      0.8000000000D+00  0.1000000000D+01
 Atom H12      Shell    35 S   3     bf  101 -   101         13.446747581892          6.826067263223         -2.999239676684
      0.1873113696D+02  0.3349460434D-01
      0.2825394365D+01  0.2347269535D+00
      0.6401216923D+00  0.8137573261D+00
 Atom H12      Shell    36 S   1     bf  102 -   102         13.446747581892          6.826067263223         -2.999239676684
      0.1612777588D+00  0.1000000000D+01
 Atom H13      Shell    37 S   3     bf  103 -   103         14.044200693757          8.137577242743          0.000000000000
      0.1873113696D+02  0.3349460434D-01
      0.2825394365D+01  0.2347269535D+00
      0.6401216923D+00  0.8137573261D+00
 Atom H13      Shell    38 S   1     bf  104 -   104         14.044200693757          8.137577242743          0.000000000000
      0.1612777588D+00  0.1000000000D+01
 Atom C14      Shell    39 S   6     bf  105 -   105          8.689749114956          0.000000000000          0.000000000000
      0.3047524880D+04  0.1834737132D-02
      0.4573695180D+03  0.1403732281D-01
      0.1039486850D+03  0.6884262226D-01
      0.2921015530D+02  0.2321844432D+00
      0.9286662960D+01  0.4679413484D+00
      0.3163926960D+01  0.3623119853D+00
 Atom C14      Shell    40 SP   3    bf  106 -   109          8.689749114956          0.000000000000          0.000000000000
      0.7868272350D+01 -0.1193324198D+00  0.6899906659D-01
      0.1881288540D+01 -0.1608541517D+00  0.3164239610D+00
      0.5442492580D+00  0.1143456438D+01  0.7443082909D+00
 Atom C14      Shell    41 SP   1    bf  110 -   113          8.689749114956          0.000000000000          0.000000000000
      0.1687144782D+00  0.1000000000D+01  0.1000000000D+01
 Atom C14      Shell    42 D   1     bf  114 -   119          8.689749114956          0.000000000000          0.000000000000
      0.8000000000D+00  0.1000000000D+01
 Atom H15      Shell    43 S   3     bf  120 -   120          9.741030766867         -1.711015412800          0.444839207318
      0.1873113696D+02  0.3349460434D-01
      0.2825394365D+01  0.2347269535D+00
      0.6401216923D+00  0.8137573261D+00
 Atom H15      Shell    44 S   1     bf  121 -   121          9.741030766867         -1.711015412800          0.444839207318
      0.1612777588D+00  0.1000000000D+01
 Atom C16      Shell    45 S   6     bf  122 -   122          5.896839526242         -0.082025773777          0.494073319402
      0.3047524880D+04  0.1834737132D-02
      0.4573695180D+03  0.1403732281D-01
      0.1039486850D+03  0.6884262226D-01
      0.2921015530D+02  0.2321844432D+00
      0.9286662960D+01  0.4679413484D+00
      0.3163926960D+01  0.3623119853D+00
 Atom C16      Shell    46 SP   3    bf  123 -   126          5.896839526242         -0.082025773777          0.494073319402
      0.7868272350D+01 -0.1193324198D+00  0.6899906659D-01
      0.1881288540D+01 -0.1608541517D+00  0.3164239610D+00
      0.5442492580D+00  0.1143456438D+01  0.7443082909D+00
 Atom C16      Shell    47 SP   1    bf  127 -   130          5.896839526242         -0.082025773777          0.494073319402
      0.1687144782D+00  0.1000000000D+01  0.1000000000D+01
 Atom C16      Shell    48 D   1     bf  131 -   136          5.896839526242         -0.082025773777          0.494073319402
      0.8000000000D+00  0.1000000000D+01
 Atom H17      Shell    49 S   3     bf  137 -   137          5.118696980955         -1.907225185849         -0.108928784279
      0.1873113696D+02  0.3349460434D-01
      0.2825394365D+01  0.2347269535D+00
      0.6401216923D+00  0.8137573261D+00
 Atom H17      Shell    50 S   1     bf  138 -   138          5.118696980955         -1.907225185849         -0.108928784279
      0.1612777588D+00  0.1000000000D+01
 Atom C18      Shell    51 S   6     bf  139 -   139          4.462119591831          2.080857493719         -0.820162986906
      0.3047524880D+04  0.1834737132D-02
      0.4573695180D+03  0.1403732281D-01
      0.1039486850D+03  0.6884262226D-01
      0.2921015530D+02  0.2321844432D+00
      0.9286662960D+01  0.4679413484D+00
      0.3163926960D+01  0.3623119853D+00
 Atom C18      Shell    52 SP   3    bf  140 -   143          4.462119591831          2.080857493719         -0.820162986906
      0.7868272350D+01 -0.1193324198D+00  0.6899906659D-01
      0.1881288540D+01 -0.1608541517D+00  0.3164239610D+00
      0.5442492580D+00  0.1143456438D+01  0.7443082909D+00
 Atom C18      Shell    53 SP   1    bf  144 -   147          4.462119591831          2.080857493719         -0.820162986906
      0.1687144782D+00  0.1000000000D+01  0.1000000000D+01
 Atom C18      Shell    54 D   1     bf  148 -   153          4.462119591831          2.080857493719         -0.820162986906
      0.8000000000D+00  0.1000000000D+01
 Atom H19      Shell    55 S   3     bf  154 -   154          4.430461841406          1.561578799287         -2.830924075494
      0.1873113696D+02  0.3349460434D-01
      0.2825394365D+01  0.2347269535D+00
      0.6401216923D+00  0.8137573261D+00
 Atom H19      Shell    56 S   1     bf  155 -   155          4.430461841406          1.561578799287         -2.830924075494
      0.1612777588D+00  0.1000000000D+01
 Atom C20      Shell    57 S   6     bf  156 -   156          5.900625668138          4.614553556655         -0.493775498564
      0.3047524880D+04  0.1834737132D-02
      0.4573695180D+03  0.1403732281D-01
      0.1039486850D+03  0.6884262226D-01
      0.2921015530D+02  0.2321844432D+00
      0.9286662960D+01  0.4679413484D+00
      0.3163926960D+01  0.3623119853D+00
 Atom C20      Shell    58 SP   3    bf  157 -   160          5.900625668138          4.614553556655         -0.493775498564
      0.7868272350D+01 -0.1193324198D+00  0.6899906659D-01
      0.1881288540D+01 -0.1608541517D+00  0.3164239610D+00
      0.5442492580D+00  0.1143456438D+01  0.7443082909D+00
 Atom C20      Shell    59 SP   1    bf  161 -   164          5.900625668138          4.614553556655         -0.493775498564
      0.1687144782D+00  0.1000000000D+01  0.1000000000D+01
 Atom C20      Shell    60 D   1     bf  165 -   170          5.900625668138          4.614553556655         -0.493775498564
      0.8000000000D+00  0.1000000000D+01
 Atom H21      Shell    61 S   3     bf  171 -   171          6.123965823537          4.873954278704          1.556352988434
      0.1873113696D+02  0.3349460434D-01
      0.2825394365D+01  0.2347269535D+00
      0.6401216923D+00  0.8137573261D+00
 Atom H21      Shell    62 S   1     bf  172 -   172          6.123965823537          4.873954278704          1.556352988434
      0.1612777588D+00  0.1000000000D+01
 Atom C22      Shell    63 S   6     bf  173 -   173          4.341565590328          6.885700443730         -1.473480522862
      0.3047524880D+04  0.1834737132D-02
      0.4573695180D+03  0.1403732281D-01
      0.1039486850D+03  0.6884262226D-01
      0.2921015530D+02  0.2321844432D+00
      0.9286662960D+01  0.4679413484D+00
      0.3163926960D+01  0.3623119853D+00
 Atom C22      Shell    64 SP   3    bf  174 -   177          4.341565590328          6.885700443730         -1.473480522862
      0.7868272350D+01 -0.1193324198D+00  0.6899906659D-01
      0.1881288540D+01 -0.1608541517D+00  0.3164239610D+00
      0.5442492580D+00  0.1143456438D+01  0.7443082909D+00
 Atom C22      Shell    65 SP   1    bf  178 -   181          4.341565590328          6.885700443730         -1.473480522862
      0.1687144782D+00  0.1000000000D+01  0.1000000000D+01
 Atom C22      Shell    66 D   1     bf  182 -   187          4.341565590328          6.885700443730         -1.473480522862
      0.8000000000D+00  0.1000000000D+01
 Atom H23      Shell    67 S   3     bf  188 -   188          4.317766247129          6.885670642749         -3.542170693622
      0.1873113696D+02  0.3349460434D-01
      0.2825394365D+01  0.2347269535D+00
      0.6401216923D+00  0.8137573261D+00
 Atom H23      Shell    68 S   1     bf  189 -   189          4.317766247129          6.885670642749         -3.542170693622
      0.1612777588D+00  0.1000000000D+01
 Atom H24      Shell    69 S   3     bf  190 -   190          5.271280801062          8.651205674935         -0.917288428376
      0.1873113696D+02  0.3349460434D-01
      0.2825394365D+01  0.2347269535D+00
      0.6401216923D+00  0.8137573261D+00
 Atom H24      Shell    70 S   1     bf  191 -   191          5.271280801062          8.651205674935         -0.917288428376
      0.1612777588D+00  0.1000000000D+01
 Atom C25      Shell    71 S   6     bf  192 -   192          1.584658326904          6.955246598407         -0.530071373912
      0.3047524880D+04  0.1834737132D-02
      0.4573695180D+03  0.1403732281D-01
      0.1039486850D+03  0.6884262226D-01
      0.2921015530D+02  0.2321844432D+00
      0.9286662960D+01  0.4679413484D+00
      0.3163926960D+01  0.3623119853D+00
 Atom C25      Shell    72 SP   3    bf  193 -   196          1.584658326904          6.955246598407         -0.530071373912
      0.7868272350D+01 -0.1193324198D+00  0.6899906659D-01
      0.1881288540D+01 -0.1608541517D+00  0.3164239610D+00
      0.5442492580D+00  0.1143456438D+01  0.7443082909D+00
 Atom C25      Shell    73 SP   1    bf  197 -   200          1.584658326904          6.955246598407         -0.530071373912
      0.1687144782D+00  0.1000000000D+01  0.1000000000D+01
 Atom C25      Shell    74 D   1     bf  201 -   206          1.584658326904          6.955246598407         -0.530071373912
      0.8000000000D+00  0.1000000000D+01
 Atom H26      Shell    75 S   3     bf  207 -   207          1.558273970637          7.253914204332          1.525638664883
      0.1873113696D+02  0.3349460434D-01
      0.2825394365D+01  0.2347269535D+00
      0.6401216923D+00  0.8137573261D+00
 Atom H26      Shell    76 S   1     bf  208 -   208          1.558273970637          7.253914204332          1.525638664883
      0.1612777588D+00  0.1000000000D+01
 Atom H27      Shell    77 S   3     bf  209 -   209          0.650647315136          8.595769613964         -1.375148963688
      0.1873113696D+02  0.3349460434D-01
      0.2825394365D+01  0.2347269535D+00
      0.6401216923D+00  0.8137573261D+00
 Atom H27      Shell    78 S   1     bf  210 -   210          0.650647315136          8.595769613964         -1.375148963688
      0.1612777588D+00  0.1000000000D+01
 Atom C28      Shell    79 S   6     bf  211 -   211          0.174745507741          4.473922273237         -1.126402366399
      0.3047524880D+04  0.1834737132D-02
      0.4573695180D+03  0.1403732281D-01
      0.1039486850D+03  0.6884262226D-01
      0.2921015530D+02  0.2321844432D+00
      0.9286662960D+01  0.4679413484D+00
      0.3163926960D+01  0.3623119853D+00
 Atom C28      Shell    80 SP   3    bf  212 -   215          0.174745507741          4.473922273237         -1.126402366399
      0.7868272350D+01 -0.1193324198D+00  0.6899906659D-01
      0.1881288540D+01 -0.1608541517D+00  0.3164239610D+00
      0.5442492580D+00  0.1143456438D+01  0.7443082909D+00
 Atom C28      Shell    81 SP   1    bf  216 -   219          0.174745507741          4.473922273237         -1.126402366399
      0.1687144782D+00  0.1000000000D+01  0.1000000000D+01
 Atom C28      Shell    82 D   1     bf  220 -   225          0.174745507741          4.473922273237         -1.126402366399
      0.8000000000D+00  0.1000000000D+01
 Atom C29      Shell    83 S   6     bf  226 -   226          1.729836896111          2.322896734867          0.131389350999
      0.3047524880D+04  0.1834737132D-02
      0.4573695180D+03  0.1403732281D-01
      0.1039486850D+03  0.6884262226D-01
      0.2921015530D+02  0.2321844432D+00
      0.9286662960D+01  0.4679413484D+00
      0.3163926960D+01  0.3623119853D+00
 Atom C29      Shell    84 SP   3    bf  227 -   230          1.729836896111          2.322896734867          0.131389350999
      0.7868272350D+01 -0.1193324198D+00  0.6899906659D-01
      0.1881288540D+01 -0.1608541517D+00  0.3164239610D+00
      0.5442492580D+00  0.1143456438D+01  0.7443082909D+00
 Atom C29      Shell    85 SP   1    bf  231 -   234          1.729836896111          2.322896734867          0.131389350999
      0.1687144782D+00  0.1000000000D+01  0.1000000000D+01
 Atom C29      Shell    86 D   1     bf  235 -   240          1.729836896111          2.322896734867          0.131389350999
      0.8000000000D+00  0.1000000000D+01
 Atom H30      Shell    87 S   3     bf  241 -   241          1.856238995283          2.842503372373          2.137647600157
      0.1873113696D+02  0.3349460434D-01
      0.2825394365D+01  0.2347269535D+00
      0.6401216923D+00  0.8137573261D+00
 Atom H30      Shell    88 S   1     bf  242 -   242          1.856238995283          2.842503372373          2.137647600157
      0.1612777588D+00  0.1000000000D+01
 Atom C31      Shell    89 S   6     bf  243 -   243          0.000000000000          0.000000000000          0.000000000000
      0.3047524880D+04  0.1834737132D-02
      0.4573695180D+03  0.1403732281D-01
      0.1039486850D+03  0.6884262226D-01
      0.2921015530D+02  0.2321844432D+00
      0.9286662960D+01  0.4679413484D+00
      0.3163926960D+01  0.3623119853D+00
 Atom C31      Shell    90 SP   3    bf  244 -   247          0.000000000000          0.000000000000          0.000000000000
      0.7868272350D+01 -0.1193324198D+00  0.6899906659D-01
      0.1881288540D+01 -0.1608541517D+00  0.3164239610D+00
      0.5442492580D+00  0.1143456438D+01  0.7443082909D+00
 Atom C31      Shell    91 SP   1    bf  248 -   251          0.000000000000          0.000000000000          0.000000000000
      0.1687144782D+00  0.1000000000D+01  0.1000000000D+01
 Atom C31      Shell    92 D   1     bf  252 -   257          0.000000000000          0.000000000000          0.000000000000
      0.8000000000D+00  0.1000000000D+01
 Atom H32      Shell    93 S   3     bf  258 -   258          0.472735079930         -1.400288595146          1.444315547974
      0.1873113696D+02  0.3349460434D-01
      0.2825394365D+01  0.2347269535D+00
      0.6401216923D+00  0.8137573261D+00
 Atom H32      Shell    94 S   1     bf  259 -   259          0.472735079930         -1.400288595146          1.444315547974
      0.1612777588D+00  0.1000000000D+01
 Atom H33      Shell    95 S   3     bf  260 -   260          0.163867544921         -0.942995960332         -1.839947647395
      0.1873113696D+02  0.3349460434D-01
      0.2825394365D+01  0.2347269535D+00
      0.6401216923D+00  0.8137573261D+00
 Atom H33      Shell    96 S   1     bf  261 -   261          0.163867544921         -0.942995960332         -1.839947647395
      0.1612777588D+00  0.1000000000D+01
 Atom C34      Shell    97 S   6     bf  262 -   262         -2.685223771799          1.125934810359          0.371196561022
      0.3047524880D+04  0.1834737132D-02
      0.4573695180D+03  0.1403732281D-01
      0.1039486850D+03  0.6884262226D-01
      0.2921015530D+02  0.2321844432D+00
      0.9286662960D+01  0.4679413484D+00
      0.3163926960D+01  0.3623119853D+00
 Atom C34      Shell    98 SP   3    bf  263 -   266         -2.685223771799          1.125934810359          0.371196561022
      0.7868272350D+01 -0.1193324198D+00  0.6899906659D-01
      0.1881288540D+01 -0.1608541517D+00  0.3164239610D+00
      0.5442492580D+00  0.1143456438D+01  0.7443082909D+00
 Atom C34      Shell    99 SP   1    bf  267 -   270         -2.685223771799          1.125934810359          0.371196561022
      0.1687144782D+00  0.1000000000D+01  0.1000000000D+01
 Atom C34      Shell   100 D   1     bf  271 -   276         -2.685223771799          1.125934810359          0.371196561022
      0.8000000000D+00  0.1000000000D+01
 Atom H35      Shell   101 S   3     bf  277 -   277         -3.984125744224          0.444536435397         -1.092868363588
      0.1873113696D+02  0.3349460434D-01
      0.2825394365D+01  0.2347269535D+00
      0.6401216923D+00  0.8137573261D+00
 Atom H35      Shell   102 S   1     bf  278 -   278         -3.984125744224          0.444536435397         -1.092868363588
      0.1612777588D+00  0.1000000000D+01
 Atom H36      Shell   103 S   3     bf  279 -   279         -3.488228763515          0.538610592772          2.183052503486
      0.1873113696D+02  0.3349460434D-01
      0.2825394365D+01  0.2347269535D+00
      0.6401216923D+00  0.8137573261D+00
 Atom H36      Shell   104 S   1     bf  280 -   280         -3.488228763515          0.538610592772          2.183052503486
      0.1612777588D+00  0.1000000000D+01
 Atom C37      Shell   105 S   6     bf  281 -   281         -2.430762453711          4.074402421346          0.232807532146
      0.3047524880D+04  0.1834737132D-02
      0.4573695180D+03  0.1403732281D-01
      0.1039486850D+03  0.6884262226D-01
      0.2921015530D+02  0.2321844432D+00
      0.9286662960D+01  0.4679413484D+00
      0.3163926960D+01  0.3623119853D+00
 Atom C37      Shell   106 SP   3    bf  282 -   285         -2.430762453711          4.074402421346          0.232807532146
      0.7868272350D+01 -0.1193324198D+00  0.6899906659D-01
      0.1881288540D+01 -0.1608541517D+00  0.3164239610D+00
      0.5442492580D+00  0.1143456438D+01  0.7443082909D+00
[...]
 1650 Fit       0.000520
 1651 Fit      -0.001160
 1652 Fit      -0.003052
 1653 Fit      -0.002012
 1654 Fit      -0.001550
 1655 Fit      -0.003429
 1656 Fit      -0.002993
 1657 Fit      -0.003464
 1658 Fit      -0.003421
 1659 Fit      -0.003586
 1660 Fit      -0.003064
 1661 Fit      -0.002042
 1662 Fit       0.002410
 1663 Fit       0.001319
 1664 Fit      -0.000628
 1665 Fit      -0.002739
 1666 Fit       0.001773
 1667 Fit       0.001591
 1668 Fit       0.000191
 1669 Fit      -0.001965
 1670 Fit      -0.001256
 1671 Fit       0.000400
 1672 Fit       0.000405
 1673 Fit      -0.001658
 1674 Fit      -0.001214
 1675 Fit       0.000613
 1676 Fit       0.000849
 1677 Fit       0.001271
 1678 Fit       0.000278
 1679 Fit      -0.001345
 1680 Fit      -0.002997
 1681 Fit      -0.000835
 1682 Fit       0.000299
 1683 Fit       0.000091
 1684 Fit      -0.001271
 1685 Fit      -0.002225
 1686 Fit      -0.001521
 1687 Fit      -0.002244
 1688 Fit      -0.001782
 1689 Fit       0.000412
 1690 Fit       0.004255
 1691 Fit      -0.000638
 1692 Fit       0.002044
 1693 Fit       0.003120
 1694 Fit      -0.000694
 1695 Fit      -0.002110
 1696 Fit       0.000710
 1697 Fit       0.000373
 1698 Fit       0.003635
 1699 Fit      -0.002515
 1700 Fit       0.000547
 1701 Fit       0.004940
 1702 Fit       0.006844
 1703 Fit       0.007261
 1704 Fit       0.001507
 1705 Fit      -0.013859
 1706 Fit      -0.009560
 1707 Fit      -0.001451
 1708 Fit       0.004561
 1709 Fit       0.005948
 1710 Fit       0.010793
 1711 Fit       0.007118
 1712 Fit      -0.001009
 1713 Fit      -0.009739
 1714 Fit       0.002314
 1715 Fit       0.003795
 1716 Fit       0.004185
 1717 Fit       0.007290
 1718 Fit       0.004390
 1719 Fit       0.003927
 1720 Fit      -0.003294
 1721 Fit       0.005040
 1722 Fit       0.000928
 1723 Fit      -0.007305
 1724 Fit       0.004146
 1725 Fit       0.001560
 1726 Fit      -0.003851
 1727 Fit       0.003302
 1728 Fit       0.003424
 1729 Fit       0.008826
 1730 Fit       0.004060
 1731 Fit       0.005529
 1732 Fit       0.007503
 1733 Fit       0.011579
 1734 Fit       0.016340
 1735 Fit       0.008976
 1736 Fit       0.011022
 1737 Fit       0.005278
 1738 Fit       0.004907
 1739 Fit       0.005181
 1740 Fit       0.004767
 1741 Fit       0.005760
 1742 Fit       0.004826
 1743 Fit       0.004229
 1744 Fit       0.002978
 1745 Fit       0.002884
 1746 Fit       0.006338
 1747 Fit       0.004981
 1748 Fit       0.004675
 1749 Fit       0.004284
 1750 Fit       0.003976
 1751 Fit       0.005645
 1752 Fit       0.006709
 1753 Fit       0.007344
 1754 Fit       0.007799
 1755 Fit       0.008438
 1756 Fit       0.008663
 1757 Fit       0.009233
 1758 Fit       0.009227
 1759 Fit       0.006136
 1760 Fit       0.006171
 1761 Fit       0.007474
 1762 Fit       0.009364
 1763 Fit       0.006511
 1764 Fit       0.012389
 1765 Fit       0.009369
 1766 Fit       0.009101
 1767 Fit       0.017391
 1768 Fit       0.012401
 1769 Fit       0.010957
 1770 Fit       0.003205
 1771 Fit      -0.002767
 1772 Fit       0.001859
 1773 Fit       0.004454
 1774 Fit      -0.011432
 1775 Fit      -0.001915
 1776 Fit       0.002576
 1777 Fit       0.004530
 1778 Fit      -0.004001
 1779 Fit       0.001562
 1780 Fit       0.004105
 1781 Fit       0.005423
 1782 Fit      -0.001475
 1783 Fit       0.002516
 1784 Fit       0.004531
 1785 Fit       0.005984
 1786 Fit       0.004788
 1787 Fit       0.010835
 1788 Fit       0.001255
 1789 Fit       0.000657
 1790 Fit      -0.000175
 1791 Fit       0.001472
 1792 Fit      -0.000489
 1793 Fit       0.005256
 1794 Fit       0.008553
 1795 Fit      -0.005296
 1796 Fit       0.002048
 1797 Fit       0.005730
 1798 Fit      -0.000175
 1799 Fit       0.002828
 1800 Fit       0.005230
 1801 Fit       0.001429
 1802 Fit       0.002941
 1803 Fit      -0.010124
 1804 Fit      -0.010627
 1805 Fit      -0.002508
 1806 Fit      -0.002052
 1807 Fit      -0.001591
 1808 Fit       0.002035
 1809 Fit       0.002109
 1810 Fit       0.002185
 1811 Fit       0.004846
 1812 Fit       0.003948
 1813 Fit       0.006206
 1814 Fit       0.005802
 1815 Fit       0.007133
 1816 Fit      -0.006153
 1817 Fit       0.000106
 1818 Fit       0.001464
 1819 Fit      -0.001248
 1820 Fit      -0.008865
 1821 Fit       0.002596
 1822 Fit       0.004631
 1823 Fit       0.005810
 1824 Fit       0.005045
 1825 Fit       0.006099
 1826 Fit       0.007068
 1827 Fit       0.004089
 1828 Fit       0.005534
 1829 Fit       0.003924
 1830 Fit       0.006254
 1831 Fit       0.004306
 1832 Fit       0.006832
 1833 Fit       0.004787
 1834 Fit       0.007930
 1835 Fit       0.005261
 1836 Fit       0.001765
 1837 Fit       0.000204
 1838 Fit       0.001747
 1839 Fit      -0.000389
 1840 Fit      -0.000416
 1841 Fit       0.001007
 1842 Fit       0.000871
 1843 Fit       0.000452
 1844 Fit       0.002170
 1845 Fit       0.001599
 1846 Fit       0.000900
 1847 Fit       0.000944
 1848 Fit      -0.000024
 1849 Fit       0.002153
 1850 Fit       0.001092
 1851 Fit       0.003535
 1852 Fit       0.002852
 1853 Fit       0.004483
 1854 Fit       0.004612
 1855 Fit       0.005031
 1856 Fit      -0.014323
 1857 Fit      -0.008863
 1858 Fit      -0.005255
 1859 Fit      -0.008139
 1860 Fit      -0.018093
 1861 Fit      -0.004067
 1862 Fit      -0.004596
 1863 Fit      -0.004555
 1864 Fit      -0.019809
 1865 Fit      -0.013219
 1866 Fit      -0.008093
 1867 Fit      -0.012246
 1868 Fit      -0.006653
 1869 Fit      -0.008278
 1870 Fit      -0.012377
 1871 Fit      -0.006330
 1872 Fit      -0.007001
 1873 Fit      -0.001605
 1874 Fit      -0.001682
 1875 Fit      -0.000727
 1876 Fit       0.001314
 1877 Fit       0.001284
 1878 Fit       0.002530
 1879 Fit       0.005144
 1880 Fit       0.005435
 1881 Fit       0.003237
 1882 Fit       0.003896
 1883 Fit      -0.001642
 1884 Fit      -0.003532
 1885 Fit      -0.005072
 1886 Fit      -0.003895
 1887 Fit      -0.002334
 1888 Fit      -0.000200
 1889 Fit      -0.001479
 1890 Fit       0.003325
 1891 Fit       0.001806
 1892 Fit       0.000944
 1893 Fit       0.003597
 1894 Fit       0.003141
 1895 Fit      -0.003952
 1896 Fit      -0.008364
 1897 Fit      -0.004464
 1898 Fit      -0.002485
 1899 Fit      -0.001593
 1900 Fit      -0.003037
 1901 Fit      -0.006651
 1902 Fit       0.000023
 1903 Fit      -0.001918
 1904 Fit      -0.004427
 1905 Fit      -0.002492
 1906 Fit      -0.004506
 1907 Fit      -0.002130
 1908 Fit      -0.003306
 1909 Fit      -0.000511
 1910 Fit      -0.000201
 1911 Fit      -0.001561
 1912 Fit      -0.003113
 1913 Fit      -0.005367
 1914 Fit       0.001267
 1915 Fit       0.003971
 1916 Fit       0.003380
 1917 Fit       0.000779
 1918 Fit       0.003090
 1919 Fit       0.002201
 1920 Fit       0.000602
 1921 Fit       0.000919
 1922 Fit       0.002075
 1923 Fit       0.001211
 1924 Fit       0.006363
 1925 Fit       0.006151
 1926 Fit       0.004535
 1927 Fit       0.004818
 1928 Fit       0.003069
 1929 Fit       0.003906
 1930 Fit       0.003828
 1931 Fit       0.002441
 1932 Fit       0.003131
 1933 Fit       0.003287
 1934 Fit       0.003319
 1935 Fit       0.001027
 1936 Fit       0.002057
 1937 Fit       0.001997
 1938 Fit       0.005772
 1939 Fit       0.004127
 1940 Fit       0.004239
 1941 Fit       0.003199
 1942 Fit       0.001926
 1943 Fit       0.001063
 1944 Fit       0.002758
 1945 Fit       0.002723
 1946 Fit       0.001483
 1947 Fit       0.001377
 1948 Fit       0.002862
 1949 Fit       0.003509
 1950 Fit       0.000885
 1951 Fit       0.001279
 1952 Fit       0.002128
 1953 Fit       0.001311
 1954 Fit      -0.001238
 1955 Fit      -0.000404
 1956 Fit      -0.001184
 1957 Fit      -0.001276
 1958 Fit       0.000534
 1959 Fit      -0.000825
 1960 Fit      -0.000362
 1961 Fit       0.000236
 1962 Fit       0.000460
 1963 Fit       0.000102
 1964 Fit       0.001260
 1965 Fit       0.001298
 1966 Fit       0.001326
 1967 Fit       0.000932
 1968 Fit       0.000729
 1969 Fit       0.000927
 1970 Fit       0.000452
 1971 Fit      -0.000207
 1972 Fit       0.000176
 1973 Fit      -0.000075
 1974 Fit      -0.000768
 1975 Fit      -0.000224
 1976 Fit      -0.000348
 1977 Fit       0.001113
 1978 Fit       0.000417
 1979 Fit       0.001808
 1980 Fit       0.000458
 1981 Fit       0.001628
 1982 Fit       0.000604
 1983 Fit       0.000486
 1984 Fit       0.001626
 1985 Fit       0.005751
 1986 Fit       0.003677
 1987 Fit       0.001374
 1988 Fit       0.004200
 1989 Fit       0.001860
 1990 Fit       0.010065
 1991 Fit       0.005372
 1992 Fit       0.006236
 1993 Fit       0.006569
 1994 Fit       0.007329
 1995 Fit       0.006319
 1996 Fit       0.005619
 1997 Fit       0.005462
 1998 Fit       0.006167
 1999 Fit       0.005523
 2000 Fit       0.009359
 2001 Fit       0.009157
 2002 Fit       0.008619
 2003 Fit       0.008640
 2004 Fit       0.008197
 2005 Fit       0.008052
 2006 Fit       0.007668
 2007 Fit       0.007035
 2008 Fit       0.006829
 2009 Fit       0.016270
 2010 Fit       0.013844
 2011 Fit       0.009933
 2012 Fit       0.009770
 2013 Fit       0.014374
 2014 Fit       0.010718
 2015 Fit       0.008723
 2016 Fit       0.008788
 2017 Fit       0.007234
 2018 Fit       0.006476
 2019 Fit       0.003246
 2020 Fit       0.007796
 2021 Fit       0.006392
 2022 Fit       0.005391
 2023 Fit       0.006499
 2024 Fit       0.006513
 2025 Fit       0.005834
 2026 Fit       0.005661
 2027 Fit      -0.004001
 2028 Fit      -0.014855
 2029 Fit      -0.004112
 2030 Fit      -0.011088
 2031 Fit      -0.015112
 2032 Fit      -0.018782
 2033 Fit      -0.023241
 2034 Fit      -0.000697
 2035 Fit      -0.003311
 2036 Fit      -0.008470
 2037 Fit      -0.015403
 2038 Fit      -0.012044
 2039 Fit      -0.000486
 2040 Fit      -0.021689
 2041 Fit      -0.022996
 2042 Fit      -0.021868
 2043 Fit      -0.017914
 2044 Fit      -0.010706
 2045 Fit      -0.000515
 2046 Fit      -0.024998
 2047 Fit      -0.023682
 2048 Fit      -0.020818
 2049 Fit      -0.015509
 2050 Fit      -0.007767
 2051 Fit       0.002269
 2052 Fit      -0.021781
 2053 Fit      -0.021395
 2054 Fit      -0.018919
 2055 Fit      -0.014317
 2056 Fit      -0.007638
 2057 Fit       0.000999
 2058 Fit      -0.017483
 2059 Fit      -0.015798
 2060 Fit      -0.011206
 2061 Fit       0.006353
 2062 Fit       0.013696
 2063 Fit       0.011181
 2064 Fit       0.001915
 2065 Fit       0.008436
 2066 Fit       0.016844
 2067 Fit       0.016226
 2068 Fit       0.011501
 2069 Fit       0.001879
 2070 Fit       0.006828
 2071 Fit       0.013859
 2072 Fit       0.016627
 2073 Fit       0.016187
 2074 Fit       0.012806
 2075 Fit       0.004356
 2076 Fit       0.008589
 2077 Fit       0.014409
 2078 Fit       0.014066
 2079 Fit       0.012516
 2080 Fit      -0.020002
 2081 Fit      -0.015785
 2082 Fit      -0.016170
 2083 Fit      -0.023839
 2084 Fit      -0.022423
 2085 Fit      -0.018154
 2086 Fit      -0.011593
 2087 Fit      -0.019511
 2088 Fit      -0.023134
 2089 Fit      -0.021925
 2090 Fit      -0.020989
 2091 Fit      -0.018735
 2092 Fit      -0.013395
 2093 Fit      -0.016617
 2094 Fit      -0.020973
 2095 Fit      -0.022155
 2096 Fit      -0.014507
 2097 Fit      -0.013649
 2098 Fit      -0.012487
 2099 Fit      -0.009888
 2100 Fit      -0.014274
 2101 Fit      -0.015811
 2102 Fit      -0.015426
 2103 Fit      -0.002144
 2104 Fit       0.000050
 2105 Fit       0.001819
 2106 Fit      -0.004423
 2107 Fit      -0.005292
 2108 Fit      -0.003937
 2109 Fit       0.003169
 2110 Fit       0.004209
 2111 Fit       0.005255
 2112 Fit       0.006973
 2113 Fit       0.000526
 2114 Fit       0.001770
 2115 Fit       0.013071
 2116 Fit       0.014165
 2117 Fit       0.015708
 2118 Fit       0.012205
 2119 Fit       0.012181
 2120 Fit       0.019418
 2121 Fit       0.021086
 2122 Fit       0.019481
 2123 Fit       0.023521
 2124 Fit      -0.002391
 2125 Fit      -0.000538
 2126 Fit      -0.000760
 2127 Fit       0.000374
 2128 Fit       0.000521
 2129 Fit      -0.000131
 2130 Fit      -0.001489
 2131 Fit      -0.001927
 2132 Fit       0.000907
 2133 Fit       0.000995
 2134 Fit       0.000698
 2135 Fit      -0.000258
 2136 Fit      -0.001074
 2137 Fit      -0.000809
 2138 Fit      -0.001108
 2139 Fit      -0.000030
 2140 Fit       0.001155
 2141 Fit      -0.000044
 2142 Fit       0.002166
 2143 Fit       0.000897
 2144 Fit       0.002213
 2145 Fit       0.000824
 2146 Fit      -0.000465
 2147 Fit       0.000302
 2148 Fit      -0.000857
 2149 Fit      -0.000712
 2150 Fit       0.003195
 2151 Fit      -0.000267
 2152 Fit      -0.000605
 2153 Fit       0.000059
 2154 Fit       0.001081
 2155 Fit       0.002022
 2156 Fit       0.000747
 2157 Fit      -0.003068
 2158 Fit      -0.002423
 2159 Fit      -0.001138
 2160 Fit      -0.001428
 2161 Fit      -0.000637
 2162 Fit      -0.000672
 2163 Fit      -0.000117
 2164 Fit       0.000600
 2165 Fit       0.001373
 2166 Fit      -0.000063
 2167 Fit       0.000497
 2168 Fit       0.001094
 2169 Fit       0.001614
 2170 Fit      -0.000014
 2171 Fit       0.000544
 2172 Fit       0.000335
 2173 Fit       0.000949
 2174 Fit       0.000901
 2175 Fit       0.000801
 2176 Fit       0.000393
 2177 Fit      -0.000443
 2178 Fit       0.000093
 2179 Fit      -0.000546
 2180 Fit      -0.001621
 2181 Fit      -0.001273
 2182 Fit      -0.001145
 2183 Fit      -0.001496
 2184 Fit      -0.001095
 2185 Fit      -0.001082
 2186 Fit      -0.000721
 2187 Fit      -0.001130
 2188 Fit      -0.000807
 2189 Fit      -0.001289
 2190 Fit      -0.002838
 2191 Fit      -0.002852
 2192 Fit      -0.002767
 2193 Fit      -0.003116
 2194 Fit      -0.003279
 2195 Fit      -0.002501
 2196 Fit      -0.002973
 2197 Fit      -0.003288
 2198 Fit      -0.003349
 2199 Fit      -0.002731
 2200 Fit      -0.002813
 2201 Fit      -0.002732
 2202 Fit      -0.002808
 2203 Fit      -0.001645
 2204 Fit      -0.001104
 2205 Fit      -0.001339
 2206 Fit      -0.002241
 2207 Fit      -0.000219
 2208 Fit       0.000255
 2209 Fit      -0.000055
 2210 Fit      -0.001093
 2211 Fit      -0.002563
 2212 Fit       0.001096
 2213 Fit       0.001060
 2214 Fit       0.000259
 2215 Fit      -0.001446
 2216 Fit      -0.002842
 2217 Fit      -0.001429
 2218 Fit      -0.001570
 2219 Fit      -0.002253
 2220 Fit      -0.000729
 2221 Fit      -0.000008
 2222 Fit      -0.000375
 2223 Fit      -0.001522
 2224 Fit      -0.001897
 2225 Fit      -0.000420
 2226 Fit       0.000523
 2227 Fit       0.000654
 2228 Fit      -0.000130
 2229 Fit      -0.002465
 2230 Fit      -0.000938
 2231 Fit       0.000557
 2232 Fit      -0.000988
 2233 Fit      -0.000766
 2234 Fit       0.000249
 2235 Fit      -0.000322
 2236 Fit      -0.001752
 2237 Fit      -0.002590
 2238 Fit      -0.002186
 2239 Fit      -0.000914
 2240 Fit       0.000420
 2241 Fit       0.000915
 2242 Fit       0.000279
 2243 Fit      -0.000925
 2244 Fit      -0.002317
 2245 Fit      -0.000659
 2246 Fit      -0.001884
 2247 Fit      -0.002590
 2248 Fit      -0.002498
 2249 Fit      -0.001599
 2250 Fit      -0.002601
 2251 Fit      -0.002771
 2252 Fit      -0.002601
 2253 Fit      -0.002408
 2254 Fit      -0.002541
 2255 Fit      -0.002679
 2256 Fit      -0.002161
 2257 Fit      -0.001287
 2258 Fit      -0.002101
 2259 Fit       0.001453
 2260 Fit       0.000460
 2261 Fit      -0.000956
 2262 Fit      -0.002426
 2263 Fit       0.001114
 2264 Fit       0.000995
 2265 Fit      -0.000011
 2266 Fit      -0.001543
 2267 Fit      -0.000855
 2268 Fit       0.000086
 2269 Fit       0.000016
 2270 Fit      -0.001383
 2271 Fit      -0.000988
 2272 Fit       0.000791
 2273 Fit       0.000810
 2274 Fit      -0.000025
 2275 Fit      -0.001120
 2276 Fit      -0.001420
 2277 Fit      -0.000078
 2278 Fit       0.000355
 2279 Fit      -0.000107
 2280 Fit      -0.001223
 2281 Fit      -0.002260
 2282 Fit      -0.001092
 2283 Fit      -0.000603
 2284 Fit      -0.000964
 2285 Fit      -0.001948
 2286 Fit      -0.002473
 2287 Fit      -0.002013
 2288 Fit      -0.000672
 2289 Fit       0.003698
 2290 Fit      -0.000307
 2291 Fit       0.001843
 2292 Fit       0.002376
 2293 Fit      -0.001469
 2294 Fit       0.000540
 2295 Fit       0.000325
 -----------------------------------------------------------------
 Leave Link  602 at Wed Apr 26 14:46:53 2017, MaxMem=    33554432 cpu:         5.1
 (Enter /home/michal/g09/l9999.exe)

 Test job not archived.
 1\1\GINC-LINUX\SP\RHF\6-31G(d)\C27H46O3\MICHAL\26-Apr-2017\0\\#P HF/6-
 31G* SCF(Conver=6) NoSymm Test Pop=mk IOp(6/33=2) GFInput GFPrint\\MEP
  - Input generated by R.E.D.-III.x MOLECULE\\0,1\C,0,7.50856534,2.1507
 7227,-0.05267069\H,0,7.40442749,2.06952062,1.03627092\C,0,6.75675961,0
 .98369511,-0.71224733\H,0,7.14712391,0.03353454,-0.3346087\H,0,6.97914
 803,1.0095907,-1.79063859\C,0,5.25758924,1.0615774,-0.48955825\C,0,4.5
 7548069,2.38662622,-0.8522484\C,0,5.41022869,3.54843635,-0.22993385\H,
 0,5.26094721,3.5325552,0.8582808\H,0,5.01638434,4.50747766,-0.5834483\
 C,0,6.91917729,3.48427284,-0.51234541\H,0,7.11571235,3.61219922,-1.587
 12928\H,0,7.43187092,4.30622041,0.\C,0,4.59841718,0.,0.\H,0,5.15473147
 ,-0.90543036,0.23539877\C,0,3.12047308,-0.04340617,0.26145234\H,0,2.70
 869778,-1.0092601,-0.05764263\C,0,2.36125199,1.10114236,-0.43401156\H,
 0,2.34449943,0.82635191,-1.4980605\C,0,3.12247662,2.44191657,-0.261294
 74\H,0,3.24066314,2.57918552,0.82358653\C,0,2.29745756,3.64375574,-0.7
 7973231\H,0,2.28486349,3.64373997,-1.874436\H,0,2.78944166,4.57802087,
 -0.48540813\C,0,0.83856507,3.68055798,-0.28050169\H,0,0.82460307,3.838
 60607,0.80733321\H,0,0.34430773,4.54868537,-0.72769749\C,0,0.09247134,
 2.3674977,-0.59606646\C,0,0.91539026,1.22922401,0.06952825\H,0,0.98227
 937,1.504188,1.13119439\C,0,0.,0.,0.\H,0,0.25016063,-0.74100081,0.7642
 9887\H,0,0.08671497,-0.49901197,-0.97365836\C,0,-1.42095922,0.59581904
 ,0.19642876\H,0,-2.10830854,0.23523855,-0.57832103\H,0,-1.84589116,0.2
 8502045,1.15522163\C,0,-1.28630409,2.1560809,0.12319644\H,0,-1.1541741
 9,2.53316473,1.14974605\C,0,-0.06638276,2.17563018,-2.12190062\H,0,0.8
 9486962,2.10308891,-2.63739297\H,0,-0.62970597,1.26895461,-2.36248351\
 H,0,-0.60499442,3.01973906,-2.5649875\C,0,-2.55819808,2.83920438,-0.44
 327496\H,0,-2.74516723,2.42161978,-1.4445012\C,0,-2.41426944,4.3656135
 3,-0.58192703\H,0,-2.10645303,4.8163163,0.3698479\H,0,-3.36116005,4.82
 895746,-0.87526037\H,0,-1.67654431,4.6457056,-1.33738597\C,0,4.5687058
 1,2.52094968,-2.39994556\H,0,4.27725369,3.52862889,-2.71052792\H,0,5.5
 553578,2.32636512,-2.8270335\H,0,3.87512226,1.80795014,-2.85631881\O,0
 ,2.83874362,0.07393641,1.68347755\O,0,3.33324434,-1.13113482,2.3321699
 5\H,0,4.10542312,-0.7812411,2.8068069\O,0,8.91840103,2.06646607,-0.275
 58666\H,0,9.08859201,2.15787795,-1.22365763\C,0,-3.79196633,2.49824026
 ,0.43198062\H,0,-3.75832788,1.43998362,0.70772732\H,0,-3.7195366,3.060
 57474,1.37602087\C,0,-5.15113024,2.78404584,-0.22776676\H,0,-5.1920467
 6,3.82737043,-0.56324923\H,0,-5.24242778,2.17530704,-1.1376995\C,0,-6.
 36600191,2.54565934,0.68861481\H,0,-7.2740856,2.86514178,0.1558551\H,0
 ,-6.27873122,3.20923705,1.56116194\C,0,-6.58979125,1.10438808,1.194297
 7\H,0,-5.69307623,0.78844867,1.74620352\C,0,-7.77072921,1.06623123,2.1
 7757692\H,0,-8.70238122,1.36812871,1.68175942\H,0,-7.9208945,0.0582510
 6,2.58086595\H,0,-7.60893365,1.74508288,3.02282062\C,0,-6.81277747,0.1
 0769343,0.04587456\H,0,-7.68808477,0.39275443,-0.55242783\H,0,-6.99029
 143,-0.90208866,0.43308489\H,0,-5.95184952,0.05447943,-0.62837723\\Ver
 sion=EM64L-G09RevD.01\HF=-1273.683092\RMSD=5.522e-07\Dipole=0.1742428,
 0.5227397,-0.8418786\Quadrupole=-6.3194738,2.7377149,3.5817589,2.07550
 8,-7.5216321,-1.8236656\PG=C01 [X(C27H46O3)]\\@


 I KNOW YOU BELIEVE YOU UNDERSTAND WHAT YOU THINK I SAID,
 BUT I AM NOT SURE YOU REALIZE THAT WHAT YOU HEARD IS NOT WHAT I MEANT.
 Job cpu time:       0 days  0 hours 11 minutes 56.8 seconds.
 File lengths (MBytes):  RWF=    159 Int=      0 D2E=      0 Chk=     11 Scr=      1
 Normal termination of Gaussian 09 at Wed Apr 26 14:46:53 2017.
