 Entering Gaussian System, Link 0=/home/michal/g09/g09
 Input=JOB2-gau_m1-20-3.com
 Output=JOB2-gau_m1-20-3.log
 Initial command:
 /home/michal/g09/l1.exe "/home/michal/gauss_scratch/Gau-14829.inp" -scrdir="/home/michal/gauss_scratch/"
 Entering Link 1 = /home/michal/g09/l1.exe PID=     14830.
  
 Copyright (c) 1988,1990,1992,1993,1995,1998,2003,2009,2013,
            Gaussian, Inc.  All Rights Reserved.
  
 This is part of the Gaussian(R) 09 program.  It is based on
 the Gaussian(R) 03 system (copyright 2003, Gaussian, Inc.),
 the Gaussian(R) 98 system (copyright 1998, Gaussian, Inc.),
 the Gaussian(R) 94 system (copyright 1995, Gaussian, Inc.),
 the Gaussian 92(TM) system (copyright 1992, Gaussian, Inc.),
 the Gaussian 90(TM) system (copyright 1990, Gaussian, Inc.),
 the Gaussian 88(TM) system (copyright 1988, Gaussian, Inc.),
 the Gaussian 86(TM) system (copyright 1986, Carnegie Mellon
 University), and the Gaussian 82(TM) system (copyright 1983,
 Carnegie Mellon University). Gaussian is a federally registered
 trademark of Gaussian, Inc.
  
 This software contains proprietary and confidential information,
 including trade secrets, belonging to Gaussian, Inc.
  
 This software is provided under written license and may be
 used, copied, transmitted, or stored only in accord with that
 written license.
  
 The following legend is applicable only to US Government
 contracts under FAR:
  
                    RESTRICTED RIGHTS LEGEND
  
 Use, reproduction and disclosure by the US Government is
 subject to restrictions as set forth in subparagraphs (a)
 and (c) of the Commercial Computer Software - Restricted
 Rights clause in FAR 52.227-19.
  
 Gaussian, Inc.
 340 Quinnipiac St., Bldg. 40, Wallingford CT 06492
  
  
 ---------------------------------------------------------------
 Warning -- This program may not be used in any manner that
 competes with the business of Gaussian, Inc. or will provide
 assistance to any competitor of Gaussian, Inc.  The licensee
 of this program is prohibited from giving any competitor of
 Gaussian, Inc. access to this program.  By using this program,
 the user acknowledges that Gaussian, Inc. is engaged in the
 business of creating and licensing software in the field of
 computational chemistry and represents and warrants to the
 licensee that it is not a competitor of Gaussian, Inc. and that
 it will not use this program in any manner prohibited above.
 ---------------------------------------------------------------
  

 Cite this work as:
 Gaussian 09, Revision D.01,
 M. J. Frisch, G. W. Trucks, H. B. Schlegel, G. E. Scuseria, 
 M. A. Robb, J. R. Cheeseman, G. Scalmani, V. Barone, B. Mennucci, 
 G. A. Petersson, H. Nakatsuji, M. Caricato, X. Li, H. P. Hratchian, 
 A. F. Izmaylov, J. Bloino, G. Zheng, J. L. Sonnenberg, M. Hada, 
 M. Ehara, K. Toyota, R. Fukuda, J. Hasegawa, M. Ishida, T. Nakajima, 
 Y. Honda, O. Kitao, H. Nakai, T. Vreven, J. A. Montgomery, Jr., 
 J. E. Peralta, F. Ogliaro, M. Bearpark, J. J. Heyd, E. Brothers, 
 K. N. Kudin, V. N. Staroverov, T. Keith, R. Kobayashi, J. Normand, 
 K. Raghavachari, A. Rendell, J. C. Burant, S. S. Iyengar, J. Tomasi, 
 M. Cossi, N. Rega, J. M. Millam, M. Klene, J. E. Knox, J. B. Cross, 
 V. Bakken, C. Adamo, J. Jaramillo, R. Gomperts, R. E. Stratmann, 
 O. Yazyev, A. J. Austin, R. Cammi, C. Pomelli, J. W. Ochterski, 
 R. L. Martin, K. Morokuma, V. G. Zakrzewski, G. A. Voth, 
 P. Salvador, J. J. Dannenberg, S. Dapprich, A. D. Daniels, 
 O. Farkas, J. B. Foresman, J. V. Ortiz, J. Cioslowski, 
 and D. J. Fox, Gaussian, Inc., Wallingford CT, 2013.
 
 ******************************************
 Gaussian 09:  EM64L-G09RevD.01 24-Apr-2013
                26-Apr-2017 
 ******************************************
 %Mem=256MB
 %NProc=12
 Will use up to   12 processors via shared memory.
 ----------------------------------------------------------------------
 #P HF/6-31G* SCF(Conver=6) NoSymm Test Pop=mk IOp(6/33=2) GFInput GFPr
 int
 ----------------------------------------------------------------------
 1/38=1/1;
 2/12=2,15=1,17=6,18=5,40=1/2;
 3/5=1,6=6,7=1,11=9,16=1,24=110,25=1,30=1/1,2,3;
 4//1;
 5/5=2,6=6,38=5/2;
 6/7=2,8=2,9=2,10=2,15=8,20=1,28=1,33=2/1,2;
 99/5=1,9=1/99;
 Leave Link    1 at Wed Apr 26 14:42:31 2017, MaxMem=    33554432 cpu:         0.6
 (Enter /home/michal/g09/l101.exe)
 ----------------------------------------------
 MEP - Input generated by R.E.D.-III.x MOLECULE
 ----------------------------------------------
 Symbolic Z-matrix:
 Charge =  0 Multiplicity = 1
 C                    -0.96298   2.00505   1.68701 
 H                    -0.97925   1.02613   2.18167 
 C                     0.38903   2.6806    1.96617 
 H                     0.54227   2.76601   3.04646 
 H                     0.33691   3.70817   1.57307 
 C                     1.54936   1.93914   1.3281 
 C                     1.42723   1.62572  -0.16836 
 C                     0.01482   1.01389  -0.42255 
 H                     0.        0.        0. 
 H                    -0.14357   0.90324  -1.50073 
 C                    -1.15302   1.80777   0.18311 
 H                    -1.24093   2.79231  -0.29971 
 H                    -2.09776   1.28347   0. 
 C                     2.61284   1.59591   2.07125 
 H                     2.6239    1.85253   3.12895 
 C                     3.81803   0.86474   1.55419 
 H                     4.73304   1.2977    1.97792 
 C                     3.90258   0.87276   0.01696 
 H                     4.21014   1.89483  -0.24555 
 C                     2.51214   0.57904  -0.6054 
 H                     2.19343  -0.38415  -0.18058 
 C                     2.59538   0.38899  -2.13861 
 H                     2.75204   1.35616  -2.62702 
 H                     1.63488   0.01604  -2.51257 
 C                     3.70822  -0.57246  -2.60363 
 H                     3.48699  -1.59039  -2.25238 
 H                     3.69374  -0.61051  -3.69733 
 C                     5.09033  -0.15429  -2.05989 
 C                     4.95373  -0.11506  -0.51181 
 H                     4.60479  -1.11737  -0.22765 
 C                     6.39535   0.        0. 
 H                     6.49686  -0.36774   1.02482 
 H                     6.72996   1.04531  -0.00234 
 C                     7.20857  -0.84767  -1.01614 
 H                     8.07596  -0.28858  -1.38745 
 H                     7.6033   -1.75242  -0.54495 
 C                     6.2449   -1.20784  -2.19928 
 H                     5.79039  -2.18689  -1.97963 
 C                     5.53027   1.203    -2.65494 
 H                     4.85098   2.01674  -2.38792 
 H                     6.52904   1.49292  -2.31487 
 H                     5.56041   1.15579  -3.74853 
 C                     6.99128  -1.35567  -3.55096 
 H                     7.50982  -0.40597  -3.75375 
 C                     6.05211  -1.64676  -4.73501 
 H                     5.443    -2.53869  -4.5412 
 H                     6.61709  -1.82551  -5.65465 
 H                     5.37189  -0.81637  -4.93707 
 C                     1.56778   2.95769  -0.9554 
 H                     1.29291   2.82978  -2.00658 
 H                     0.92141   3.73842  -0.54745 
 H                     2.5939    3.33604  -0.91349 
 O                     3.79628  -0.5308    1.96309 
 O                     3.97279  -0.56983   3.40708 
 H                     3.08271  -0.83276   3.69442 
 O                    -2.04608   2.7182    2.28938 
 H                    -2.10881   3.59197   1.87857 
 C                     8.07839  -2.45443  -3.44423 
 H                     8.65029  -2.31058  -2.52073 
 H                     7.5824   -3.43226  -3.34447 
 C                     9.07995  -2.50961  -4.60931 
 H                     8.55662  -2.72167  -5.5481 
 H                     9.54408  -1.51926  -4.73085 
 C                     10.18257  -3.5565   -4.38907 
 H                     9.7252   -4.55417  -4.30228 
 H                     10.66353  -3.35905  -3.42035 
 C                     11.27766  -3.60522  -5.47414 
 H                     11.69019  -2.58931  -5.57532 
 C                     12.42348  -4.53395  -5.04159 
 H                     12.06645  -5.56496  -4.92192 
 H                     13.22851  -4.5463   -5.78522 
 H                     12.85479  -4.21831  -4.0847 
 C                     10.73168  -4.03086  -6.84689 
 H                     10.28312  -5.03149  -6.79282 
 H                     11.53395  -4.06764  -7.59271 
 H                     9.96741  -3.34177  -7.21984 
 
 NAtoms=     76 NQM=       76 NQMF=       0 NMMI=      0 NMMIF=      0
                NMic=       0 NMicF=      0.
                    Isotopes and Nuclear Properties:
 (Nuclear quadrupole moments (NQMom) in fm**2, nuclear magnetic moments (NMagM)
  in nuclear magnetons)

  Atom         1           2           3           4           5           6           7           8           9          10
 IAtWgt=          12           1          12           1           1          12          12          12           1           1
 AtmWgt=  12.0000000   1.0078250  12.0000000   1.0078250   1.0078250  12.0000000  12.0000000  12.0000000   1.0078250   1.0078250
 NucSpn=           0           1           0           1           1           0           0           0           1           1
 AtZEff=   0.0000000   0.0000000   0.0000000   0.0000000   0.0000000   0.0000000   0.0000000   0.0000000   0.0000000   0.0000000
 NQMom=    0.0000000   0.0000000   0.0000000   0.0000000   0.0000000   0.0000000   0.0000000   0.0000000   0.0000000   0.0000000
 NMagM=    0.0000000   2.7928460   0.0000000   2.7928460   2.7928460   0.0000000   0.0000000   0.0000000   2.7928460   2.7928460
 AtZNuc=   6.0000000   1.0000000   6.0000000   1.0000000   1.0000000   6.0000000   6.0000000   6.0000000   1.0000000   1.0000000

  Atom        11          12          13          14          15          16          17          18          19          20
 IAtWgt=          12           1           1          12           1          12           1          12           1          12
 AtmWgt=  12.0000000   1.0078250   1.0078250  12.0000000   1.0078250  12.0000000   1.0078250  12.0000000   1.0078250  12.0000000
 NucSpn=           0           1           1           0           1           0           1           0           1           0
 AtZEff=   0.0000000   0.0000000   0.0000000   0.0000000   0.0000000   0.0000000   0.0000000   0.0000000   0.0000000   0.0000000
 NQMom=    0.0000000   0.0000000   0.0000000   0.0000000   0.0000000   0.0000000   0.0000000   0.0000000   0.0000000   0.0000000
 NMagM=    0.0000000   2.7928460   2.7928460   0.0000000   2.7928460   0.0000000   2.7928460   0.0000000   2.7928460   0.0000000
 AtZNuc=   6.0000000   1.0000000   1.0000000   6.0000000   1.0000000   6.0000000   1.0000000   6.0000000   1.0000000   6.0000000

  Atom        21          22          23          24          25          26          27          28          29          30
 IAtWgt=           1          12           1           1          12           1           1          12          12           1
 AtmWgt=   1.0078250  12.0000000   1.0078250   1.0078250  12.0000000   1.0078250   1.0078250  12.0000000  12.0000000   1.0078250
 NucSpn=           1           0           1           1           0           1           1           0           0           1
 AtZEff=   0.0000000   0.0000000   0.0000000   0.0000000   0.0000000   0.0000000   0.0000000   0.0000000   0.0000000   0.0000000
 NQMom=    0.0000000   0.0000000   0.0000000   0.0000000   0.0000000   0.0000000   0.0000000   0.0000000   0.0000000   0.0000000
 NMagM=    2.7928460   0.0000000   2.7928460   2.7928460   0.0000000   2.7928460   2.7928460   0.0000000   0.0000000   2.7928460
 AtZNuc=   1.0000000   6.0000000   1.0000000   1.0000000   6.0000000   1.0000000   1.0000000   6.0000000   6.0000000   1.0000000

  Atom        31          32          33          34          35          36          37          38          39          40
 IAtWgt=          12           1           1          12           1           1          12           1          12           1
 AtmWgt=  12.0000000   1.0078250   1.0078250  12.0000000   1.0078250   1.0078250  12.0000000   1.0078250  12.0000000   1.0078250
 NucSpn=           0           1           1           0           1           1           0           1           0           1
 AtZEff=   0.0000000   0.0000000   0.0000000   0.0000000   0.0000000   0.0000000   0.0000000   0.0000000   0.0000000   0.0000000
 NQMom=    0.0000000   0.0000000   0.0000000   0.0000000   0.0000000   0.0000000   0.0000000   0.0000000   0.0000000   0.0000000
 NMagM=    0.0000000   2.7928460   2.7928460   0.0000000   2.7928460   2.7928460   0.0000000   2.7928460   0.0000000   2.7928460
 AtZNuc=   6.0000000   1.0000000   1.0000000   6.0000000   1.0000000   1.0000000   6.0000000   1.0000000   6.0000000   1.0000000

  Atom        41          42          43          44          45          46          47          48          49          50
 IAtWgt=           1           1          12           1          12           1           1           1          12           1
 AtmWgt=   1.0078250   1.0078250  12.0000000   1.0078250  12.0000000   1.0078250   1.0078250   1.0078250  12.0000000   1.0078250
 NucSpn=           1           1           0           1           0           1           1           1           0           1
 AtZEff=   0.0000000   0.0000000   0.0000000   0.0000000   0.0000000   0.0000000   0.0000000   0.0000000   0.0000000   0.0000000
 NQMom=    0.0000000   0.0000000   0.0000000   0.0000000   0.0000000   0.0000000   0.0000000   0.0000000   0.0000000   0.0000000
 NMagM=    2.7928460   2.7928460   0.0000000   2.7928460   0.0000000   2.7928460   2.7928460   2.7928460   0.0000000   2.7928460
 AtZNuc=   1.0000000   1.0000000   6.0000000   1.0000000   6.0000000   1.0000000   1.0000000   1.0000000   6.0000000   1.0000000

  Atom        51          52          53          54          55          56          57          58          59          60
 IAtWgt=           1           1          16          16           1          16           1          12           1           1
 AtmWgt=   1.0078250   1.0078250  15.9949146  15.9949146   1.0078250  15.9949146   1.0078250  12.0000000   1.0078250   1.0078250
 NucSpn=           1           1           0           0           1           0           1           0           1           1
 AtZEff=   0.0000000   0.0000000   0.0000000   0.0000000   0.0000000   0.0000000   0.0000000   0.0000000   0.0000000   0.0000000
 NQMom=    0.0000000   0.0000000   0.0000000   0.0000000   0.0000000   0.0000000   0.0000000   0.0000000   0.0000000   0.0000000
 NMagM=    2.7928460   2.7928460   0.0000000   0.0000000   2.7928460   0.0000000   2.7928460   0.0000000   2.7928460   2.7928460
 AtZNuc=   1.0000000   1.0000000   8.0000000   8.0000000   1.0000000   8.0000000   1.0000000   6.0000000   1.0000000   1.0000000

  Atom        61          62          63          64          65          66          67          68          69          70
 IAtWgt=          12           1           1          12           1           1          12           1          12           1
 AtmWgt=  12.0000000   1.0078250   1.0078250  12.0000000   1.0078250   1.0078250  12.0000000   1.0078250  12.0000000   1.0078250
 NucSpn=           0           1           1           0           1           1           0           1           0           1
 AtZEff=   0.0000000   0.0000000   0.0000000   0.0000000   0.0000000   0.0000000   0.0000000   0.0000000   0.0000000   0.0000000
 NQMom=    0.0000000   0.0000000   0.0000000   0.0000000   0.0000000   0.0000000   0.0000000   0.0000000   0.0000000   0.0000000
 NMagM=    0.0000000   2.7928460   2.7928460   0.0000000   2.7928460   2.7928460   0.0000000   2.7928460   0.0000000   2.7928460
 AtZNuc=   6.0000000   1.0000000   1.0000000   6.0000000   1.0000000   1.0000000   6.0000000   1.0000000   6.0000000   1.0000000

  Atom        71          72          73          74          75          76
 IAtWgt=           1           1          12           1           1           1
 AtmWgt=   1.0078250   1.0078250  12.0000000   1.0078250   1.0078250   1.0078250
 NucSpn=           1           1           0           1           1           1
 AtZEff=   0.0000000   0.0000000   0.0000000   0.0000000   0.0000000   0.0000000
 NQMom=    0.0000000   0.0000000   0.0000000   0.0000000   0.0000000   0.0000000
 NMagM=    2.7928460   2.7928460   0.0000000   2.7928460   2.7928460   2.7928460
 AtZNuc=   1.0000000   1.0000000   6.0000000   1.0000000   1.0000000   1.0000000
 Leave Link  101 at Wed Apr 26 14:42:31 2017, MaxMem=    33554432 cpu:         1.4
 (Enter /home/michal/g09/l202.exe)
 Symmetry turned off by external request.
 Stoichiometry    C27H46O3
 Framework group  C1[X(C27H46O3)]
 Deg. of freedom   222
 Full point group                 C1      NOp   1
                          Input orientation:                          
 ---------------------------------------------------------------------
 Center     Atomic      Atomic             Coordinates (Angstroms)
 Number     Number       Type             X           Y           Z
 ---------------------------------------------------------------------
      1          6           0       -0.962976    2.005054    1.687015
      2          1           0       -0.979248    1.026134    2.181669
      3          6           0        0.389026    2.680601    1.966168
      4          1           0        0.542268    2.766013    3.046456
      5          1           0        0.336915    3.708168    1.573068
      6          6           0        1.549360    1.939138    1.328099
      7          6           0        1.427227    1.625719   -0.168364
      8          6           0        0.014818    1.013890   -0.422547
      9          1           0        0.000000    0.000000    0.000000
     10          1           0       -0.143573    0.903236   -1.500727
     11          6           0       -1.153019    1.807772    0.183114
     12          1           0       -1.240933    2.792309   -0.299710
     13          1           0       -2.097756    1.283474    0.000000
     14          6           0        2.612835    1.595908    2.071250
     15          1           0        2.623904    1.852530    3.128951
     16          6           0        3.818028    0.864743    1.554188
     17          1           0        4.733042    1.297702    1.977921
     18          6           0        3.902580    0.872762    0.016956
     19          1           0        4.210138    1.894833   -0.245549
     20          6           0        2.512136    0.579042   -0.605405
     21          1           0        2.193426   -0.384150   -0.180577
     22          6           0        2.595384    0.388990   -2.138607
     23          1           0        2.752039    1.356158   -2.627020
     24          1           0        1.634882    0.016041   -2.512572
     25          6           0        3.708221   -0.572457   -2.603632
     26          1           0        3.486986   -1.590393   -2.252380
     27          1           0        3.693743   -0.610513   -3.697332
     28          6           0        5.090327   -0.154292   -2.059892
     29          6           0        4.953728   -0.115065   -0.511810
     30          1           0        4.604786   -1.117375   -0.227646
     31          6           0        6.395351    0.000000    0.000000
     32          1           0        6.496863   -0.367743    1.024819
     33          1           0        6.729961    1.045314   -0.002342
     34          6           0        7.208571   -0.847671   -1.016142
     35          1           0        8.075964   -0.288577   -1.387447
     36          1           0        7.603303   -1.752421   -0.544952
     37          6           0        6.244901   -1.207836   -2.199284
     38          1           0        5.790391   -2.186886   -1.979629
     39          6           0        5.530266    1.202996   -2.654936
     40          1           0        4.850983    2.016741   -2.387917
     41          1           0        6.529036    1.492921   -2.314869
     42          1           0        5.560410    1.155792   -3.748532
     43          6           0        6.991280   -1.355667   -3.550958
     44          1           0        7.509820   -0.405965   -3.753754
     45          6           0        6.052113   -1.646756   -4.735008
     46          1           0        5.443000   -2.538693   -4.541205
     47          1           0        6.617092   -1.825507   -5.654654
     48          1           0        5.371885   -0.816372   -4.937075
     49          6           0        1.567780    2.957689   -0.955400
     50          1           0        1.292910    2.829783   -2.006576
     51          1           0        0.921409    3.738416   -0.547455
     52          1           0        2.593900    3.336038   -0.913490
     53          8           0        3.796275   -0.530805    1.963092
     54          8           0        3.972785   -0.569829    3.407079
     55          1           0        3.082712   -0.832759    3.694417
     56          8           0       -2.046081    2.718204    2.289379
     57          1           0       -2.108810    3.591968    1.878570
     58          6           0        8.078391   -2.454429   -3.444232
     59          1           0        8.650287   -2.310579   -2.520728
     60          1           0        7.582405   -3.432259   -3.344465
     61          6           0        9.079955   -2.509609   -4.609305
     62          1           0        8.556623   -2.721674   -5.548095
     63          1           0        9.544084   -1.519260   -4.730849
     64          6           0       10.182569   -3.556500   -4.389070
     65          1           0        9.725199   -4.554167   -4.302283
     66          1           0       10.663529   -3.359047   -3.420349
     67          6           0       11.277663   -3.605224   -5.474135
     68          1           0       11.690194   -2.589312   -5.575318
     69          6           0       12.423476   -4.533949   -5.041585
     70          1           0       12.066448   -5.564965   -4.921924
     71          1           0       13.228514   -4.546295   -5.785223
     72          1           0       12.854785   -4.218310   -4.084696
     73          6           0       10.731679   -4.030861   -6.846891
     74          1           0       10.283124   -5.031488   -6.792824
     75          1           0       11.533947   -4.067642   -7.592709
     76          1           0        9.967411   -3.341775   -7.219840
 ---------------------------------------------------------------------
 Rotational constants (GHZ):      0.4275884      0.0502708      0.0469611
 Leave Link  202 at Wed Apr 26 14:42:31 2017, MaxMem=    33554432 cpu:         0.1
 (Enter /home/michal/g09/l301.exe)
 Standard basis: 6-31G(d) (6D, 7F)
 Ernie: Thresh=  0.10000D-02 Tol=  0.10000D-05 Strict=F.
 AO basis set in the form of general basis input (Overlap normalization):
      1 0
 S   6 1.00       0.000000000000
      0.3047524880D+04  0.1834737132D-02
      0.4573695180D+03  0.1403732281D-01
      0.1039486850D+03  0.6884262226D-01
      0.2921015530D+02  0.2321844432D+00
      0.9286662960D+01  0.4679413484D+00
      0.3163926960D+01  0.3623119853D+00
 SP   3 1.00       0.000000000000
      0.7868272350D+01 -0.1193324198D+00  0.6899906659D-01
      0.1881288540D+01 -0.1608541517D+00  0.3164239610D+00
      0.5442492580D+00  0.1143456438D+01  0.7443082909D+00
 SP   1 1.00       0.000000000000
      0.1687144782D+00  0.1000000000D+01  0.1000000000D+01
 D   1 1.00       0.000000000000
      0.8000000000D+00  0.1000000000D+01
 ****
      2 0
 S   3 1.00       0.000000000000
      0.1873113696D+02  0.3349460434D-01
      0.2825394365D+01  0.2347269535D+00
      0.6401216923D+00  0.8137573261D+00
 S   1 1.00       0.000000000000
      0.1612777588D+00  0.1000000000D+01
 ****
      3 0
 S   6 1.00       0.000000000000
      0.3047524880D+04  0.1834737132D-02
      0.4573695180D+03  0.1403732281D-01
      0.1039486850D+03  0.6884262226D-01
      0.2921015530D+02  0.2321844432D+00
      0.9286662960D+01  0.4679413484D+00
      0.3163926960D+01  0.3623119853D+00
 SP   3 1.00       0.000000000000
      0.7868272350D+01 -0.1193324198D+00  0.6899906659D-01
      0.1881288540D+01 -0.1608541517D+00  0.3164239610D+00
      0.5442492580D+00  0.1143456438D+01  0.7443082909D+00
 SP   1 1.00       0.000000000000
      0.1687144782D+00  0.1000000000D+01  0.1000000000D+01
 D   1 1.00       0.000000000000
      0.8000000000D+00  0.1000000000D+01
 ****
      4 0
 S   3 1.00       0.000000000000
      0.1873113696D+02  0.3349460434D-01
      0.2825394365D+01  0.2347269535D+00
      0.6401216923D+00  0.8137573261D+00
 S   1 1.00       0.000000000000
      0.1612777588D+00  0.1000000000D+01
 ****
      5 0
 S   3 1.00       0.000000000000
      0.1873113696D+02  0.3349460434D-01
      0.2825394365D+01  0.2347269535D+00
      0.6401216923D+00  0.8137573261D+00
 S   1 1.00       0.000000000000
      0.1612777588D+00  0.1000000000D+01
 ****
      6 0
 S   6 1.00       0.000000000000
      0.3047524880D+04  0.1834737132D-02
      0.4573695180D+03  0.1403732281D-01
      0.1039486850D+03  0.6884262226D-01
      0.2921015530D+02  0.2321844432D+00
      0.9286662960D+01  0.4679413484D+00
      0.3163926960D+01  0.3623119853D+00
 SP   3 1.00       0.000000000000
      0.7868272350D+01 -0.1193324198D+00  0.6899906659D-01
      0.1881288540D+01 -0.1608541517D+00  0.3164239610D+00
      0.5442492580D+00  0.1143456438D+01  0.7443082909D+00
 SP   1 1.00       0.000000000000
      0.1687144782D+00  0.1000000000D+01  0.1000000000D+01
 D   1 1.00       0.000000000000
      0.8000000000D+00  0.1000000000D+01
 ****
      7 0
 S   6 1.00       0.000000000000
      0.3047524880D+04  0.1834737132D-02
      0.4573695180D+03  0.1403732281D-01
      0.1039486850D+03  0.6884262226D-01
      0.2921015530D+02  0.2321844432D+00
      0.9286662960D+01  0.4679413484D+00
      0.3163926960D+01  0.3623119853D+00
 SP   3 1.00       0.000000000000
      0.7868272350D+01 -0.1193324198D+00  0.6899906659D-01
      0.1881288540D+01 -0.1608541517D+00  0.3164239610D+00
      0.5442492580D+00  0.1143456438D+01  0.7443082909D+00
 SP   1 1.00       0.000000000000
      0.1687144782D+00  0.1000000000D+01  0.1000000000D+01
 D   1 1.00       0.000000000000
      0.8000000000D+00  0.1000000000D+01
 ****
      8 0
 S   6 1.00       0.000000000000
      0.3047524880D+04  0.1834737132D-02
      0.4573695180D+03  0.1403732281D-01
      0.1039486850D+03  0.6884262226D-01
      0.2921015530D+02  0.2321844432D+00
      0.9286662960D+01  0.4679413484D+00
      0.3163926960D+01  0.3623119853D+00
 SP   3 1.00       0.000000000000
      0.7868272350D+01 -0.1193324198D+00  0.6899906659D-01
      0.1881288540D+01 -0.1608541517D+00  0.3164239610D+00
      0.5442492580D+00  0.1143456438D+01  0.7443082909D+00
 SP   1 1.00       0.000000000000
      0.1687144782D+00  0.1000000000D+01  0.1000000000D+01
 D   1 1.00       0.000000000000
      0.8000000000D+00  0.1000000000D+01
 ****
      9 0
 S   3 1.00       0.000000000000
      0.1873113696D+02  0.3349460434D-01
      0.2825394365D+01  0.2347269535D+00
      0.6401216923D+00  0.8137573261D+00
 S   1 1.00       0.000000000000
      0.1612777588D+00  0.1000000000D+01
 ****
     10 0
 S   3 1.00       0.000000000000
      0.1873113696D+02  0.3349460434D-01
      0.2825394365D+01  0.2347269535D+00
      0.6401216923D+00  0.8137573261D+00
 S   1 1.00       0.000000000000
      0.1612777588D+00  0.1000000000D+01
 ****
     11 0
 S   6 1.00       0.000000000000
      0.3047524880D+04  0.1834737132D-02
      0.4573695180D+03  0.1403732281D-01
      0.1039486850D+03  0.6884262226D-01
      0.2921015530D+02  0.2321844432D+00
      0.9286662960D+01  0.4679413484D+00
      0.3163926960D+01  0.3623119853D+00
 SP   3 1.00       0.000000000000
      0.7868272350D+01 -0.1193324198D+00  0.6899906659D-01
      0.1881288540D+01 -0.1608541517D+00  0.3164239610D+00
      0.5442492580D+00  0.1143456438D+01  0.7443082909D+00
 SP   1 1.00       0.000000000000
      0.1687144782D+00  0.1000000000D+01  0.1000000000D+01
 D   1 1.00       0.000000000000
      0.8000000000D+00  0.1000000000D+01
 ****
     12 0
 S   3 1.00       0.000000000000
      0.1873113696D+02  0.3349460434D-01
      0.2825394365D+01  0.2347269535D+00
      0.6401216923D+00  0.8137573261D+00
 S   1 1.00       0.000000000000
      0.1612777588D+00  0.1000000000D+01
 ****
     13 0
 S   3 1.00       0.000000000000
      0.1873113696D+02  0.3349460434D-01
      0.2825394365D+01  0.2347269535D+00
      0.6401216923D+00  0.8137573261D+00
 S   1 1.00       0.000000000000
      0.1612777588D+00  0.1000000000D+01
 ****
     14 0
 S   6 1.00       0.000000000000
      0.3047524880D+04  0.1834737132D-02
      0.4573695180D+03  0.1403732281D-01
      0.1039486850D+03  0.6884262226D-01
      0.2921015530D+02  0.2321844432D+00
      0.9286662960D+01  0.4679413484D+00
      0.3163926960D+01  0.3623119853D+00
 SP   3 1.00       0.000000000000
      0.7868272350D+01 -0.1193324198D+00  0.6899906659D-01
      0.1881288540D+01 -0.1608541517D+00  0.3164239610D+00
      0.5442492580D+00  0.1143456438D+01  0.7443082909D+00
 SP   1 1.00       0.000000000000
      0.1687144782D+00  0.1000000000D+01  0.1000000000D+01
 D   1 1.00       0.000000000000
      0.8000000000D+00  0.1000000000D+01
 ****
     15 0
 S   3 1.00       0.000000000000
      0.1873113696D+02  0.3349460434D-01
      0.2825394365D+01  0.2347269535D+00
      0.6401216923D+00  0.8137573261D+00
 S   1 1.00       0.000000000000
      0.1612777588D+00  0.1000000000D+01
 ****
     16 0
 S   6 1.00       0.000000000000
      0.3047524880D+04  0.1834737132D-02
      0.4573695180D+03  0.1403732281D-01
      0.1039486850D+03  0.6884262226D-01
      0.2921015530D+02  0.2321844432D+00
      0.9286662960D+01  0.4679413484D+00
      0.3163926960D+01  0.3623119853D+00
 SP   3 1.00       0.000000000000
      0.7868272350D+01 -0.1193324198D+00  0.6899906659D-01
      0.1881288540D+01 -0.1608541517D+00  0.3164239610D+00
      0.5442492580D+00  0.1143456438D+01  0.7443082909D+00
 SP   1 1.00       0.000000000000
      0.1687144782D+00  0.1000000000D+01  0.1000000000D+01
 D   1 1.00       0.000000000000
      0.8000000000D+00  0.1000000000D+01
 ****
     17 0
 S   3 1.00       0.000000000000
      0.1873113696D+02  0.3349460434D-01
      0.2825394365D+01  0.2347269535D+00
      0.6401216923D+00  0.8137573261D+00
 S   1 1.00       0.000000000000
      0.1612777588D+00  0.1000000000D+01
 ****
     18 0
 S   6 1.00       0.000000000000
      0.3047524880D+04  0.1834737132D-02
      0.4573695180D+03  0.1403732281D-01
      0.1039486850D+03  0.6884262226D-01
      0.2921015530D+02  0.2321844432D+00
      0.9286662960D+01  0.4679413484D+00
      0.3163926960D+01  0.3623119853D+00
 SP   3 1.00       0.000000000000
      0.7868272350D+01 -0.1193324198D+00  0.6899906659D-01
      0.1881288540D+01 -0.1608541517D+00  0.3164239610D+00
      0.5442492580D+00  0.1143456438D+01  0.7443082909D+00
 SP   1 1.00       0.000000000000
      0.1687144782D+00  0.1000000000D+01  0.1000000000D+01
 D   1 1.00       0.000000000000
      0.8000000000D+00  0.1000000000D+01
 ****
     19 0
 S   3 1.00       0.000000000000
      0.1873113696D+02  0.3349460434D-01
      0.2825394365D+01  0.2347269535D+00
      0.6401216923D+00  0.8137573261D+00
 S   1 1.00       0.000000000000
      0.1612777588D+00  0.1000000000D+01
 ****
     20 0
 S   6 1.00       0.000000000000
      0.3047524880D+04  0.1834737132D-02
      0.4573695180D+03  0.1403732281D-01
      0.1039486850D+03  0.6884262226D-01
      0.2921015530D+02  0.2321844432D+00
      0.9286662960D+01  0.4679413484D+00
      0.3163926960D+01  0.3623119853D+00
 SP   3 1.00       0.000000000000
      0.7868272350D+01 -0.1193324198D+00  0.6899906659D-01
      0.1881288540D+01 -0.1608541517D+00  0.3164239610D+00
      0.5442492580D+00  0.1143456438D+01  0.7443082909D+00
 SP   1 1.00       0.000000000000
      0.1687144782D+00  0.1000000000D+01  0.1000000000D+01
 D   1 1.00       0.000000000000
      0.8000000000D+00  0.1000000000D+01
 ****
     21 0
 S   3 1.00       0.000000000000
      0.1873113696D+02  0.3349460434D-01
      0.2825394365D+01  0.2347269535D+00
      0.6401216923D+00  0.8137573261D+00
 S   1 1.00       0.000000000000
      0.1612777588D+00  0.1000000000D+01
 ****
     22 0
 S   6 1.00       0.000000000000
      0.3047524880D+04  0.1834737132D-02
      0.4573695180D+03  0.1403732281D-01
      0.1039486850D+03  0.6884262226D-01
      0.2921015530D+02  0.2321844432D+00
      0.9286662960D+01  0.4679413484D+00
      0.3163926960D+01  0.3623119853D+00
 SP   3 1.00       0.000000000000
      0.7868272350D+01 -0.1193324198D+00  0.6899906659D-01
      0.1881288540D+01 -0.1608541517D+00  0.3164239610D+00
      0.5442492580D+00  0.1143456438D+01  0.7443082909D+00
 SP   1 1.00       0.000000000000
      0.1687144782D+00  0.1000000000D+01  0.1000000000D+01
 D   1 1.00       0.000000000000
      0.8000000000D+00  0.1000000000D+01
 ****
     23 0
 S   3 1.00       0.000000000000
      0.1873113696D+02  0.3349460434D-01
      0.2825394365D+01  0.2347269535D+00
      0.6401216923D+00  0.8137573261D+00
 S   1 1.00       0.000000000000
      0.1612777588D+00  0.1000000000D+01
 ****
     24 0
 S   3 1.00       0.000000000000
      0.1873113696D+02  0.3349460434D-01
      0.2825394365D+01  0.2347269535D+00
      0.6401216923D+00  0.8137573261D+00
 S   1 1.00       0.000000000000
      0.1612777588D+00  0.1000000000D+01
 ****
     25 0
 S   6 1.00       0.000000000000
      0.3047524880D+04  0.1834737132D-02
      0.4573695180D+03  0.1403732281D-01
      0.1039486850D+03  0.6884262226D-01
      0.2921015530D+02  0.2321844432D+00
      0.9286662960D+01  0.4679413484D+00
      0.3163926960D+01  0.3623119853D+00
 SP   3 1.00       0.000000000000
      0.7868272350D+01 -0.1193324198D+00  0.6899906659D-01
      0.1881288540D+01 -0.1608541517D+00  0.3164239610D+00
      0.5442492580D+00  0.1143456438D+01  0.7443082909D+00
 SP   1 1.00       0.000000000000
      0.1687144782D+00  0.1000000000D+01  0.1000000000D+01
 D   1 1.00       0.000000000000
      0.8000000000D+00  0.1000000000D+01
 ****
     26 0
 S   3 1.00       0.000000000000
      0.1873113696D+02  0.3349460434D-01
      0.2825394365D+01  0.2347269535D+00
      0.6401216923D+00  0.8137573261D+00
 S   1 1.00       0.000000000000
      0.1612777588D+00  0.1000000000D+01
 ****
     27 0
 S   3 1.00       0.000000000000
      0.1873113696D+02  0.3349460434D-01
      0.2825394365D+01  0.2347269535D+00
      0.6401216923D+00  0.8137573261D+00
 S   1 1.00       0.000000000000
      0.1612777588D+00  0.1000000000D+01
 ****
     28 0
 S   6 1.00       0.000000000000
      0.3047524880D+04  0.1834737132D-02
      0.4573695180D+03  0.1403732281D-01
      0.1039486850D+03  0.6884262226D-01
      0.2921015530D+02  0.2321844432D+00
      0.9286662960D+01  0.4679413484D+00
      0.3163926960D+01  0.3623119853D+00
 SP   3 1.00       0.000000000000
      0.7868272350D+01 -0.1193324198D+00  0.6899906659D-01
      0.1881288540D+01 -0.1608541517D+00  0.3164239610D+00
      0.5442492580D+00  0.1143456438D+01  0.7443082909D+00
 SP   1 1.00       0.000000000000
      0.1687144782D+00  0.1000000000D+01  0.1000000000D+01
 D   1 1.00       0.000000000000
      0.8000000000D+00  0.1000000000D+01
 ****
     29 0
 S   6 1.00       0.000000000000
      0.3047524880D+04  0.1834737132D-02
      0.4573695180D+03  0.1403732281D-01
      0.1039486850D+03  0.6884262226D-01
      0.2921015530D+02  0.2321844432D+00
      0.9286662960D+01  0.4679413484D+00
      0.3163926960D+01  0.3623119853D+00
 SP   3 1.00       0.000000000000
      0.7868272350D+01 -0.1193324198D+00  0.6899906659D-01
      0.1881288540D+01 -0.1608541517D+00  0.3164239610D+00
      0.5442492580D+00  0.1143456438D+01  0.7443082909D+00
 SP   1 1.00       0.000000000000
      0.1687144782D+00  0.1000000000D+01  0.1000000000D+01
 D   1 1.00       0.000000000000
      0.8000000000D+00  0.1000000000D+01
 ****
     30 0
 S   3 1.00       0.000000000000
      0.1873113696D+02  0.3349460434D-01
      0.2825394365D+01  0.2347269535D+00
      0.6401216923D+00  0.8137573261D+00
 S   1 1.00       0.000000000000
      0.1612777588D+00  0.1000000000D+01
 ****
     31 0
 S   6 1.00       0.000000000000
      0.3047524880D+04  0.1834737132D-02
      0.4573695180D+03  0.1403732281D-01
      0.1039486850D+03  0.6884262226D-01
      0.2921015530D+02  0.2321844432D+00
      0.9286662960D+01  0.4679413484D+00
      0.3163926960D+01  0.3623119853D+00
 SP   3 1.00       0.000000000000
      0.7868272350D+01 -0.1193324198D+00  0.6899906659D-01
      0.1881288540D+01 -0.1608541517D+00  0.3164239610D+00
      0.5442492580D+00  0.1143456438D+01  0.7443082909D+00
 SP   1 1.00       0.000000000000
      0.1687144782D+00  0.1000000000D+01  0.1000000000D+01
 D   1 1.00       0.000000000000
      0.8000000000D+00  0.1000000000D+01
 ****
     32 0
 S   3 1.00       0.000000000000
      0.1873113696D+02  0.3349460434D-01
      0.2825394365D+01  0.2347269535D+00
      0.6401216923D+00  0.8137573261D+00
 S   1 1.00       0.000000000000
      0.1612777588D+00  0.1000000000D+01
 ****
     33 0
 S   3 1.00       0.000000000000
      0.1873113696D+02  0.3349460434D-01
      0.2825394365D+01  0.2347269535D+00
      0.6401216923D+00  0.8137573261D+00
 S   1 1.00       0.000000000000
      0.1612777588D+00  0.1000000000D+01
 ****
     34 0
 S   6 1.00       0.000000000000
      0.3047524880D+04  0.1834737132D-02
      0.4573695180D+03  0.1403732281D-01
      0.1039486850D+03  0.6884262226D-01
      0.2921015530D+02  0.2321844432D+00
      0.9286662960D+01  0.4679413484D+00
      0.3163926960D+01  0.3623119853D+00
 SP   3 1.00       0.000000000000
      0.7868272350D+01 -0.1193324198D+00  0.6899906659D-01
      0.1881288540D+01 -0.1608541517D+00  0.3164239610D+00
      0.5442492580D+00  0.1143456438D+01  0.7443082909D+00
 SP   1 1.00       0.000000000000
      0.1687144782D+00  0.1000000000D+01  0.1000000000D+01
 D   1 1.00       0.000000000000
      0.8000000000D+00  0.1000000000D+01
 ****
     35 0
 S   3 1.00       0.000000000000
      0.1873113696D+02  0.3349460434D-01
      0.2825394365D+01  0.2347269535D+00
      0.6401216923D+00  0.8137573261D+00
 S   1 1.00       0.000000000000
      0.1612777588D+00  0.1000000000D+01
 ****
     36 0
 S   3 1.00       0.000000000000
      0.1873113696D+02  0.3349460434D-01
      0.2825394365D+01  0.2347269535D+00
      0.6401216923D+00  0.8137573261D+00
 S   1 1.00       0.000000000000
      0.1612777588D+00  0.1000000000D+01
 ****
     37 0
 S   6 1.00       0.000000000000
      0.3047524880D+04  0.1834737132D-02
      0.4573695180D+03  0.1403732281D-01
      0.1039486850D+03  0.6884262226D-01
      0.2921015530D+02  0.2321844432D+00
      0.9286662960D+01  0.4679413484D+00
      0.3163926960D+01  0.3623119853D+00
 SP   3 1.00       0.000000000000
      0.7868272350D+01 -0.1193324198D+00  0.6899906659D-01
      0.1881288540D+01 -0.1608541517D+00  0.3164239610D+00
      0.5442492580D+00  0.1143456438D+01  0.7443082909D+00
 SP   1 1.00       0.000000000000
      0.1687144782D+00  0.1000000000D+01  0.1000000000D+01
 D   1 1.00       0.000000000000
      0.8000000000D+00  0.1000000000D+01
 ****
     38 0
 S   3 1.00       0.000000000000
      0.1873113696D+02  0.3349460434D-01
      0.2825394365D+01  0.2347269535D+00
      0.6401216923D+00  0.8137573261D+00
 S   1 1.00       0.000000000000
      0.1612777588D+00  0.1000000000D+01
 ****
     39 0
 S   6 1.00       0.000000000000
      0.3047524880D+04  0.1834737132D-02
      0.4573695180D+03  0.1403732281D-01
      0.1039486850D+03  0.6884262226D-01
      0.2921015530D+02  0.2321844432D+00
      0.9286662960D+01  0.4679413484D+00
      0.3163926960D+01  0.3623119853D+00
 SP   3 1.00       0.000000000000
      0.7868272350D+01 -0.1193324198D+00  0.6899906659D-01
      0.1881288540D+01 -0.1608541517D+00  0.3164239610D+00
      0.5442492580D+00  0.1143456438D+01  0.7443082909D+00
 SP   1 1.00       0.000000000000
      0.1687144782D+00  0.1000000000D+01  0.1000000000D+01
 D   1 1.00       0.000000000000
      0.8000000000D+00  0.1000000000D+01
 ****
     40 0
 S   3 1.00       0.000000000000
      0.1873113696D+02  0.3349460434D-01
      0.2825394365D+01  0.2347269535D+00
      0.6401216923D+00  0.8137573261D+00
 S   1 1.00       0.000000000000
      0.1612777588D+00  0.1000000000D+01
 ****
     41 0
 S   3 1.00       0.000000000000
      0.1873113696D+02  0.3349460434D-01
      0.2825394365D+01  0.2347269535D+00
      0.6401216923D+00  0.8137573261D+00
 S   1 1.00       0.000000000000
      0.1612777588D+00  0.1000000000D+01
 ****
     42 0
 S   3 1.00       0.000000000000
      0.1873113696D+02  0.3349460434D-01
      0.2825394365D+01  0.2347269535D+00
      0.6401216923D+00  0.8137573261D+00
 S   1 1.00       0.000000000000
      0.1612777588D+00  0.1000000000D+01
 ****
     43 0
 S   6 1.00       0.000000000000
      0.3047524880D+04  0.1834737132D-02
      0.4573695180D+03  0.1403732281D-01
      0.1039486850D+03  0.6884262226D-01
      0.2921015530D+02  0.2321844432D+00
      0.9286662960D+01  0.4679413484D+00
      0.3163926960D+01  0.3623119853D+00
 SP   3 1.00       0.000000000000
      0.7868272350D+01 -0.1193324198D+00  0.6899906659D-01
      0.1881288540D+01 -0.1608541517D+00  0.3164239610D+00
      0.5442492580D+00  0.1143456438D+01  0.7443082909D+00
 SP   1 1.00       0.000000000000
      0.1687144782D+00  0.1000000000D+01  0.1000000000D+01
 D   1 1.00       0.000000000000
      0.8000000000D+00  0.1000000000D+01
 ****
     44 0
 S   3 1.00       0.000000000000
      0.1873113696D+02  0.3349460434D-01
      0.2825394365D+01  0.2347269535D+00
      0.6401216923D+00  0.8137573261D+00
 S   1 1.00       0.000000000000
      0.1612777588D+00  0.1000000000D+01
 ****
     45 0
 S   6 1.00       0.000000000000
      0.3047524880D+04  0.1834737132D-02
      0.4573695180D+03  0.1403732281D-01
      0.1039486850D+03  0.6884262226D-01
      0.2921015530D+02  0.2321844432D+00
      0.9286662960D+01  0.4679413484D+00
      0.3163926960D+01  0.3623119853D+00
 SP   3 1.00       0.000000000000
      0.7868272350D+01 -0.1193324198D+00  0.6899906659D-01
      0.1881288540D+01 -0.1608541517D+00  0.3164239610D+00
      0.5442492580D+00  0.1143456438D+01  0.7443082909D+00
 SP   1 1.00       0.000000000000
      0.1687144782D+00  0.1000000000D+01  0.1000000000D+01
 D   1 1.00       0.000000000000
      0.8000000000D+00  0.1000000000D+01
 ****
     46 0
 S   3 1.00       0.000000000000
      0.1873113696D+02  0.3349460434D-01
      0.2825394365D+01  0.2347269535D+00
      0.6401216923D+00  0.8137573261D+00
 S   1 1.00       0.000000000000
      0.1612777588D+00  0.1000000000D+01
 ****
     47 0
 S   3 1.00       0.000000000000
      0.1873113696D+02  0.3349460434D-01
      0.2825394365D+01  0.2347269535D+00
      0.6401216923D+00  0.8137573261D+00
 S   1 1.00       0.000000000000
      0.1612777588D+00  0.1000000000D+01
 ****
     48 0
 S   3 1.00       0.000000000000
      0.1873113696D+02  0.3349460434D-01
      0.2825394365D+01  0.2347269535D+00
      0.6401216923D+00  0.8137573261D+00
 S   1 1.00       0.000000000000
      0.1612777588D+00  0.1000000000D+01
 ****
     49 0
 S   6 1.00       0.000000000000
      0.3047524880D+04  0.1834737132D-02
      0.4573695180D+03  0.1403732281D-01
      0.1039486850D+03  0.6884262226D-01
      0.2921015530D+02  0.2321844432D+00
      0.9286662960D+01  0.4679413484D+00
      0.3163926960D+01  0.3623119853D+00
 SP   3 1.00       0.000000000000
      0.7868272350D+01 -0.1193324198D+00  0.6899906659D-01
      0.1881288540D+01 -0.1608541517D+00  0.3164239610D+00
      0.5442492580D+00  0.1143456438D+01  0.7443082909D+00
 SP   1 1.00       0.000000000000
      0.1687144782D+00  0.1000000000D+01  0.1000000000D+01
 D   1 1.00       0.000000000000
      0.8000000000D+00  0.1000000000D+01
 ****
     50 0
 S   3 1.00       0.000000000000
      0.1873113696D+02  0.3349460434D-01
      0.2825394365D+01  0.2347269535D+00
      0.6401216923D+00  0.8137573261D+00
 S   1 1.00       0.000000000000
      0.1612777588D+00  0.1000000000D+01
 ****
     51 0
 S   3 1.00       0.000000000000
      0.1873113696D+02  0.3349460434D-01
      0.2825394365D+01  0.2347269535D+00
      0.6401216923D+00  0.8137573261D+00
 S   1 1.00       0.000000000000
      0.1612777588D+00  0.1000000000D+01
 ****
     52 0
 S   3 1.00       0.000000000000
      0.1873113696D+02  0.3349460434D-01
      0.2825394365D+01  0.2347269535D+00
      0.6401216923D+00  0.8137573261D+00
 S   1 1.00       0.000000000000
      0.1612777588D+00  0.1000000000D+01
 ****
     53 0
 S   6 1.00       0.000000000000
      0.5484671660D+04  0.1831074430D-02
      0.8252349460D+03  0.1395017220D-01
      0.1880469580D+03  0.6844507810D-01
      0.5296450000D+02  0.2327143360D+00
      0.1689757040D+02  0.4701928980D+00
      0.5799635340D+01  0.3585208530D+00
 SP   3 1.00       0.000000000000
      0.1553961625D+02 -0.1107775495D+00  0.7087426823D-01
      0.3599933586D+01 -0.1480262627D+00  0.3397528391D+00
      0.1013761750D+01  0.1130767015D+01  0.7271585773D+00
 SP   1 1.00       0.000000000000
      0.2700058226D+00  0.1000000000D+01  0.1000000000D+01
 D   1 1.00       0.000000000000
      0.8000000000D+00  0.1000000000D+01
 ****
     54 0
 S   6 1.00       0.000000000000
      0.5484671660D+04  0.1831074430D-02
      0.8252349460D+03  0.1395017220D-01
      0.1880469580D+03  0.6844507810D-01
      0.5296450000D+02  0.2327143360D+00
      0.1689757040D+02  0.4701928980D+00
      0.5799635340D+01  0.3585208530D+00
 SP   3 1.00       0.000000000000
      0.1553961625D+02 -0.1107775495D+00  0.7087426823D-01
      0.3599933586D+01 -0.1480262627D+00  0.3397528391D+00
      0.1013761750D+01  0.1130767015D+01  0.7271585773D+00
 SP   1 1.00       0.000000000000
      0.2700058226D+00  0.1000000000D+01  0.1000000000D+01
 D   1 1.00       0.000000000000
      0.8000000000D+00  0.1000000000D+01
 ****
     55 0
 S   3 1.00       0.000000000000
      0.1873113696D+02  0.3349460434D-01
      0.2825394365D+01  0.2347269535D+00
      0.6401216923D+00  0.8137573261D+00
 S   1 1.00       0.000000000000
      0.1612777588D+00  0.1000000000D+01
 ****
     56 0
 S   6 1.00       0.000000000000
      0.5484671660D+04  0.1831074430D-02
      0.8252349460D+03  0.1395017220D-01
      0.1880469580D+03  0.6844507810D-01
      0.5296450000D+02  0.2327143360D+00
      0.1689757040D+02  0.4701928980D+00
      0.5799635340D+01  0.3585208530D+00
 SP   3 1.00       0.000000000000
      0.1553961625D+02 -0.1107775495D+00  0.7087426823D-01
      0.3599933586D+01 -0.1480262627D+00  0.3397528391D+00
      0.1013761750D+01  0.1130767015D+01  0.7271585773D+00
 SP   1 1.00       0.000000000000
      0.2700058226D+00  0.1000000000D+01  0.1000000000D+01
 D   1 1.00       0.000000000000
      0.8000000000D+00  0.1000000000D+01
 ****
     57 0
 S   3 1.00       0.000000000000
      0.1873113696D+02  0.3349460434D-01
      0.2825394365D+01  0.2347269535D+00
      0.6401216923D+00  0.8137573261D+00
 S   1 1.00       0.000000000000
      0.1612777588D+00  0.1000000000D+01
 ****
     58 0
 S   6 1.00       0.000000000000
      0.3047524880D+04  0.1834737132D-02
      0.4573695180D+03  0.1403732281D-01
      0.1039486850D+03  0.6884262226D-01
      0.2921015530D+02  0.2321844432D+00
      0.9286662960D+01  0.4679413484D+00
      0.3163926960D+01  0.3623119853D+00
 SP   3 1.00       0.000000000000
      0.7868272350D+01 -0.1193324198D+00  0.6899906659D-01
      0.1881288540D+01 -0.1608541517D+00  0.3164239610D+00
      0.5442492580D+00  0.1143456438D+01  0.7443082909D+00
 SP   1 1.00       0.000000000000
      0.1687144782D+00  0.1000000000D+01  0.1000000000D+01
 D   1 1.00       0.000000000000
      0.8000000000D+00  0.1000000000D+01
 ****
     59 0
 S   3 1.00       0.000000000000
      0.1873113696D+02  0.3349460434D-01
      0.2825394365D+01  0.2347269535D+00
      0.6401216923D+00  0.8137573261D+00
 S   1 1.00       0.000000000000
      0.1612777588D+00  0.1000000000D+01
 ****
     60 0
 S   3 1.00       0.000000000000
      0.1873113696D+02  0.3349460434D-01
      0.2825394365D+01  0.2347269535D+00
      0.6401216923D+00  0.8137573261D+00
 S   1 1.00       0.000000000000
      0.1612777588D+00  0.1000000000D+01
 ****
     61 0
 S   6 1.00       0.000000000000
      0.3047524880D+04  0.1834737132D-02
      0.4573695180D+03  0.1403732281D-01
      0.1039486850D+03  0.6884262226D-01
      0.2921015530D+02  0.2321844432D+00
      0.9286662960D+01  0.4679413484D+00
      0.3163926960D+01  0.3623119853D+00
 SP   3 1.00       0.000000000000
      0.7868272350D+01 -0.1193324198D+00  0.6899906659D-01
      0.1881288540D+01 -0.1608541517D+00  0.3164239610D+00
      0.5442492580D+00  0.1143456438D+01  0.7443082909D+00
 SP   1 1.00       0.000000000000
      0.1687144782D+00  0.1000000000D+01  0.1000000000D+01
 D   1 1.00       0.000000000000
      0.8000000000D+00  0.1000000000D+01
 ****
     62 0
 S   3 1.00       0.000000000000
      0.1873113696D+02  0.3349460434D-01
      0.2825394365D+01  0.2347269535D+00
      0.6401216923D+00  0.8137573261D+00
 S   1 1.00       0.000000000000
      0.1612777588D+00  0.1000000000D+01
 ****
     63 0
 S   3 1.00       0.000000000000
      0.1873113696D+02  0.3349460434D-01
      0.2825394365D+01  0.2347269535D+00
      0.6401216923D+00  0.8137573261D+00
 S   1 1.00       0.000000000000
      0.1612777588D+00  0.1000000000D+01
 ****
     64 0
 S   6 1.00       0.000000000000
      0.3047524880D+04  0.1834737132D-02
      0.4573695180D+03  0.1403732281D-01
      0.1039486850D+03  0.6884262226D-01
      0.2921015530D+02  0.2321844432D+00
      0.9286662960D+01  0.4679413484D+00
      0.3163926960D+01  0.3623119853D+00
 SP   3 1.00       0.000000000000
      0.7868272350D+01 -0.1193324198D+00  0.6899906659D-01
      0.1881288540D+01 -0.1608541517D+00  0.3164239610D+00
      0.5442492580D+00  0.1143456438D+01  0.7443082909D+00
 SP   1 1.00       0.000000000000
      0.1687144782D+00  0.1000000000D+01  0.1000000000D+01
 D   1 1.00       0.000000000000
      0.8000000000D+00  0.1000000000D+01
 ****
     65 0
 S   3 1.00       0.000000000000
      0.1873113696D+02  0.3349460434D-01
      0.2825394365D+01  0.2347269535D+00
      0.6401216923D+00  0.8137573261D+00
 S   1 1.00       0.000000000000
      0.1612777588D+00  0.1000000000D+01
 ****
     66 0
 S   3 1.00       0.000000000000
      0.1873113696D+02  0.3349460434D-01
      0.2825394365D+01  0.2347269535D+00
      0.6401216923D+00  0.8137573261D+00
 S   1 1.00       0.000000000000
      0.1612777588D+00  0.1000000000D+01
 ****
     67 0
 S   6 1.00       0.000000000000
      0.3047524880D+04  0.1834737132D-02
      0.4573695180D+03  0.1403732281D-01
      0.1039486850D+03  0.6884262226D-01
      0.2921015530D+02  0.2321844432D+00
      0.9286662960D+01  0.4679413484D+00
      0.3163926960D+01  0.3623119853D+00
 SP   3 1.00       0.000000000000
      0.7868272350D+01 -0.1193324198D+00  0.6899906659D-01
      0.1881288540D+01 -0.1608541517D+00  0.3164239610D+00
      0.5442492580D+00  0.1143456438D+01  0.7443082909D+00
 SP   1 1.00       0.000000000000
      0.1687144782D+00  0.1000000000D+01  0.1000000000D+01
 D   1 1.00       0.000000000000
      0.8000000000D+00  0.1000000000D+01
 ****
     68 0
 S   3 1.00       0.000000000000
      0.1873113696D+02  0.3349460434D-01
      0.2825394365D+01  0.2347269535D+00
      0.6401216923D+00  0.8137573261D+00
 S   1 1.00       0.000000000000
      0.1612777588D+00  0.1000000000D+01
 ****
     69 0
 S   6 1.00       0.000000000000
      0.3047524880D+04  0.1834737132D-02
      0.4573695180D+03  0.1403732281D-01
      0.1039486850D+03  0.6884262226D-01
      0.2921015530D+02  0.2321844432D+00
      0.9286662960D+01  0.4679413484D+00
      0.3163926960D+01  0.3623119853D+00
 SP   3 1.00       0.000000000000
      0.7868272350D+01 -0.1193324198D+00  0.6899906659D-01
      0.1881288540D+01 -0.1608541517D+00  0.3164239610D+00
      0.5442492580D+00  0.1143456438D+01  0.7443082909D+00
 SP   1 1.00       0.000000000000
      0.1687144782D+00  0.1000000000D+01  0.1000000000D+01
 D   1 1.00       0.000000000000
      0.8000000000D+00  0.1000000000D+01
 ****
     70 0
 S   3 1.00       0.000000000000
      0.1873113696D+02  0.3349460434D-01
      0.2825394365D+01  0.2347269535D+00
      0.6401216923D+00  0.8137573261D+00
 S   1 1.00       0.000000000000
      0.1612777588D+00  0.1000000000D+01
 ****
     71 0
 S   3 1.00       0.000000000000
      0.1873113696D+02  0.3349460434D-01
      0.2825394365D+01  0.2347269535D+00
      0.6401216923D+00  0.8137573261D+00
 S   1 1.00       0.000000000000
      0.1612777588D+00  0.1000000000D+01
 ****
     72 0
 S   3 1.00       0.000000000000
      0.1873113696D+02  0.3349460434D-01
      0.2825394365D+01  0.2347269535D+00
      0.6401216923D+00  0.8137573261D+00
 S   1 1.00       0.000000000000
      0.1612777588D+00  0.1000000000D+01
 ****
     73 0
 S   6 1.00       0.000000000000
      0.3047524880D+04  0.1834737132D-02
      0.4573695180D+03  0.1403732281D-01
      0.1039486850D+03  0.6884262226D-01
      0.2921015530D+02  0.2321844432D+00
      0.9286662960D+01  0.4679413484D+00
      0.3163926960D+01  0.3623119853D+00
 SP   3 1.00       0.000000000000
      0.7868272350D+01 -0.1193324198D+00  0.6899906659D-01
      0.1881288540D+01 -0.1608541517D+00  0.3164239610D+00
      0.5442492580D+00  0.1143456438D+01  0.7443082909D+00
 SP   1 1.00       0.000000000000
      0.1687144782D+00  0.1000000000D+01  0.1000000000D+01
 D   1 1.00       0.000000000000
      0.8000000000D+00  0.1000000000D+01
 ****
     74 0
 S   3 1.00       0.000000000000
      0.1873113696D+02  0.3349460434D-01
      0.2825394365D+01  0.2347269535D+00
      0.6401216923D+00  0.8137573261D+00
 S   1 1.00       0.000000000000
      0.1612777588D+00  0.1000000000D+01
 ****
     75 0
 S   3 1.00       0.000000000000
      0.1873113696D+02  0.3349460434D-01
      0.2825394365D+01  0.2347269535D+00
      0.6401216923D+00  0.8137573261D+00
 S   1 1.00       0.000000000000
      0.1612777588D+00  0.1000000000D+01
 ****
     76 0
 S   3 1.00       0.000000000000
      0.1873113696D+02  0.3349460434D-01
      0.2825394365D+01  0.2347269535D+00
      0.6401216923D+00  0.8137573261D+00
 S   1 1.00       0.000000000000
      0.1612777588D+00  0.1000000000D+01
 ****

 AO basis set (Overlap normalization):
 Atom C1       Shell     1 S   6     bf    1 -     1         -1.819760742466          3.789003735332          3.187996143097
      0.3047524880D+04  0.1834737132D-02
      0.4573695180D+03  0.1403732281D-01
      0.1039486850D+03  0.6884262226D-01
      0.2921015530D+02  0.2321844432D+00
      0.9286662960D+01  0.4679413484D+00
      0.3163926960D+01  0.3623119853D+00
 Atom C1       Shell     2 SP   3    bf    2 -     5         -1.819760742466          3.789003735332          3.187996143097
      0.7868272350D+01 -0.1193324198D+00  0.6899906659D-01
      0.1881288540D+01 -0.1608541517D+00  0.3164239610D+00
      0.5442492580D+00  0.1143456438D+01  0.7443082909D+00
 Atom C1       Shell     3 SP   1    bf    6 -     9         -1.819760742466          3.789003735332          3.187996143097
      0.1687144782D+00  0.1000000000D+01  0.1000000000D+01
 Atom C1       Shell     4 D   1     bf   10 -    15         -1.819760742466          3.789003735332          3.187996143097
      0.8000000000D+00  0.1000000000D+01
 Atom H2       Shell     5 S   3     bf   16 -    16         -1.850510309409          1.939112027773          4.122757054887
      0.1873113696D+02  0.3349460434D-01
      0.2825394365D+01  0.2347269535D+00
      0.6401216923D+00  0.8137573261D+00
 Atom H2       Shell     6 S   1     bf   17 -    17         -1.850510309409          1.939112027773          4.122757054887
      0.1612777588D+00  0.1000000000D+01
 Atom C3       Shell     7 S   6     bf   18 -    18          0.735151748195          5.065602309560          3.715519391394
      0.3047524880D+04  0.1834737132D-02
      0.4573695180D+03  0.1403732281D-01
      0.1039486850D+03  0.6884262226D-01
      0.2921015530D+02  0.2321844432D+00
      0.9286662960D+01  0.4679413484D+00
      0.3163926960D+01  0.3623119853D+00
 Atom C3       Shell     8 SP   3    bf   19 -    22          0.735151748195          5.065602309560          3.715519391394
      0.7868272350D+01 -0.1193324198D+00  0.6899906659D-01
      0.1881288540D+01 -0.1608541517D+00  0.3164239610D+00
      0.5442492580D+00  0.1143456438D+01  0.7443082909D+00
 Atom C3       Shell     9 SP   1    bf   23 -    26          0.735151748195          5.065602309560          3.715519391394
      0.1687144782D+00  0.1000000000D+01  0.1000000000D+01
 Atom C3       Shell    10 D   1     bf   27 -    32          0.735151748195          5.065602309560          3.715519391394
      0.8000000000D+00  0.1000000000D+01
 Atom H4       Shell    11 S   3     bf   33 -    33          1.024738577545          5.227007749200          5.756967610373
      0.1873113696D+02  0.3349460434D-01
      0.2825394365D+01  0.2347269535D+00
      0.6401216923D+00  0.8137573261D+00
 Atom H4       Shell    12 S   1     bf   34 -    34          1.024738577545          5.227007749200          5.756967610373
      0.1612777588D+00  0.1000000000D+01
 Atom H5       Shell    13 S   3     bf   35 -    35          0.636676645424          7.007421710169          2.972667935173
      0.1873113696D+02  0.3349460434D-01
      0.2825394365D+01  0.2347269535D+00
      0.6401216923D+00  0.8137573261D+00
 Atom H5       Shell    14 S   1     bf   36 -    36          0.636676645424          7.007421710169          2.972667935173
      0.1612777588D+00  0.1000000000D+01
 Atom C6       Shell    15 S   6     bf   37 -    37          2.927865759994          3.664439886152          2.509743198387
      0.3047524880D+04  0.1834737132D-02
      0.4573695180D+03  0.1403732281D-01
      0.1039486850D+03  0.6884262226D-01
      0.2921015530D+02  0.2321844432D+00
      0.9286662960D+01  0.4679413484D+00
      0.3163926960D+01  0.3623119853D+00
 Atom C6       Shell    16 SP   3    bf   38 -    41          2.927865759994          3.664439886152          2.509743198387
      0.7868272350D+01 -0.1193324198D+00  0.6899906659D-01
      0.1881288540D+01 -0.1608541517D+00  0.3164239610D+00
      0.5442492580D+00  0.1143456438D+01  0.7443082909D+00
 Atom C6       Shell    17 SP   1    bf   42 -    45          2.927865759994          3.664439886152          2.509743198387
      0.1687144782D+00  0.1000000000D+01  0.1000000000D+01
 Atom C6       Shell    18 D   1     bf   46 -    51          2.927865759994          3.664439886152          2.509743198387
      0.8000000000D+00  0.1000000000D+01
 Atom C7       Shell    19 S   6     bf   52 -    52          2.697068216152          3.072163055419         -0.318162719911
      0.3047524880D+04  0.1834737132D-02
      0.4573695180D+03  0.1403732281D-01
      0.1039486850D+03  0.6884262226D-01
      0.2921015530D+02  0.2321844432D+00
      0.9286662960D+01  0.4679413484D+00
      0.3163926960D+01  0.3623119853D+00
 Atom C7       Shell    20 SP   3    bf   53 -    56          2.697068216152          3.072163055419         -0.318162719911
      0.7868272350D+01 -0.1193324198D+00  0.6899906659D-01
      0.1881288540D+01 -0.1608541517D+00  0.3164239610D+00
      0.5442492580D+00  0.1143456438D+01  0.7443082909D+00
 Atom C7       Shell    21 SP   1    bf   57 -    60          2.697068216152          3.072163055419         -0.318162719911
      0.1687144782D+00  0.1000000000D+01  0.1000000000D+01
 Atom C7       Shell    22 D   1     bf   61 -    66          2.697068216152          3.072163055419         -0.318162719911
      0.8000000000D+00  0.1000000000D+01
 Atom C8       Shell    23 S   6     bf   67 -    67          0.028001716173          1.915975298145         -0.798498694088
      0.3047524880D+04  0.1834737132D-02
      0.4573695180D+03  0.1403732281D-01
      0.1039486850D+03  0.6884262226D-01
      0.2921015530D+02  0.2321844432D+00
      0.9286662960D+01  0.4679413484D+00
      0.3163926960D+01  0.3623119853D+00
 Atom C8       Shell    24 SP   3    bf   68 -    71          0.028001716173          1.915975298145         -0.798498694088
      0.7868272350D+01 -0.1193324198D+00  0.6899906659D-01
      0.1881288540D+01 -0.1608541517D+00  0.3164239610D+00
      0.5442492580D+00  0.1143456438D+01  0.7443082909D+00
 Atom C8       Shell    25 SP   1    bf   72 -    75          0.028001716173          1.915975298145         -0.798498694088
      0.1687144782D+00  0.1000000000D+01  0.1000000000D+01
 Atom C8       Shell    26 D   1     bf   76 -    81          0.028001716173          1.915975298145         -0.798498694088
      0.8000000000D+00  0.1000000000D+01
 Atom H9       Shell    27 S   3     bf   82 -    82          0.000000000000          0.000000000000          0.000000000000
      0.1873113696D+02  0.3349460434D-01
      0.2825394365D+01  0.2347269535D+00
      0.6401216923D+00  0.8137573261D+00
 Atom H9       Shell    28 S   1     bf   83 -    83          0.000000000000          0.000000000000          0.000000000000
      0.1612777588D+00  0.1000000000D+01
 Atom H10      Shell    29 S   3     bf   84 -    84         -0.271314387070          1.706869070206         -2.835963086919
      0.1873113696D+02  0.3349460434D-01
      0.2825394365D+01  0.2347269535D+00
      0.6401216923D+00  0.8137573261D+00
 Atom H10      Shell    30 S   1     bf   85 -    85         -0.271314387070          1.706869070206         -2.835963086919
      0.1612777588D+00  0.1000000000D+01
 Atom C11      Shell    31 S   6     bf   86 -    86         -2.178890627342          3.416194425336          0.346035632351
      0.3047524880D+04  0.1834737132D-02
      0.4573695180D+03  0.1403732281D-01
      0.1039486850D+03  0.6884262226D-01
      0.2921015530D+02  0.2321844432D+00
      0.9286662960D+01  0.4679413484D+00
      0.3163926960D+01  0.3623119853D+00
 Atom C11      Shell    32 SP   3    bf   87 -    90         -2.178890627342          3.416194425336          0.346035632351
      0.7868272350D+01 -0.1193324198D+00  0.6899906659D-01
      0.1881288540D+01 -0.1608541517D+00  0.3164239610D+00
      0.5442492580D+00  0.1143456438D+01  0.7443082909D+00
 Atom C11      Shell    33 SP   1    bf   91 -    94         -2.178890627342          3.416194425336          0.346035632351
      0.1687144782D+00  0.1000000000D+01  0.1000000000D+01
 Atom C11      Shell    34 D   1     bf   95 -   100         -2.178890627342          3.416194425336          0.346035632351
      0.8000000000D+00  0.1000000000D+01
 Atom H12      Shell    35 S   3     bf  101 -   101         -2.345022820062          5.276698456912         -0.566369044499
      0.1873113696D+02  0.3349460434D-01
      0.2825394365D+01  0.2347269535D+00
      0.6401216923D+00  0.8137573261D+00
 Atom H12      Shell    36 S   1     bf  102 -   102         -2.345022820062          5.276698456912         -0.566369044499
      0.1612777588D+00  0.1000000000D+01
 Atom H13      Shell    37 S   3     bf  103 -   103         -3.964184824946          2.425413697275          0.000000000000
      0.1873113696D+02  0.3349460434D-01
      0.2825394365D+01  0.2347269535D+00
      0.6401216923D+00  0.8137573261D+00
 Atom H13      Shell    38 S   1     bf  104 -   104         -3.964184824946          2.425413697275          0.000000000000
      0.1612777588D+00  0.1000000000D+01
 Atom C14      Shell    39 S   6     bf  105 -   105          4.937543052850          3.015828902103          3.914094931486
      0.3047524880D+04  0.1834737132D-02
      0.4573695180D+03  0.1403732281D-01
      0.1039486850D+03  0.6884262226D-01
      0.2921015530D+02  0.2321844432D+00
      0.9286662960D+01  0.4679413484D+00
      0.3163926960D+01  0.3623119853D+00
 Atom C14      Shell    40 SP   3    bf  106 -   109          4.937543052850          3.015828902103          3.914094931486
      0.7868272350D+01 -0.1193324198D+00  0.6899906659D-01
      0.1881288540D+01 -0.1608541517D+00  0.3164239610D+00
      0.5442492580D+00  0.1143456438D+01  0.7443082909D+00
 Atom C14      Shell    41 SP   1    bf  110 -   113          4.937543052850          3.015828902103          3.914094931486
      0.1687144782D+00  0.1000000000D+01  0.1000000000D+01
 Atom C14      Shell    42 D   1     bf  114 -   119          4.937543052850          3.015828902103          3.914094931486
      0.8000000000D+00  0.1000000000D+01
 Atom H15      Shell    43 S   3     bf  120 -   120          4.958459788908          3.500774277366          5.912861285801
      0.1873113696D+02  0.3349460434D-01
      0.2825394365D+01  0.2347269535D+00
      0.6401216923D+00  0.8137573261D+00
 Atom H15      Shell    44 S   1     bf  121 -   121          4.958459788908          3.500774277366          5.912861285801
      0.1612777588D+00  0.1000000000D+01
 Atom C16      Shell    45 S   6     bf  122 -   122          7.215027986888          1.634127180768          2.936990567189
      0.3047524880D+04  0.1834737132D-02
      0.4573695180D+03  0.1403732281D-01
      0.1039486850D+03  0.6884262226D-01
      0.2921015530D+02  0.2321844432D+00
      0.9286662960D+01  0.4679413484D+00
      0.3163926960D+01  0.3623119853D+00
 Atom C16      Shell    46 SP   3    bf  123 -   126          7.215027986888          1.634127180768          2.936990567189
      0.7868272350D+01 -0.1193324198D+00  0.6899906659D-01
      0.1881288540D+01 -0.1608541517D+00  0.3164239610D+00
      0.5442492580D+00  0.1143456438D+01  0.7443082909D+00
 Atom C16      Shell    47 SP   1    bf  127 -   130          7.215027986888          1.634127180768          2.936990567189
      0.1687144782D+00  0.1000000000D+01  0.1000000000D+01
 Atom C16      Shell    48 D   1     bf  131 -   136          7.215027986888          1.634127180768          2.936990567189
      0.8000000000D+00  0.1000000000D+01
 Atom H17      Shell    49 S   3     bf  137 -   137          8.944152569630          2.452301230920          3.737728416668
      0.1873113696D+02  0.3349460434D-01
      0.2825394365D+01  0.2347269535D+00
      0.6401216923D+00  0.8137573261D+00
 Atom H17      Shell    50 S   1     bf  138 -   138          8.944152569630          2.452301230920          3.737728416668
      0.1612777588D+00  0.1000000000D+01
 Atom C18      Shell    51 S   6     bf  139 -   139          7.374806958143          1.649280724553          0.032041912850
      0.3047524880D+04  0.1834737132D-02
      0.4573695180D+03  0.1403732281D-01
      0.1039486850D+03  0.6884262226D-01
      0.2921015530D+02  0.2321844432D+00
      0.9286662960D+01  0.4679413484D+00
      0.3163926960D+01  0.3623119853D+00
 Atom C18      Shell    52 SP   3    bf  140 -   143          7.374806958143          1.649280724553          0.032041912850
      0.7868272350D+01 -0.1193324198D+00  0.6899906659D-01
      0.1881288540D+01 -0.1608541517D+00  0.3164239610D+00
      0.5442492580D+00  0.1143456438D+01  0.7443082909D+00
 Atom C18      Shell    53 SP   1    bf  144 -   147          7.374806958143          1.649280724553          0.032041912850
      0.1687144782D+00  0.1000000000D+01  0.1000000000D+01
 Atom C18      Shell    54 D   1     bf  148 -   153          7.374806958143          1.649280724553          0.032041912850
      0.8000000000D+00  0.1000000000D+01
 Atom H19      Shell    55 S   3     bf  154 -   154          7.956007367018          3.580715607629         -0.464020135437
      0.1873113696D+02  0.3349460434D-01
      0.2825394365D+01  0.2347269535D+00
      0.6401216923D+00  0.8137573261D+00
 Atom H19      Shell    56 S   1     bf  155 -   155          7.956007367018          3.580715607629         -0.464020135437
      0.1612777588D+00  0.1000000000D+01
 Atom C20      Shell    57 S   6     bf  156 -   156          4.747249105255          1.094231385253         -1.144049101459
      0.3047524880D+04  0.1834737132D-02
      0.4573695180D+03  0.1403732281D-01
      0.1039486850D+03  0.6884262226D-01
      0.2921015530D+02  0.2321844432D+00
      0.9286662960D+01  0.4679413484D+00
      0.3163926960D+01  0.3623119853D+00
 Atom C20      Shell    58 SP   3    bf  157 -   160          4.747249105255          1.094231385253         -1.144049101459
      0.7868272350D+01 -0.1193324198D+00  0.6899906659D-01
      0.1881288540D+01 -0.1608541517D+00  0.3164239610D+00
      0.5442492580D+00  0.1143456438D+01  0.7443082909D+00
 Atom C20      Shell    59 SP   1    bf  161 -   164          4.747249105255          1.094231385253         -1.144049101459
      0.1687144782D+00  0.1000000000D+01  0.1000000000D+01
 Atom C20      Shell    60 D   1     bf  165 -   170          4.747249105255          1.094231385253         -1.144049101459
      0.8000000000D+00  0.1000000000D+01
 Atom H21      Shell    61 S   3     bf  171 -   171          4.144973846936         -0.725937821516         -0.341240754645
      0.1873113696D+02  0.3349460434D-01
      0.2825394365D+01  0.2347269535D+00
      0.6401216923D+00  0.8137573261D+00
 Atom H21      Shell    62 S   1     bf  172 -   172          4.144973846936         -0.725937821516         -0.341240754645
      0.1612777588D+00  0.1000000000D+01
 Atom C22      Shell    63 S   6     bf  173 -   173          4.904564157091          0.735083736952         -4.041381743742
      0.3047524880D+04  0.1834737132D-02
      0.4573695180D+03  0.1403732281D-01
      0.1039486850D+03  0.6884262226D-01
      0.2921015530D+02  0.2321844432D+00
      0.9286662960D+01  0.4679413484D+00
      0.3163926960D+01  0.3623119853D+00
 Atom C22      Shell    64 SP   3    bf  174 -   177          4.904564157091          0.735083736952         -4.041381743742
      0.7868272350D+01 -0.1193324198D+00  0.6899906659D-01
      0.1881288540D+01 -0.1608541517D+00  0.3164239610D+00
      0.5442492580D+00  0.1143456438D+01  0.7443082909D+00
 Atom C22      Shell    65 SP   1    bf  178 -   181          4.904564157091          0.735083736952         -4.041381743742
      0.1687144782D+00  0.1000000000D+01  0.1000000000D+01
 Atom C22      Shell    66 D   1     bf  182 -   187          4.904564157091          0.735083736952         -4.041381743742
      0.8000000000D+00  0.1000000000D+01
 Atom H23      Shell    67 S   3     bf  188 -   188          5.200600754014          2.562766740490         -4.964347986565
      0.1873113696D+02  0.3349460434D-01
      0.2825394365D+01  0.2347269535D+00
      0.6401216923D+00  0.8137573261D+00
 Atom H23      Shell    68 S   1     bf  189 -   189          5.200600754014          2.562766740490         -4.964347986565
      0.1612777588D+00  0.1000000000D+01
 Atom H24      Shell    69 S   3     bf  190 -   190          3.089478748256          0.030313758302         -4.748073460486
      0.1873113696D+02  0.3349460434D-01
      0.2825394365D+01  0.2347269535D+00
      0.6401216923D+00  0.8137573261D+00
 Atom H24      Shell    70 S   1     bf  191 -   191          3.089478748256          0.030313758302         -4.748073460486
      0.1612777588D+00  0.1000000000D+01
 Atom C25      Shell    71 S   6     bf  192 -   192          7.007522205804         -1.081787652052         -4.920151147358
      0.3047524880D+04  0.1834737132D-02
      0.4573695180D+03  0.1403732281D-01
      0.1039486850D+03  0.6884262226D-01
      0.2921015530D+02  0.2321844432D+00
      0.9286662960D+01  0.4679413484D+00
      0.3163926960D+01  0.3623119853D+00
 Atom C25      Shell    72 SP   3    bf  193 -   196          7.007522205804         -1.081787652052         -4.920151147358
      0.7868272350D+01 -0.1193324198D+00  0.6899906659D-01
      0.1881288540D+01 -0.1608541517D+00  0.3164239610D+00
      0.5442492580D+00  0.1143456438D+01  0.7443082909D+00
 Atom C25      Shell    73 SP   1    bf  197 -   200          7.007522205804         -1.081787652052         -4.920151147358
      0.1687144782D+00  0.1000000000D+01  0.1000000000D+01
 Atom C25      Shell    74 D   1     bf  201 -   206          7.007522205804         -1.081787652052         -4.920151147358
      0.8000000000D+00  0.1000000000D+01
 Atom H26      Shell    75 S   3     bf  207 -   207          6.589449381789         -3.005407156967         -4.256380647990
      0.1873113696D+02  0.3349460434D-01
      0.2825394365D+01  0.2347269535D+00
      0.6401216923D+00  0.8137573261D+00
 Atom H26      Shell    76 S   1     bf  208 -   208          6.589449381789         -3.005407156967         -4.256380647990
      0.1612777588D+00  0.1000000000D+01
 Atom H27      Shell    77 S   3     bf  209 -   209          6.980163128798         -1.153701728060         -6.986944411026
      0.1873113696D+02  0.3349460434D-01
      0.2825394365D+01  0.2347269535D+00
      0.6401216923D+00  0.8137573261D+00
 Atom H27      Shell    78 S   1     bf  210 -   210          6.980163128798         -1.153701728060         -6.986944411026
      0.1612777588D+00  0.1000000000D+01
 Atom C28      Shell    79 S   6     bf  211 -   211          9.619324750518         -0.291569851262         -3.892630949637
      0.3047524880D+04  0.1834737132D-02
      0.4573695180D+03  0.1403732281D-01
      0.1039486850D+03  0.6884262226D-01
      0.2921015530D+02  0.2321844432D+00
      0.9286662960D+01  0.4679413484D+00
      0.3163926960D+01  0.3623119853D+00
 Atom C28      Shell    80 SP   3    bf  212 -   215          9.619324750518         -0.291569851262         -3.892630949637
      0.7868272350D+01 -0.1193324198D+00  0.6899906659D-01
      0.1881288540D+01 -0.1608541517D+00  0.3164239610D+00
      0.5442492580D+00  0.1143456438D+01  0.7443082909D+00
 Atom C28      Shell    81 SP   1    bf  216 -   219          9.619324750518         -0.291569851262         -3.892630949637
      0.1687144782D+00  0.1000000000D+01  0.1000000000D+01
 Atom C28      Shell    82 D   1     bf  220 -   225          9.619324750518         -0.291569851262         -3.892630949637
      0.8000000000D+00  0.1000000000D+01
 Atom C29      Shell    83 S   6     bf  226 -   226          9.361188652095         -0.217440770563         -0.967179825004
      0.3047524880D+04  0.1834737132D-02
      0.4573695180D+03  0.1403732281D-01
      0.1039486850D+03  0.6884262226D-01
      0.2921015530D+02  0.2321844432D+00
      0.9286662960D+01  0.4679413484D+00
      0.3163926960D+01  0.3623119853D+00
 Atom C29      Shell    84 SP   3    bf  227 -   230          9.361188652095         -0.217440770563         -0.967179825004
      0.7868272350D+01 -0.1193324198D+00  0.6899906659D-01
      0.1881288540D+01 -0.1608541517D+00  0.3164239610D+00
      0.5442492580D+00  0.1143456438D+01  0.7443082909D+00
 Atom C29      Shell    85 SP   1    bf  231 -   234          9.361188652095         -0.217440770563         -0.967179825004
      0.1687144782D+00  0.1000000000D+01  0.1000000000D+01
 Atom C29      Shell    86 D   1     bf  235 -   240          9.361188652095         -0.217440770563         -0.967179825004
      0.8000000000D+00  0.1000000000D+01
 Atom H30      Shell    87 S   3     bf  241 -   241          8.701784062601         -2.111532321993         -0.430188840911
      0.1873113696D+02  0.3349460434D-01
      0.2825394365D+01  0.2347269535D+00
      0.6401216923D+00  0.8137573261D+00
 Atom H30      Shell    88 S   1     bf  242 -   242          8.701784062601         -2.111532321993         -0.430188840911
      0.1612777588D+00  0.1000000000D+01
 Atom C31      Shell    89 S   6     bf  243 -   243         12.085461630217          0.000000000000          0.000000000000
      0.3047524880D+04  0.1834737132D-02
      0.4573695180D+03  0.1403732281D-01
      0.1039486850D+03  0.6884262226D-01
      0.2921015530D+02  0.2321844432D+00
      0.9286662960D+01  0.4679413484D+00
      0.3163926960D+01  0.3623119853D+00
 Atom C31      Shell    90 SP   3    bf  244 -   247         12.085461630217          0.000000000000          0.000000000000
      0.7868272350D+01 -0.1193324198D+00  0.6899906659D-01
      0.1881288540D+01 -0.1608541517D+00  0.3164239610D+00
      0.5442492580D+00  0.1143456438D+01  0.7443082909D+00
 Atom C31      Shell    91 SP   1    bf  248 -   251         12.085461630217          0.000000000000          0.000000000000
      0.1687144782D+00  0.1000000000D+01  0.1000000000D+01
 Atom C31      Shell    92 D   1     bf  252 -   257         12.085461630217          0.000000000000          0.000000000000
      0.8000000000D+00  0.1000000000D+01
 Atom H32      Shell    93 S   3     bf  258 -   258         12.277292057439         -0.694934350971          1.936627264675
      0.1873113696D+02  0.3349460434D-01
      0.2825394365D+01  0.2347269535D+00
      0.6401216923D+00  0.8137573261D+00
 Atom H32      Shell    94 S   1     bf  259 -   259         12.277292057439         -0.694934350971          1.936627264675
      0.1612777588D+00  0.1000000000D+01
 Atom H33      Shell    95 S   3     bf  260 -   260         12.717783080515          1.975356767131         -0.004426324418
      0.1873113696D+02  0.3349460434D-01
      0.2825394365D+01  0.2347269535D+00
      0.6401216923D+00  0.8137573261D+00
 Atom H33      Shell    96 S   1     bf  261 -   261         12.717783080515          1.975356767131         -0.004426324418
      0.1612777588D+00  0.1000000000D+01
 Atom C34      Shell    97 S   6     bf  262 -   262         13.622225868736         -1.601865152618         -1.920230054328
      0.3047524880D+04  0.1834737132D-02
      0.4573695180D+03  0.1403732281D-01
      0.1039486850D+03  0.6884262226D-01
      0.2921015530D+02  0.2321844432D+00
      0.9286662960D+01  0.4679413484D+00
      0.3163926960D+01  0.3623119853D+00
 Atom C34      Shell    98 SP   3    bf  263 -   266         13.622225868736         -1.601865152618         -1.920230054328
      0.7868272350D+01 -0.1193324198D+00  0.6899906659D-01
      0.1881288540D+01 -0.1608541517D+00  0.3164239610D+00
      0.5442492580D+00  0.1143456438D+01  0.7443082909D+00
 Atom C34      Shell    99 SP   1    bf  267 -   270         13.622225868736         -1.601865152618         -1.920230054328
      0.1687144782D+00  0.1000000000D+01  0.1000000000D+01
 Atom C34      Shell   100 D   1     bf  271 -   276         13.622225868736         -1.601865152618         -1.920230054328
      0.8000000000D+00  0.1000000000D+01
 Atom H35      Shell   101 S   3     bf  277 -   277         15.261360408016         -0.545330685668         -2.621894343668
      0.1873113696D+02  0.3349460434D-01
      0.2825394365D+01  0.2347269535D+00
      0.6401216923D+00  0.8137573261D+00
 Atom H35      Shell   102 S   1     bf  278 -   278         15.261360408016         -0.545330685668         -2.621894343668
      0.1612777588D+00  0.1000000000D+01
 Atom H36      Shell   103 S   3     bf  279 -   279         14.368159657252         -3.311596061874         -1.029810942637
      0.1873113696D+02  0.3349460434D-01
      0.2825394365D+01  0.2347269535D+00
      0.6401216923D+00  0.8137573261D+00
 Atom H36      Shell   104 S   1     bf  280 -   280         14.368159657252         -3.311596061874         -1.029810942637
      0.1612777588D+00  0.1000000000D+01
 Atom C37      Shell   105 S   6     bf  281 -   281         11.801151709915         -2.282479782563         -4.156044883074
      0.3047524880D+04  0.1834737132D-02
      0.4573695180D+03  0.1403732281D-01
      0.1039486850D+03  0.6884262226D-01
      0.2921015530D+02  0.2321844432D+00
      0.9286662960D+01  0.4679413484D+00
      0.3163926960D+01  0.3623119853D+00
 Atom C37      Shell   106 SP   3    bf  282 -   285         11.801151709915         -2.282479782563         -4.156044883074
      0.7868272350D+01 -0.1193324198D+00  0.6899906659D-01
      0.1881288540D+01 -0.1608541517D+00  0.3164239610D+00
      0.5442492580D+00  0.1143456438D+01  0.7443082909D+00
[...]
 1631 Fit      -0.001720
 1632 Fit      -0.002147
 1633 Fit       0.001572
 1634 Fit      -0.000088
 1635 Fit      -0.001980
 1636 Fit       0.002259
 1637 Fit       0.001566
 1638 Fit      -0.000218
 1639 Fit      -0.000980
 1640 Fit       0.001210
 1641 Fit       0.001403
 1642 Fit       0.000276
 1643 Fit      -0.001858
 1644 Fit      -0.002185
 1645 Fit       0.000042
 1646 Fit      -0.000488
 1647 Fit      -0.000061
 1648 Fit       0.001191
 1649 Fit      -0.001029
 1650 Fit       0.001190
 1651 Fit       0.002797
 1652 Fit       0.002754
 1653 Fit       0.000299
 1654 Fit      -0.001572
 1655 Fit       0.000615
 1656 Fit       0.000021
 1657 Fit      -0.002043
 1658 Fit      -0.005283
 1659 Fit      -0.003368
 1660 Fit       0.003546
 1661 Fit      -0.003904
 1662 Fit       0.002767
 1663 Fit       0.007712
 1664 Fit       0.010182
 1665 Fit      -0.010521
 1666 Fit      -0.001319
 1667 Fit       0.003605
 1668 Fit       0.006634
 1669 Fit       0.007671
 1670 Fit       0.001492
 1671 Fit       0.005320
 1672 Fit       0.002738
 1673 Fit       0.004017
 1674 Fit       0.004771
 1675 Fit       0.000684
 1676 Fit       0.002612
 1677 Fit       0.006612
 1678 Fit       0.003693
 1679 Fit      -0.000628
 1680 Fit      -0.004846
 1681 Fit       0.000861
 1682 Fit       0.006635
 1683 Fit       0.005369
 1684 Fit       0.003598
 1685 Fit       0.001402
 1686 Fit      -0.005456
 1687 Fit       0.005480
 1688 Fit       0.005145
 1689 Fit       0.007225
 1690 Fit       0.005760
 1691 Fit       0.008935
 1692 Fit       0.012774
 1693 Fit       0.007933
 1694 Fit       0.011687
 1695 Fit       0.016179
 1696 Fit      -0.000363
 1697 Fit       0.004614
 1698 Fit       0.005659
 1699 Fit       0.004836
 1700 Fit       0.004762
 1701 Fit       0.005101
 1702 Fit       0.005857
 1703 Fit       0.005244
 1704 Fit       0.002129
 1705 Fit       0.004809
 1706 Fit       0.004480
 1707 Fit       0.002986
 1708 Fit       0.004422
 1709 Fit       0.004127
 1710 Fit       0.003520
 1711 Fit       0.004207
 1712 Fit       0.006203
 1713 Fit       0.009003
 1714 Fit       0.007775
 1715 Fit       0.007118
 1716 Fit       0.006711
 1717 Fit       0.009439
 1718 Fit       0.008390
 1719 Fit       0.008257
 1720 Fit       0.008969
 1721 Fit       0.005976
 1722 Fit       0.005745
 1723 Fit       0.007318
 1724 Fit       0.017051
 1725 Fit       0.014607
 1726 Fit       0.009358
 1727 Fit       0.012430
 1728 Fit       0.010565
 1729 Fit       0.007333
 1730 Fit       0.009481
 1731 Fit       0.007585
 1732 Fit       0.009461
 1733 Fit      -0.012973
 1734 Fit      -0.004310
 1735 Fit      -0.007126
 1736 Fit      -0.005321
 1737 Fit      -0.001984
 1738 Fit       0.000927
 1739 Fit       0.003462
 1740 Fit       0.001147
 1741 Fit       0.000983
 1742 Fit       0.002198
 1743 Fit       0.003497
 1744 Fit       0.004583
 1745 Fit       0.003847
 1746 Fit       0.004113
 1747 Fit       0.004855
 1748 Fit       0.005477
 1749 Fit       0.005456
 1750 Fit       0.006182
 1751 Fit       0.001144
 1752 Fit       0.000048
 1753 Fit      -0.000230
 1754 Fit       0.006225
 1755 Fit       0.000807
 1756 Fit       0.005060
 1757 Fit      -0.000871
 1758 Fit       0.003569
 1759 Fit       0.006192
 1760 Fit       0.007548
 1761 Fit       0.009955
 1762 Fit       0.000268
 1763 Fit       0.003054
 1764 Fit       0.005124
 1765 Fit       0.001234
 1766 Fit       0.001734
 1767 Fit      -0.005365
 1768 Fit      -0.008637
 1769 Fit      -0.002544
 1770 Fit       0.000367
 1771 Fit      -0.000411
 1772 Fit       0.002340
 1773 Fit       0.003021
 1774 Fit       0.004453
 1775 Fit       0.005254
 1776 Fit       0.006208
 1777 Fit       0.006963
 1778 Fit       0.006333
 1779 Fit       0.000744
 1780 Fit      -0.002459
 1781 Fit      -0.009160
 1782 Fit       0.003397
 1783 Fit       0.000786
 1784 Fit       0.004789
 1785 Fit       0.004342
 1786 Fit       0.005619
 1787 Fit       0.007391
 1788 Fit       0.005104
 1789 Fit       0.006053
 1790 Fit       0.004905
 1791 Fit       0.004445
 1792 Fit       0.002899
 1793 Fit       0.006884
 1794 Fit       0.004730
 1795 Fit       0.002715
 1796 Fit       0.008398
 1797 Fit       0.008283
 1798 Fit       0.006748
 1799 Fit       0.004769
 1800 Fit       0.002457
 1801 Fit       0.005486
 1802 Fit       0.004009
 1803 Fit       0.001580
 1804 Fit      -0.000025
 1805 Fit      -0.000543
 1806 Fit      -0.001895
 1807 Fit       0.002211
 1808 Fit       0.001084
 1809 Fit       0.000413
 1810 Fit       0.000197
 1811 Fit       0.002014
 1812 Fit       0.001158
 1813 Fit       0.000827
 1814 Fit       0.000937
 1815 Fit       0.000319
 1816 Fit       0.000265
 1817 Fit       0.005202
 1818 Fit       0.004633
 1819 Fit       0.004041
 1820 Fit       0.002873
 1821 Fit       0.001136
 1822 Fit       0.004897
 1823 Fit       0.003594
 1824 Fit       0.001509
 1825 Fit      -0.019375
 1826 Fit      -0.009535
 1827 Fit      -0.009147
 1828 Fit      -0.008777
 1829 Fit      -0.002298
 1830 Fit      -0.005856
 1831 Fit      -0.003030
 1832 Fit      -0.005767
 1833 Fit      -0.004483
 1834 Fit      -0.002799
 1835 Fit      -0.011717
 1836 Fit      -0.011379
 1837 Fit      -0.017645
 1838 Fit      -0.007498
 1839 Fit      -0.006765
 1840 Fit      -0.023242
 1841 Fit      -0.012858
 1842 Fit      -0.008895
 1843 Fit      -0.018200
 1844 Fit      -0.002177
 1845 Fit      -0.001910
 1846 Fit       0.000675
 1847 Fit       0.003667
 1848 Fit      -0.000529
 1849 Fit       0.001436
 1850 Fit       0.003116
 1851 Fit       0.005222
 1852 Fit       0.001559
 1853 Fit       0.002907
 1854 Fit       0.003827
 1855 Fit       0.005172
 1856 Fit      -0.005733
 1857 Fit      -0.004031
 1858 Fit      -0.003659
 1859 Fit      -0.003049
 1860 Fit      -0.002040
 1861 Fit      -0.000661
 1862 Fit       0.000223
 1863 Fit       0.001120
 1864 Fit      -0.001224
 1865 Fit       0.000959
 1866 Fit       0.001753
 1867 Fit       0.002636
 1868 Fit       0.002615
 1869 Fit      -0.006095
 1870 Fit      -0.010263
 1871 Fit      -0.006281
 1872 Fit      -0.004143
 1873 Fit      -0.009805
 1874 Fit      -0.005662
 1875 Fit      -0.003716
 1876 Fit      -0.003285
 1877 Fit      -0.002655
 1878 Fit      -0.005595
 1879 Fit      -0.003931
 1880 Fit      -0.002816
 1881 Fit      -0.002030
 1882 Fit      -0.001765
 1883 Fit      -0.003889
 1884 Fit      -0.003796
 1885 Fit      -0.000598
 1886 Fit      -0.001164
 1887 Fit      -0.001895
 1888 Fit       0.000809
 1889 Fit       0.000471
 1890 Fit       0.003849
 1891 Fit       0.001099
 1892 Fit       0.002085
 1893 Fit       0.001063
 1894 Fit       0.000557
 1895 Fit       0.000787
 1896 Fit       0.001908
 1897 Fit       0.006347
 1898 Fit       0.005318
 1899 Fit       0.003461
 1900 Fit       0.005895
 1901 Fit       0.003535
 1902 Fit       0.005732
 1903 Fit       0.003510
 1904 Fit       0.003134
 1905 Fit       0.002666
 1906 Fit       0.003540
 1907 Fit       0.002906
 1908 Fit       0.002211
 1909 Fit       0.001504
 1910 Fit       0.001510
 1911 Fit       0.001752
 1912 Fit       0.002476
 1913 Fit       0.003625
 1914 Fit       0.004825
 1915 Fit       0.002039
 1916 Fit       0.002939
 1917 Fit       0.003914
 1918 Fit       0.002496
 1919 Fit       0.003035
 1920 Fit       0.002194
 1921 Fit       0.001403
 1922 Fit       0.001457
 1923 Fit       0.000383
 1924 Fit       0.000093
 1925 Fit       0.000882
 1926 Fit      -0.000372
 1927 Fit      -0.001079
 1928 Fit       0.000309
 1929 Fit      -0.000949
 1930 Fit      -0.001313
 1931 Fit      -0.000004
 1932 Fit      -0.000550
 1933 Fit       0.001104
 1934 Fit       0.001099
 1935 Fit       0.000481
 1936 Fit       0.001190
 1937 Fit       0.001111
 1938 Fit      -0.000193
 1939 Fit       0.000409
 1940 Fit       0.000794
 1941 Fit       0.000569
 1942 Fit      -0.000080
 1943 Fit      -0.000544
 1944 Fit      -0.000259
 1945 Fit      -0.000562
 1946 Fit       0.001324
 1947 Fit       0.000710
 1948 Fit       0.000317
 1949 Fit       0.003179
 1950 Fit       0.001656
 1951 Fit       0.000625
 1952 Fit       0.000134
 1953 Fit       0.000827
 1954 Fit       0.002706
 1955 Fit       0.001715
 1956 Fit       0.001770
 1957 Fit       0.003653
 1958 Fit       0.004183
 1959 Fit       0.003360
 1960 Fit       0.000941
 1961 Fit       0.001693
 1962 Fit       0.000680
 1963 Fit       0.005836
 1964 Fit       0.006199
 1965 Fit       0.005283
 1966 Fit       0.006056
 1967 Fit       0.007716
 1968 Fit       0.009316
 1969 Fit       0.006475
 1970 Fit       0.005606
 1971 Fit       0.006026
 1972 Fit       0.006666
 1973 Fit       0.007814
 1974 Fit       0.008822
 1975 Fit       0.009932
 1976 Fit       0.007226
 1977 Fit       0.007801
 1978 Fit       0.008656
 1979 Fit       0.008223
 1980 Fit       0.007996
 1981 Fit       0.009011
 1982 Fit       0.013212
 1983 Fit       0.019030
 1984 Fit       0.007528
 1985 Fit       0.010405
 1986 Fit       0.013739
 1987 Fit       0.009888
 1988 Fit       0.005408
 1989 Fit       0.004390
 1990 Fit       0.008134
 1991 Fit       0.006456
 1992 Fit       0.005712
 1993 Fit       0.008201
 1994 Fit       0.006793
 1995 Fit       0.005831
 1996 Fit       0.007358
 1997 Fit       0.005992
 1998 Fit       0.000652
 1999 Fit      -0.001313
 2000 Fit      -0.006716
 2001 Fit      -0.013128
 2002 Fit      -0.019050
 2003 Fit      -0.023170
 2004 Fit      -0.011185
 2005 Fit      -0.015107
 2006 Fit      -0.002453
 2007 Fit      -0.012068
 2008 Fit      -0.008661
 2009 Fit       0.000701
 2010 Fit       0.004301
 2011 Fit      -0.007498
 2012 Fit      -0.018692
 2013 Fit      -0.016619
 2014 Fit      -0.012382
 2015 Fit      -0.005458
 2016 Fit      -0.004218
 2017 Fit      -0.013670
 2018 Fit      -0.018140
 2019 Fit      -0.021620
 2020 Fit      -0.018593
 2021 Fit      -0.014218
 2022 Fit      -0.008542
 2023 Fit      -0.005339
 2024 Fit      -0.015855
 2025 Fit      -0.021467
 2026 Fit      -0.022942
 2027 Fit      -0.020387
 2028 Fit      -0.016084
 2029 Fit      -0.005470
 2030 Fit      -0.015977
 2031 Fit      -0.022490
 2032 Fit      -0.024909
 2033 Fit      -0.023729
 2034 Fit       0.007407
 2035 Fit       0.009817
 2036 Fit       0.014102
 2037 Fit       0.011383
 2038 Fit       0.013070
 2039 Fit       0.016055
 2040 Fit       0.016951
 2041 Fit       0.014362
 2042 Fit       0.007560
 2043 Fit       0.013838
 2044 Fit       0.016324
 2045 Fit       0.016219
 2046 Fit       0.012903
 2047 Fit       0.005962
 2048 Fit       0.011985
 2049 Fit       0.012088
 2050 Fit       0.008087
 2051 Fit       0.000077
 2052 Fit      -0.019702
 2053 Fit      -0.014859
 2054 Fit      -0.018263
 2055 Fit      -0.022552
 2056 Fit      -0.021302
 2057 Fit      -0.015228
 2058 Fit      -0.006699
 2059 Fit      -0.007540
 2060 Fit      -0.011113
 2061 Fit      -0.017162
 2062 Fit      -0.022444
 2063 Fit      -0.023912
 2064 Fit      -0.020404
 2065 Fit      -0.008501
 2066 Fit      -0.017053
 2067 Fit      -0.022309
 2068 Fit      -0.022651
 2069 Fit      -0.017780
 2070 Fit      -0.002343
 2071 Fit      -0.012533
 2072 Fit      -0.018712
 2073 Fit      -0.019888
 2074 Fit      -0.015946
 2075 Fit      -0.005882
 2076 Fit      -0.013111
 2077 Fit      -0.002982
 2078 Fit       0.006233
 2079 Fit       0.005945
 2080 Fit       0.000693
 2081 Fit       0.016218
 2082 Fit       0.014484
 2083 Fit       0.009973
 2084 Fit       0.001822
 2085 Fit       0.022089
 2086 Fit       0.019698
 2087 Fit       0.015272
 2088 Fit       0.007973
 2089 Fit       0.025899
 2090 Fit       0.022557
 2091 Fit       0.017552
 2092 Fit       0.009705
 2093 Fit      -0.004139
 2094 Fit      -0.000020
 2095 Fit      -0.000771
 2096 Fit      -0.002719
 2097 Fit      -0.000885
 2098 Fit       0.000799
 2099 Fit      -0.003093
 2100 Fit      -0.001225
 2101 Fit      -0.001911
 2102 Fit      -0.003232
 2103 Fit       0.000823
 2104 Fit       0.000138
 2105 Fit      -0.000369
 2106 Fit      -0.001158
 2107 Fit       0.000630
 2108 Fit       0.000373
 2109 Fit      -0.000031
 2110 Fit       0.000190
 2111 Fit       0.000191
 2112 Fit      -0.000174
 2113 Fit       0.000871
 2114 Fit       0.003480
 2115 Fit       0.003563
 2116 Fit       0.001054
 2117 Fit       0.001779
 2118 Fit       0.001361
 2119 Fit       0.001821
 2120 Fit       0.002195
 2121 Fit       0.001769
 2122 Fit       0.001824
 2123 Fit       0.001540
 2124 Fit       0.001060
 2125 Fit       0.000705
 2126 Fit      -0.000191
 2127 Fit       0.000068
 2128 Fit      -0.003338
 2129 Fit      -0.001258
 2130 Fit      -0.001407
 2131 Fit      -0.002381
 2132 Fit       0.000256
 2133 Fit       0.000250
 2134 Fit       0.000039
 2135 Fit       0.000391
 2136 Fit       0.000874
 2137 Fit       0.001256
 2138 Fit      -0.000239
 2139 Fit      -0.000672
 2140 Fit       0.000110
 2141 Fit       0.000435
 2142 Fit      -0.002544
 2143 Fit      -0.001397
 2144 Fit       0.001046
 2145 Fit       0.000839
 2146 Fit      -0.002706
 2147 Fit       0.000774
 2148 Fit       0.000759
 2149 Fit       0.000118
 2150 Fit       0.000829
 2151 Fit      -0.000201
 2152 Fit       0.000831
 2153 Fit       0.001397
 2154 Fit       0.000126
 2155 Fit       0.000861
 2156 Fit       0.001208
 2157 Fit       0.001190
 2158 Fit       0.000297
 2159 Fit       0.000496
 2160 Fit       0.000262
 2161 Fit      -0.003009
 2162 Fit      -0.003005
 2163 Fit      -0.003203
 2164 Fit      -0.002768
 2165 Fit      -0.002375
 2166 Fit      -0.001995
 2167 Fit      -0.001472
 2168 Fit      -0.000608
 2169 Fit      -0.003168
 2170 Fit      -0.002826
 2171 Fit      -0.001163
 2172 Fit      -0.002624
 2173 Fit      -0.002575
 2174 Fit      -0.002431
 2175 Fit      -0.002516
 2176 Fit      -0.000666
 2177 Fit      -0.000854
 2178 Fit      -0.001912
 2179 Fit       0.000799
 2180 Fit       0.000285
 2181 Fit      -0.000724
 2182 Fit      -0.002193
 2183 Fit       0.001260
 2184 Fit       0.000388
 2185 Fit      -0.000747
 2186 Fit      -0.002207
 2187 Fit      -0.000693
 2188 Fit      -0.001962
 2189 Fit      -0.001434
 2190 Fit      -0.001418
 2191 Fit      -0.001946
 2192 Fit       0.000161
 2193 Fit       0.000170
 2194 Fit      -0.000132
 2195 Fit      -0.001409
 2196 Fit      -0.000376
 2197 Fit       0.001193
 2198 Fit       0.001251
 2199 Fit       0.000932
 2200 Fit      -0.000806
 2201 Fit       0.000483
 2202 Fit       0.001689
 2203 Fit       0.000589
 2204 Fit       0.000026
 2205 Fit       0.000191
 2206 Fit       0.000958
 2207 Fit      -0.001842
 2208 Fit      -0.001041
 2209 Fit      -0.000343
 2210 Fit       0.000430
 2211 Fit       0.000913
 2212 Fit      -0.002494
 2213 Fit      -0.001397
 2214 Fit      -0.001515
 2215 Fit      -0.000785
 2216 Fit      -0.000214
 2217 Fit       0.000270
 2218 Fit      -0.002447
 2219 Fit      -0.000397
 2220 Fit      -0.000429
 2221 Fit      -0.002492
 2222 Fit      -0.001056
 2223 Fit      -0.001099
 2224 Fit      -0.002244
 2225 Fit      -0.001835
 2226 Fit      -0.002287
 2227 Fit      -0.002369
 2228 Fit      -0.001567
 2229 Fit      -0.001964
 2230 Fit      -0.002345
 2231 Fit       0.001848
 2232 Fit      -0.000416
 2233 Fit       0.000512
 2234 Fit       0.001241
 2235 Fit       0.001307
 2236 Fit       0.000728
 2237 Fit      -0.000832
 2238 Fit      -0.000061
 2239 Fit       0.000608
 2240 Fit       0.000565
 2241 Fit      -0.000321
 2242 Fit      -0.001989
 2243 Fit      -0.001297
 2244 Fit      -0.000593
 2245 Fit      -0.000731
 2246 Fit      -0.001793
 2247 Fit      -0.002120
 2248 Fit       0.002093
 2249 Fit       0.001421
 2250 Fit       0.000310
 2251 Fit      -0.000765
 2252 Fit       0.001235
 2253 Fit       0.001550
 2254 Fit       0.001119
 2255 Fit      -0.000089
 2256 Fit      -0.000690
 2257 Fit       0.000814
 2258 Fit       0.000788
 2259 Fit       0.000076
 2260 Fit      -0.001318
 2261 Fit      -0.001658
 2262 Fit      -0.000158
 2263 Fit      -0.000532
 2264 Fit      -0.000068
 2265 Fit       0.001094
 2266 Fit       0.002642
 2267 Fit       0.002437
 2268 Fit      -0.000231
 2269 Fit      -0.000806
 2270 Fit       0.000767
 2271 Fit       0.001852
 2272 Fit       0.001710
 2273 Fit       0.000018
 2274 Fit      -0.001232
 2275 Fit       0.000164
 2276 Fit      -0.000276
 -----------------------------------------------------------------
 Leave Link  602 at Wed Apr 26 14:43:36 2017, MaxMem=    33554432 cpu:         4.4
 (Enter /home/michal/g09/l9999.exe)

 Test job not archived.
 1\1\GINC-LINUX\SP\RHF\6-31G(d)\C27H46O3\MICHAL\26-Apr-2017\0\\#P HF/6-
 31G* SCF(Conver=6) NoSymm Test Pop=mk IOp(6/33=2) GFInput GFPrint\\MEP
  - Input generated by R.E.D.-III.x MOLECULE\\0,1\C,0,-0.96297591,2.005
 05442,1.6870149\H,0,-0.97924788,1.02613389,2.18166907\C,0,0.38902555,2
 .68060129,1.96616818\H,0,0.5422683,2.76601337,3.04645605\H,0,0.3369147
 7,3.70816786,1.57306812\C,0,1.54935983,1.93913807,1.3280989\C,0,1.4272
 2703,1.62571867,-0.16836446\C,0,0.01481787,1.01389046,-0.42254731\H,0,
 0.,0.,0.\H,0,-0.14357339,0.90323621,-1.50072703\C,0,-1.15301926,1.8077
 7223,0.18311417\H,0,-1.24093263,2.79230856,-0.29970959\H,0,-2.09775626
 ,1.28347365,0.\C,0,2.61283525,1.59590792,2.07124983\H,0,2.62390391,1.8
 5252996,3.12895143\C,0,3.81802837,0.86474286,1.55418847\H,0,4.73304169
 ,1.29770192,1.97792069\C,0,3.90257976,0.87276177,0.01695585\H,0,4.2101
 3777,1.89483309,-0.24554888\C,0,2.51213603,0.57904231,-0.60540471\H,0,
 2.19342569,-0.38414975,-0.18057683\C,0,2.59538357,0.38898956,-2.138607
 11\H,0,2.75203939,1.35615775,-2.62701981\H,0,1.63488174,0.01604135,-2.
 51257226\C,0,3.70822104,-0.57245737,-2.60363185\H,0,3.48698643,-1.5903
 9297,-2.25237963\H,0,3.69374324,-0.61051266,-3.69733174\C,0,5.09032742
 ,-0.15429212,-2.05989158\C,0,4.95372768,-0.1150647,-0.51180952\H,0,4.6
 047858,-1.11737478,-0.22764613\C,0,6.39535085,0.,0.\H,0,6.49686314,-0.
 36774342,1.02481901\H,0,6.72996095,1.04531378,-0.00234231\C,0,7.208571
 46,-0.84767053,-1.01614198\H,0,8.0759641,-0.28857657,-1.38744673\H,0,7
 .60330262,-1.75242116,-0.54495248\C,0,6.24490052,-1.20783628,-2.199284
 23\H,0,5.79039078,-2.18688565,-1.97962869\C,0,5.5302661,1.20299559,-2.
 65493606\H,0,4.85098263,2.01674102,-2.38791749\H,0,6.52903569,1.492920
 8,-2.31486921\H,0,5.56041033,1.15579233,-3.74853218\C,0,6.99127964,-1.
 35566703,-3.55095794\H,0,7.50982044,-0.40596515,-3.75375411\C,0,6.0521
 1255,-1.64675598,-4.73500759\H,0,5.44299979,-2.53869282,-4.54120471\H,
 0,6.61709159,-1.82550698,-5.65465387\H,0,5.37188532,-0.81637163,-4.937
 07456\C,0,1.56777984,2.95768901,-0.95539996\H,0,1.29291024,2.82978285,
 -2.00657625\H,0,0.92140928,3.7384163,-0.54745458\H,0,2.59390017,3.3360
 3838,-0.91349023\O,0,3.79627547,-0.53080499,1.96309165\O,0,3.97278534,
 -0.56982867,3.40707855\H,0,3.08271167,-0.8327587,3.69441666\O,0,-2.046
 08083,2.71820387,2.28937881\H,0,-2.10881044,3.59196754,1.87857039\C,0,
 8.07839102,-2.45442921,-3.44423221\H,0,8.65028718,-2.31057892,-2.52072
 779\H,0,7.58240452,-3.43225925,-3.34446531\C,0,9.0799548,-2.50960858,-
 4.6093054\H,0,8.55662263,-2.72167439,-5.54809501\H,0,9.54408447,-1.519
 26036,-4.73084914\C,0,10.18256868,-3.55650033,-4.38906998\H,0,9.725198
 61,-4.55416732,-4.30228345\H,0,10.66352875,-3.35904702,-3.42034872\C,0
 ,11.27766336,-3.60522417,-5.47413532\H,0,11.6901936,-2.58931175,-5.575
 3181\C,0,12.42347553,-4.53394935,-5.04158526\H,0,12.06644784,-5.564964
 74,-4.92192395\H,0,13.22851433,-4.546295,-5.78522346\H,0,12.85478518,-
 4.21830978,-4.08469637\C,0,10.73167905,-4.03086149,-6.84689058\H,0,10.
 28312419,-5.03148754,-6.79282372\H,0,11.5339473,-4.06764185,-7.5927088
 2\H,0,9.96741126,-3.34177483,-7.21984021\\Version=EM64L-G09RevD.01\HF=
 -1273.6848204\RMSD=5.634e-07\Dipole=-0.2823118,0.674915,-0.7062329\Qua
 drupole=-7.4860671,7.6727449,-0.1866778,5.0738296,-1.2677803,-1.917950
 7\PG=C01 [X(C27H46O3)]\\@


 Fatherhood is pretending the present you love most is soap-on-a-rope.
 -- Bill Cosby
 Job cpu time:       0 days  0 hours 12 minutes 12.9 seconds.
 File lengths (MBytes):  RWF=    159 Int=      0 D2E=      0 Chk=     11 Scr=      1
 Normal termination of Gaussian 09 at Wed Apr 26 14:43:36 2017.
