 Entering Gaussian System, Link 0=/home/michal/g09/g09
 Input=JOB2-gau_m1-23-2.com
 Output=JOB2-gau_m1-23-2.log
 Initial command:
 /home/michal/g09/l1.exe "/home/michal/gauss_scratch/Gau-16429.inp" -scrdir="/home/michal/gauss_scratch/"
 Entering Link 1 = /home/michal/g09/l1.exe PID=     16430.
  
 Copyright (c) 1988,1990,1992,1993,1995,1998,2003,2009,2013,
            Gaussian, Inc.  All Rights Reserved.
  
 This is part of the Gaussian(R) 09 program.  It is based on
 the Gaussian(R) 03 system (copyright 2003, Gaussian, Inc.),
 the Gaussian(R) 98 system (copyright 1998, Gaussian, Inc.),
 the Gaussian(R) 94 system (copyright 1995, Gaussian, Inc.),
 the Gaussian 92(TM) system (copyright 1992, Gaussian, Inc.),
 the Gaussian 90(TM) system (copyright 1990, Gaussian, Inc.),
 the Gaussian 88(TM) system (copyright 1988, Gaussian, Inc.),
 the Gaussian 86(TM) system (copyright 1986, Carnegie Mellon
 University), and the Gaussian 82(TM) system (copyright 1983,
 Carnegie Mellon University). Gaussian is a federally registered
 trademark of Gaussian, Inc.
  
 This software contains proprietary and confidential information,
 including trade secrets, belonging to Gaussian, Inc.
  
 This software is provided under written license and may be
 used, copied, transmitted, or stored only in accord with that
 written license.
  
 The following legend is applicable only to US Government
 contracts under FAR:
  
                    RESTRICTED RIGHTS LEGEND
  
 Use, reproduction and disclosure by the US Government is
 subject to restrictions as set forth in subparagraphs (a)
 and (c) of the Commercial Computer Software - Restricted
 Rights clause in FAR 52.227-19.
  
 Gaussian, Inc.
 340 Quinnipiac St., Bldg. 40, Wallingford CT 06492
  
  
 ---------------------------------------------------------------
 Warning -- This program may not be used in any manner that
 competes with the business of Gaussian, Inc. or will provide
 assistance to any competitor of Gaussian, Inc.  The licensee
 of this program is prohibited from giving any competitor of
 Gaussian, Inc. access to this program.  By using this program,
 the user acknowledges that Gaussian, Inc. is engaged in the
 business of creating and licensing software in the field of
 computational chemistry and represents and warrants to the
 licensee that it is not a competitor of Gaussian, Inc. and that
 it will not use this program in any manner prohibited above.
 ---------------------------------------------------------------
  

 Cite this work as:
 Gaussian 09, Revision D.01,
 M. J. Frisch, G. W. Trucks, H. B. Schlegel, G. E. Scuseria, 
 M. A. Robb, J. R. Cheeseman, G. Scalmani, V. Barone, B. Mennucci, 
 G. A. Petersson, H. Nakatsuji, M. Caricato, X. Li, H. P. Hratchian, 
 A. F. Izmaylov, J. Bloino, G. Zheng, J. L. Sonnenberg, M. Hada, 
 M. Ehara, K. Toyota, R. Fukuda, J. Hasegawa, M. Ishida, T. Nakajima, 
 Y. Honda, O. Kitao, H. Nakai, T. Vreven, J. A. Montgomery, Jr., 
 J. E. Peralta, F. Ogliaro, M. Bearpark, J. J. Heyd, E. Brothers, 
 K. N. Kudin, V. N. Staroverov, T. Keith, R. Kobayashi, J. Normand, 
 K. Raghavachari, A. Rendell, J. C. Burant, S. S. Iyengar, J. Tomasi, 
 M. Cossi, N. Rega, J. M. Millam, M. Klene, J. E. Knox, J. B. Cross, 
 V. Bakken, C. Adamo, J. Jaramillo, R. Gomperts, R. E. Stratmann, 
 O. Yazyev, A. J. Austin, R. Cammi, C. Pomelli, J. W. Ochterski, 
 R. L. Martin, K. Morokuma, V. G. Zakrzewski, G. A. Voth, 
 P. Salvador, J. J. Dannenberg, S. Dapprich, A. D. Daniels, 
 O. Farkas, J. B. Foresman, J. V. Ortiz, J. Cioslowski, 
 and D. J. Fox, Gaussian, Inc., Wallingford CT, 2013.
 
 ******************************************
 Gaussian 09:  EM64L-G09RevD.01 24-Apr-2013
                26-Apr-2017 
 ******************************************
 %Mem=256MB
 %NProc=12
 Will use up to   12 processors via shared memory.
 ----------------------------------------------------------------------
 #P HF/6-31G* SCF(Conver=6) NoSymm Test Pop=mk IOp(6/33=2) GFInput GFPr
 int
 ----------------------------------------------------------------------
 1/38=1/1;
 2/12=2,15=1,17=6,18=5,40=1/2;
 3/5=1,6=6,7=1,11=9,16=1,24=110,25=1,30=1/1,2,3;
 4//1;
 5/5=2,6=6,38=5/2;
 6/7=2,8=2,9=2,10=2,15=8,20=1,28=1,33=2/1,2;
 99/5=1,9=1/99;
 Leave Link    1 at Wed Apr 26 14:54:45 2017, MaxMem=    33554432 cpu:         0.9
 (Enter /home/michal/g09/l101.exe)
 ----------------------------------------------
 MEP - Input generated by R.E.D.-III.x MOLECULE
 ----------------------------------------------
 Symbolic Z-matrix:
 Charge =  0 Multiplicity = 1
 C                     7.50746   2.15102  -0.04972 
 H                     7.40184   2.07105   1.03918 
 C                     6.75634   0.9834   -0.70895 
 H                     7.14583   0.03356  -0.32963 
 H                     6.98029   1.00779  -1.78709 
 C                     5.25684   1.06171  -0.48841 
 C                     4.57501   2.38664  -0.85221 
 C                     5.40972   3.54915  -0.23113 
 H                     5.25924   3.53539   0.85695 
 H                     5.01662   4.50769  -0.5868 
 C                     6.91898   3.48404  -0.5118 
 H                     7.1168    3.61044  -1.58653 
 H                     7.43134   4.30654   0. 
 C                     4.59707   0.        0. 
 H                     5.1532   -0.90534   0.23621 
 C                     3.11881  -0.04395   0.25924 
 H                     2.70737  -1.0091   -0.06234 
 C                     2.36034   1.10189  -0.43486 
 H                     2.3436    0.82836  -1.49929 
 C                     3.12226   2.44206  -0.26062 
 H                     3.24136   2.57764   0.82438 
 C                     2.29715   3.64496  -0.77642 
 H                     2.2845    3.64715  -1.8711 
 H                     2.78901   4.57865  -0.48011 
 C                     0.8382    3.68063  -0.27684 
 H                     0.8244    3.83586   0.81136 
 H                     0.34498   4.55057  -0.72152 
 C                     0.09134   2.36867  -0.59571 
 C                     0.91468   1.2297    0.06901 
 H                     0.98185   1.5046    1.13061 
 C                     0.        0.        0. 
 H                     0.2493   -0.73924   0.76626 
 H                     0.08892  -0.50092  -0.97254 
 C                    -1.42182   0.59506   0.19179 
 H                    -2.10341   0.23697  -0.58911 
 H                    -1.85448   0.28192   1.14636 
 C                    -1.28728   2.15531   0.12321 
 H                    -1.15443   2.52888   1.15094 
 C                    -0.06719   2.1799   -2.12161 
 H                     0.89406   2.10684  -2.63693 
 H                    -0.63188   1.27451  -2.36386 
 H                    -0.60435   3.02596  -2.56298 
 C                    -2.56265   2.83806  -0.43807 
 H                    -2.74135   2.42889  -1.4428 
 C                    -2.42979   4.36528  -0.56604 
 H                    -2.17809   4.82048   0.40029 
 H                    -3.36452   4.81787  -0.91035 
 H                    -1.65635   4.65285  -1.28146 
 C                     4.56815   2.51949  -2.39996 
 H                     4.27479   3.52632  -2.71163 
 H                     5.55531   2.32653  -2.82661 
 H                     3.87612   1.80472  -2.85593 
 O                     2.83546   0.07019   1.68123 
 O                     3.32584  -1.13829   2.32684 
 H                     4.0965   -0.79147   2.80615 
 O                     8.91761   2.06616  -0.27057 
 H                     9.08916   2.15567  -1.21858 
 C                    -3.78304   2.47365   0.44602 
 H                    -3.83074   1.38575   0.56089 
 H                    -3.60461   2.8721    1.45597 
 C                    -5.16217   2.9737   -0.02935 
 H                    -5.90633   2.65906   0.71345 
 H                    -5.18761   4.07017  -0.01335 
 C                    -5.60719   2.50432  -1.42757 
 H                    -4.91822   2.90879  -2.18155 
 H                    -6.58609   2.956    -1.64705 
 C                    -5.72195   0.98008  -1.64168 
 H                    -4.74175   0.52791  -1.43247 
 C                    -6.74918   0.33013  -0.70099 
 H                    -7.74562   0.76523  -0.853 
 H                    -6.82538  -0.74685  -0.88914 
 H                    -6.48565   0.46164   0.35337 
 C                    -6.06585   0.67439  -3.10842 
 H                    -7.04193   1.09827  -3.37753 
 H                    -6.11148  -0.40543  -3.29051 
 H                    -5.32014   1.09855  -3.79079 
 
 NAtoms=     76 NQM=       76 NQMF=       0 NMMI=      0 NMMIF=      0
                NMic=       0 NMicF=      0.
                    Isotopes and Nuclear Properties:
 (Nuclear quadrupole moments (NQMom) in fm**2, nuclear magnetic moments (NMagM)
  in nuclear magnetons)

  Atom         1           2           3           4           5           6           7           8           9          10
 IAtWgt=          12           1          12           1           1          12          12          12           1           1
 AtmWgt=  12.0000000   1.0078250  12.0000000   1.0078250   1.0078250  12.0000000  12.0000000  12.0000000   1.0078250   1.0078250
 NucSpn=           0           1           0           1           1           0           0           0           1           1
 AtZEff=   0.0000000   0.0000000   0.0000000   0.0000000   0.0000000   0.0000000   0.0000000   0.0000000   0.0000000   0.0000000
 NQMom=    0.0000000   0.0000000   0.0000000   0.0000000   0.0000000   0.0000000   0.0000000   0.0000000   0.0000000   0.0000000
 NMagM=    0.0000000   2.7928460   0.0000000   2.7928460   2.7928460   0.0000000   0.0000000   0.0000000   2.7928460   2.7928460
 AtZNuc=   6.0000000   1.0000000   6.0000000   1.0000000   1.0000000   6.0000000   6.0000000   6.0000000   1.0000000   1.0000000

  Atom        11          12          13          14          15          16          17          18          19          20
 IAtWgt=          12           1           1          12           1          12           1          12           1          12
 AtmWgt=  12.0000000   1.0078250   1.0078250  12.0000000   1.0078250  12.0000000   1.0078250  12.0000000   1.0078250  12.0000000
 NucSpn=           0           1           1           0           1           0           1           0           1           0
 AtZEff=   0.0000000   0.0000000   0.0000000   0.0000000   0.0000000   0.0000000   0.0000000   0.0000000   0.0000000   0.0000000
 NQMom=    0.0000000   0.0000000   0.0000000   0.0000000   0.0000000   0.0000000   0.0000000   0.0000000   0.0000000   0.0000000
 NMagM=    0.0000000   2.7928460   2.7928460   0.0000000   2.7928460   0.0000000   2.7928460   0.0000000   2.7928460   0.0000000
 AtZNuc=   6.0000000   1.0000000   1.0000000   6.0000000   1.0000000   6.0000000   1.0000000   6.0000000   1.0000000   6.0000000

  Atom        21          22          23          24          25          26          27          28          29          30
 IAtWgt=           1          12           1           1          12           1           1          12          12           1
 AtmWgt=   1.0078250  12.0000000   1.0078250   1.0078250  12.0000000   1.0078250   1.0078250  12.0000000  12.0000000   1.0078250
 NucSpn=           1           0           1           1           0           1           1           0           0           1
 AtZEff=   0.0000000   0.0000000   0.0000000   0.0000000   0.0000000   0.0000000   0.0000000   0.0000000   0.0000000   0.0000000
 NQMom=    0.0000000   0.0000000   0.0000000   0.0000000   0.0000000   0.0000000   0.0000000   0.0000000   0.0000000   0.0000000
 NMagM=    2.7928460   0.0000000   2.7928460   2.7928460   0.0000000   2.7928460   2.7928460   0.0000000   0.0000000   2.7928460
 AtZNuc=   1.0000000   6.0000000   1.0000000   1.0000000   6.0000000   1.0000000   1.0000000   6.0000000   6.0000000   1.0000000

  Atom        31          32          33          34          35          36          37          38          39          40
 IAtWgt=          12           1           1          12           1           1          12           1          12           1
 AtmWgt=  12.0000000   1.0078250   1.0078250  12.0000000   1.0078250   1.0078250  12.0000000   1.0078250  12.0000000   1.0078250
 NucSpn=           0           1           1           0           1           1           0           1           0           1
 AtZEff=   0.0000000   0.0000000   0.0000000   0.0000000   0.0000000   0.0000000   0.0000000   0.0000000   0.0000000   0.0000000
 NQMom=    0.0000000   0.0000000   0.0000000   0.0000000   0.0000000   0.0000000   0.0000000   0.0000000   0.0000000   0.0000000
 NMagM=    0.0000000   2.7928460   2.7928460   0.0000000   2.7928460   2.7928460   0.0000000   2.7928460   0.0000000   2.7928460
 AtZNuc=   6.0000000   1.0000000   1.0000000   6.0000000   1.0000000   1.0000000   6.0000000   1.0000000   6.0000000   1.0000000

  Atom        41          42          43          44          45          46          47          48          49          50
 IAtWgt=           1           1          12           1          12           1           1           1          12           1
 AtmWgt=   1.0078250   1.0078250  12.0000000   1.0078250  12.0000000   1.0078250   1.0078250   1.0078250  12.0000000   1.0078250
 NucSpn=           1           1           0           1           0           1           1           1           0           1
 AtZEff=   0.0000000   0.0000000   0.0000000   0.0000000   0.0000000   0.0000000   0.0000000   0.0000000   0.0000000   0.0000000
 NQMom=    0.0000000   0.0000000   0.0000000   0.0000000   0.0000000   0.0000000   0.0000000   0.0000000   0.0000000   0.0000000
 NMagM=    2.7928460   2.7928460   0.0000000   2.7928460   0.0000000   2.7928460   2.7928460   2.7928460   0.0000000   2.7928460
 AtZNuc=   1.0000000   1.0000000   6.0000000   1.0000000   6.0000000   1.0000000   1.0000000   1.0000000   6.0000000   1.0000000

  Atom        51          52          53          54          55          56          57          58          59          60
 IAtWgt=           1           1          16          16           1          16           1          12           1           1
 AtmWgt=   1.0078250   1.0078250  15.9949146  15.9949146   1.0078250  15.9949146   1.0078250  12.0000000   1.0078250   1.0078250
 NucSpn=           1           1           0           0           1           0           1           0           1           1
 AtZEff=   0.0000000   0.0000000   0.0000000   0.0000000   0.0000000   0.0000000   0.0000000   0.0000000   0.0000000   0.0000000
 NQMom=    0.0000000   0.0000000   0.0000000   0.0000000   0.0000000   0.0000000   0.0000000   0.0000000   0.0000000   0.0000000
 NMagM=    2.7928460   2.7928460   0.0000000   0.0000000   2.7928460   0.0000000   2.7928460   0.0000000   2.7928460   2.7928460
 AtZNuc=   1.0000000   1.0000000   8.0000000   8.0000000   1.0000000   8.0000000   1.0000000   6.0000000   1.0000000   1.0000000

  Atom        61          62          63          64          65          66          67          68          69          70
 IAtWgt=          12           1           1          12           1           1          12           1          12           1
 AtmWgt=  12.0000000   1.0078250   1.0078250  12.0000000   1.0078250   1.0078250  12.0000000   1.0078250  12.0000000   1.0078250
 NucSpn=           0           1           1           0           1           1           0           1           0           1
 AtZEff=   0.0000000   0.0000000   0.0000000   0.0000000   0.0000000   0.0000000   0.0000000   0.0000000   0.0000000   0.0000000
 NQMom=    0.0000000   0.0000000   0.0000000   0.0000000   0.0000000   0.0000000   0.0000000   0.0000000   0.0000000   0.0000000
 NMagM=    0.0000000   2.7928460   2.7928460   0.0000000   2.7928460   2.7928460   0.0000000   2.7928460   0.0000000   2.7928460
 AtZNuc=   6.0000000   1.0000000   1.0000000   6.0000000   1.0000000   1.0000000   6.0000000   1.0000000   6.0000000   1.0000000

  Atom        71          72          73          74          75          76
 IAtWgt=           1           1          12           1           1           1
 AtmWgt=   1.0078250   1.0078250  12.0000000   1.0078250   1.0078250   1.0078250
 NucSpn=           1           1           0           1           1           1
 AtZEff=   0.0000000   0.0000000   0.0000000   0.0000000   0.0000000   0.0000000
 NQMom=    0.0000000   0.0000000   0.0000000   0.0000000   0.0000000   0.0000000
 NMagM=    2.7928460   2.7928460   0.0000000   2.7928460   2.7928460   2.7928460
 AtZNuc=   1.0000000   1.0000000   6.0000000   1.0000000   1.0000000   1.0000000
 Leave Link  101 at Wed Apr 26 14:54:45 2017, MaxMem=    33554432 cpu:         1.0
 (Enter /home/michal/g09/l202.exe)
 Symmetry turned off by external request.
 Stoichiometry    C27H46O3
 Framework group  C1[X(C27H46O3)]
 Deg. of freedom   222
 Full point group                 C1      NOp   1
                          Input orientation:                          
 ---------------------------------------------------------------------
 Center     Atomic      Atomic             Coordinates (Angstroms)
 Number     Number       Type             X           Y           Z
 ---------------------------------------------------------------------
      1          6           0        7.507461    2.151022   -0.049724
      2          1           0        7.401835    2.071047    1.039178
      3          6           0        6.756337    0.983404   -0.708948
      4          1           0        7.145828    0.033560   -0.329634
      5          1           0        6.980286    1.007790   -1.787085
      6          6           0        5.256843    1.061709   -0.488406
      7          6           0        4.575007    2.386639   -0.852211
      8          6           0        5.409721    3.549147   -0.231129
      9          1           0        5.259240    3.535390    0.856952
     10          1           0        5.016625    4.507690   -0.586803
     11          6           0        6.918978    3.484043   -0.511803
     12          1           0        7.116804    3.610444   -1.586534
     13          1           0        7.431340    4.306538    0.000000
     14          6           0        4.597069    0.000000    0.000000
     15          1           0        5.153199   -0.905345    0.236215
     16          6           0        3.118811   -0.043951    0.259242
     17          1           0        2.707369   -1.009095   -0.062344
     18          6           0        2.360342    1.101895   -0.434861
     19          1           0        2.343596    0.828355   -1.499295
     20          6           0        3.122263    2.442057   -0.260621
     21          1           0        3.241356    2.577636    0.824379
     22          6           0        2.297155    3.644962   -0.776421
     23          1           0        2.284496    3.647146   -1.871101
     24          1           0        2.789008    4.578653   -0.480114
     25          6           0        0.838200    3.680635   -0.276837
     26          1           0        0.824402    3.835860    0.811362
     27          1           0        0.344980    4.550572   -0.721517
     28          6           0        0.091345    2.368672   -0.595712
     29          6           0        0.914677    1.229697    0.069006
     30          1           0        0.981852    1.504598    1.130611
     31          6           0        0.000000    0.000000    0.000000
     32          1           0        0.249298   -0.739242    0.766261
     33          1           0        0.088921   -0.500923   -0.972539
     34          6           0       -1.421820    0.595060    0.191785
     35          1           0       -2.103408    0.236965   -0.589112
     36          1           0       -1.854475    0.281922    1.146364
     37          6           0       -1.287275    2.155307    0.123212
     38          1           0       -1.154428    2.528882    1.150944
     39          6           0       -0.067191    2.179904   -2.121613
     40          1           0        0.894064    2.106842   -2.636927
     41          1           0       -0.631878    1.274509   -2.363861
     42          1           0       -0.604350    3.025957   -2.562980
     43          6           0       -2.562649    2.838065   -0.438065
     44          1           0       -2.741352    2.428887   -1.442801
     45          6           0       -2.429787    4.365281   -0.566044
     46          1           0       -2.178088    4.820485    0.400295
     47          1           0       -3.364522    4.817874   -0.910353
     48          1           0       -1.656350    4.652850   -1.281461
     49          6           0        4.568147    2.519486   -2.399958
     50          1           0        4.274789    3.526319   -2.711630
     51          1           0        5.555313    2.326535   -2.826609
     52          1           0        3.876115    1.804724   -2.855934
     53          8           0        2.835456    0.070195    1.681230
     54          8           0        3.325838   -1.138289    2.326840
     55          1           0        4.096496   -0.791466    2.806151
     56          8           0        8.917609    2.066157   -0.270573
     57          1           0        9.089160    2.155672   -1.218582
     58          6           0       -3.783038    2.473646    0.446019
     59          1           0       -3.830743    1.385747    0.560894
     60          1           0       -3.604612    2.872104    1.455969
     61          6           0       -5.162174    2.973698   -0.029345
     62          1           0       -5.906329    2.659057    0.713454
     63          1           0       -5.187611    4.070172   -0.013349
     64          6           0       -5.607193    2.504323   -1.427570
     65          1           0       -4.918220    2.908787   -2.181546
     66          1           0       -6.586086    2.956000   -1.647046
     67          6           0       -5.721952    0.980079   -1.641683
     68          1           0       -4.741747    0.527909   -1.432468
     69          6           0       -6.749176    0.330134   -0.700995
     70          1           0       -7.745618    0.765233   -0.852996
     71          1           0       -6.825377   -0.746847   -0.889141
     72          1           0       -6.485647    0.461642    0.353375
     73          6           0       -6.065851    0.674391   -3.108419
     74          1           0       -7.041929    1.098269   -3.377526
     75          1           0       -6.111475   -0.405432   -3.290507
     76          1           0       -5.320136    1.098548   -3.790788
 ---------------------------------------------------------------------
 Rotational constants (GHZ):      0.3757819      0.0586828      0.0552125
 Leave Link  202 at Wed Apr 26 14:54:45 2017, MaxMem=    33554432 cpu:         0.1
 (Enter /home/michal/g09/l301.exe)
 Standard basis: 6-31G(d) (6D, 7F)
 Ernie: Thresh=  0.10000D-02 Tol=  0.10000D-05 Strict=F.
 AO basis set in the form of general basis input (Overlap normalization):
      1 0
 S   6 1.00       0.000000000000
      0.3047524880D+04  0.1834737132D-02
      0.4573695180D+03  0.1403732281D-01
      0.1039486850D+03  0.6884262226D-01
      0.2921015530D+02  0.2321844432D+00
      0.9286662960D+01  0.4679413484D+00
      0.3163926960D+01  0.3623119853D+00
 SP   3 1.00       0.000000000000
      0.7868272350D+01 -0.1193324198D+00  0.6899906659D-01
      0.1881288540D+01 -0.1608541517D+00  0.3164239610D+00
      0.5442492580D+00  0.1143456438D+01  0.7443082909D+00
 SP   1 1.00       0.000000000000
      0.1687144782D+00  0.1000000000D+01  0.1000000000D+01
 D   1 1.00       0.000000000000
      0.8000000000D+00  0.1000000000D+01
 ****
      2 0
 S   3 1.00       0.000000000000
      0.1873113696D+02  0.3349460434D-01
      0.2825394365D+01  0.2347269535D+00
      0.6401216923D+00  0.8137573261D+00
 S   1 1.00       0.000000000000
      0.1612777588D+00  0.1000000000D+01
 ****
      3 0
 S   6 1.00       0.000000000000
      0.3047524880D+04  0.1834737132D-02
      0.4573695180D+03  0.1403732281D-01
      0.1039486850D+03  0.6884262226D-01
      0.2921015530D+02  0.2321844432D+00
      0.9286662960D+01  0.4679413484D+00
      0.3163926960D+01  0.3623119853D+00
 SP   3 1.00       0.000000000000
      0.7868272350D+01 -0.1193324198D+00  0.6899906659D-01
      0.1881288540D+01 -0.1608541517D+00  0.3164239610D+00
      0.5442492580D+00  0.1143456438D+01  0.7443082909D+00
 SP   1 1.00       0.000000000000
      0.1687144782D+00  0.1000000000D+01  0.1000000000D+01
 D   1 1.00       0.000000000000
      0.8000000000D+00  0.1000000000D+01
 ****
      4 0
 S   3 1.00       0.000000000000
      0.1873113696D+02  0.3349460434D-01
      0.2825394365D+01  0.2347269535D+00
      0.6401216923D+00  0.8137573261D+00
 S   1 1.00       0.000000000000
      0.1612777588D+00  0.1000000000D+01
 ****
      5 0
 S   3 1.00       0.000000000000
      0.1873113696D+02  0.3349460434D-01
      0.2825394365D+01  0.2347269535D+00
      0.6401216923D+00  0.8137573261D+00
 S   1 1.00       0.000000000000
      0.1612777588D+00  0.1000000000D+01
 ****
      6 0
 S   6 1.00       0.000000000000
      0.3047524880D+04  0.1834737132D-02
      0.4573695180D+03  0.1403732281D-01
      0.1039486850D+03  0.6884262226D-01
      0.2921015530D+02  0.2321844432D+00
      0.9286662960D+01  0.4679413484D+00
      0.3163926960D+01  0.3623119853D+00
 SP   3 1.00       0.000000000000
      0.7868272350D+01 -0.1193324198D+00  0.6899906659D-01
      0.1881288540D+01 -0.1608541517D+00  0.3164239610D+00
      0.5442492580D+00  0.1143456438D+01  0.7443082909D+00
 SP   1 1.00       0.000000000000
      0.1687144782D+00  0.1000000000D+01  0.1000000000D+01
 D   1 1.00       0.000000000000
      0.8000000000D+00  0.1000000000D+01
 ****
      7 0
 S   6 1.00       0.000000000000
      0.3047524880D+04  0.1834737132D-02
      0.4573695180D+03  0.1403732281D-01
      0.1039486850D+03  0.6884262226D-01
      0.2921015530D+02  0.2321844432D+00
      0.9286662960D+01  0.4679413484D+00
      0.3163926960D+01  0.3623119853D+00
 SP   3 1.00       0.000000000000
      0.7868272350D+01 -0.1193324198D+00  0.6899906659D-01
      0.1881288540D+01 -0.1608541517D+00  0.3164239610D+00
      0.5442492580D+00  0.1143456438D+01  0.7443082909D+00
 SP   1 1.00       0.000000000000
      0.1687144782D+00  0.1000000000D+01  0.1000000000D+01
 D   1 1.00       0.000000000000
      0.8000000000D+00  0.1000000000D+01
 ****
      8 0
 S   6 1.00       0.000000000000
      0.3047524880D+04  0.1834737132D-02
      0.4573695180D+03  0.1403732281D-01
      0.1039486850D+03  0.6884262226D-01
      0.2921015530D+02  0.2321844432D+00
      0.9286662960D+01  0.4679413484D+00
      0.3163926960D+01  0.3623119853D+00
 SP   3 1.00       0.000000000000
      0.7868272350D+01 -0.1193324198D+00  0.6899906659D-01
      0.1881288540D+01 -0.1608541517D+00  0.3164239610D+00
      0.5442492580D+00  0.1143456438D+01  0.7443082909D+00
 SP   1 1.00       0.000000000000
      0.1687144782D+00  0.1000000000D+01  0.1000000000D+01
 D   1 1.00       0.000000000000
      0.8000000000D+00  0.1000000000D+01
 ****
      9 0
 S   3 1.00       0.000000000000
      0.1873113696D+02  0.3349460434D-01
      0.2825394365D+01  0.2347269535D+00
      0.6401216923D+00  0.8137573261D+00
 S   1 1.00       0.000000000000
      0.1612777588D+00  0.1000000000D+01
 ****
     10 0
 S   3 1.00       0.000000000000
      0.1873113696D+02  0.3349460434D-01
      0.2825394365D+01  0.2347269535D+00
      0.6401216923D+00  0.8137573261D+00
 S   1 1.00       0.000000000000
      0.1612777588D+00  0.1000000000D+01
 ****
     11 0
 S   6 1.00       0.000000000000
      0.3047524880D+04  0.1834737132D-02
      0.4573695180D+03  0.1403732281D-01
      0.1039486850D+03  0.6884262226D-01
      0.2921015530D+02  0.2321844432D+00
      0.9286662960D+01  0.4679413484D+00
      0.3163926960D+01  0.3623119853D+00
 SP   3 1.00       0.000000000000
      0.7868272350D+01 -0.1193324198D+00  0.6899906659D-01
      0.1881288540D+01 -0.1608541517D+00  0.3164239610D+00
      0.5442492580D+00  0.1143456438D+01  0.7443082909D+00
 SP   1 1.00       0.000000000000
      0.1687144782D+00  0.1000000000D+01  0.1000000000D+01
 D   1 1.00       0.000000000000
      0.8000000000D+00  0.1000000000D+01
 ****
     12 0
 S   3 1.00       0.000000000000
      0.1873113696D+02  0.3349460434D-01
      0.2825394365D+01  0.2347269535D+00
      0.6401216923D+00  0.8137573261D+00
 S   1 1.00       0.000000000000
      0.1612777588D+00  0.1000000000D+01
 ****
     13 0
 S   3 1.00       0.000000000000
      0.1873113696D+02  0.3349460434D-01
      0.2825394365D+01  0.2347269535D+00
      0.6401216923D+00  0.8137573261D+00
 S   1 1.00       0.000000000000
      0.1612777588D+00  0.1000000000D+01
 ****
     14 0
 S   6 1.00       0.000000000000
      0.3047524880D+04  0.1834737132D-02
      0.4573695180D+03  0.1403732281D-01
      0.1039486850D+03  0.6884262226D-01
      0.2921015530D+02  0.2321844432D+00
      0.9286662960D+01  0.4679413484D+00
      0.3163926960D+01  0.3623119853D+00
 SP   3 1.00       0.000000000000
      0.7868272350D+01 -0.1193324198D+00  0.6899906659D-01
      0.1881288540D+01 -0.1608541517D+00  0.3164239610D+00
      0.5442492580D+00  0.1143456438D+01  0.7443082909D+00
 SP   1 1.00       0.000000000000
      0.1687144782D+00  0.1000000000D+01  0.1000000000D+01
 D   1 1.00       0.000000000000
      0.8000000000D+00  0.1000000000D+01
 ****
     15 0
 S   3 1.00       0.000000000000
      0.1873113696D+02  0.3349460434D-01
      0.2825394365D+01  0.2347269535D+00
      0.6401216923D+00  0.8137573261D+00
 S   1 1.00       0.000000000000
      0.1612777588D+00  0.1000000000D+01
 ****
     16 0
 S   6 1.00       0.000000000000
      0.3047524880D+04  0.1834737132D-02
      0.4573695180D+03  0.1403732281D-01
      0.1039486850D+03  0.6884262226D-01
      0.2921015530D+02  0.2321844432D+00
      0.9286662960D+01  0.4679413484D+00
      0.3163926960D+01  0.3623119853D+00
 SP   3 1.00       0.000000000000
      0.7868272350D+01 -0.1193324198D+00  0.6899906659D-01
      0.1881288540D+01 -0.1608541517D+00  0.3164239610D+00
      0.5442492580D+00  0.1143456438D+01  0.7443082909D+00
 SP   1 1.00       0.000000000000
      0.1687144782D+00  0.1000000000D+01  0.1000000000D+01
 D   1 1.00       0.000000000000
      0.8000000000D+00  0.1000000000D+01
 ****
     17 0
 S   3 1.00       0.000000000000
      0.1873113696D+02  0.3349460434D-01
      0.2825394365D+01  0.2347269535D+00
      0.6401216923D+00  0.8137573261D+00
 S   1 1.00       0.000000000000
      0.1612777588D+00  0.1000000000D+01
 ****
     18 0
 S   6 1.00       0.000000000000
      0.3047524880D+04  0.1834737132D-02
      0.4573695180D+03  0.1403732281D-01
      0.1039486850D+03  0.6884262226D-01
      0.2921015530D+02  0.2321844432D+00
      0.9286662960D+01  0.4679413484D+00
      0.3163926960D+01  0.3623119853D+00
 SP   3 1.00       0.000000000000
      0.7868272350D+01 -0.1193324198D+00  0.6899906659D-01
      0.1881288540D+01 -0.1608541517D+00  0.3164239610D+00
      0.5442492580D+00  0.1143456438D+01  0.7443082909D+00
 SP   1 1.00       0.000000000000
      0.1687144782D+00  0.1000000000D+01  0.1000000000D+01
 D   1 1.00       0.000000000000
      0.8000000000D+00  0.1000000000D+01
 ****
     19 0
 S   3 1.00       0.000000000000
      0.1873113696D+02  0.3349460434D-01
      0.2825394365D+01  0.2347269535D+00
      0.6401216923D+00  0.8137573261D+00
 S   1 1.00       0.000000000000
      0.1612777588D+00  0.1000000000D+01
 ****
     20 0
 S   6 1.00       0.000000000000
      0.3047524880D+04  0.1834737132D-02
      0.4573695180D+03  0.1403732281D-01
      0.1039486850D+03  0.6884262226D-01
      0.2921015530D+02  0.2321844432D+00
      0.9286662960D+01  0.4679413484D+00
      0.3163926960D+01  0.3623119853D+00
 SP   3 1.00       0.000000000000
      0.7868272350D+01 -0.1193324198D+00  0.6899906659D-01
      0.1881288540D+01 -0.1608541517D+00  0.3164239610D+00
      0.5442492580D+00  0.1143456438D+01  0.7443082909D+00
 SP   1 1.00       0.000000000000
      0.1687144782D+00  0.1000000000D+01  0.1000000000D+01
 D   1 1.00       0.000000000000
      0.8000000000D+00  0.1000000000D+01
 ****
     21 0
 S   3 1.00       0.000000000000
      0.1873113696D+02  0.3349460434D-01
      0.2825394365D+01  0.2347269535D+00
      0.6401216923D+00  0.8137573261D+00
 S   1 1.00       0.000000000000
      0.1612777588D+00  0.1000000000D+01
 ****
     22 0
 S   6 1.00       0.000000000000
      0.3047524880D+04  0.1834737132D-02
      0.4573695180D+03  0.1403732281D-01
      0.1039486850D+03  0.6884262226D-01
      0.2921015530D+02  0.2321844432D+00
      0.9286662960D+01  0.4679413484D+00
      0.3163926960D+01  0.3623119853D+00
 SP   3 1.00       0.000000000000
      0.7868272350D+01 -0.1193324198D+00  0.6899906659D-01
      0.1881288540D+01 -0.1608541517D+00  0.3164239610D+00
      0.5442492580D+00  0.1143456438D+01  0.7443082909D+00
 SP   1 1.00       0.000000000000
      0.1687144782D+00  0.1000000000D+01  0.1000000000D+01
 D   1 1.00       0.000000000000
      0.8000000000D+00  0.1000000000D+01
 ****
     23 0
 S   3 1.00       0.000000000000
      0.1873113696D+02  0.3349460434D-01
      0.2825394365D+01  0.2347269535D+00
      0.6401216923D+00  0.8137573261D+00
 S   1 1.00       0.000000000000
      0.1612777588D+00  0.1000000000D+01
 ****
     24 0
 S   3 1.00       0.000000000000
      0.1873113696D+02  0.3349460434D-01
      0.2825394365D+01  0.2347269535D+00
      0.6401216923D+00  0.8137573261D+00
 S   1 1.00       0.000000000000
      0.1612777588D+00  0.1000000000D+01
 ****
     25 0
 S   6 1.00       0.000000000000
      0.3047524880D+04  0.1834737132D-02
      0.4573695180D+03  0.1403732281D-01
      0.1039486850D+03  0.6884262226D-01
      0.2921015530D+02  0.2321844432D+00
      0.9286662960D+01  0.4679413484D+00
      0.3163926960D+01  0.3623119853D+00
 SP   3 1.00       0.000000000000
      0.7868272350D+01 -0.1193324198D+00  0.6899906659D-01
      0.1881288540D+01 -0.1608541517D+00  0.3164239610D+00
      0.5442492580D+00  0.1143456438D+01  0.7443082909D+00
 SP   1 1.00       0.000000000000
      0.1687144782D+00  0.1000000000D+01  0.1000000000D+01
 D   1 1.00       0.000000000000
      0.8000000000D+00  0.1000000000D+01
 ****
     26 0
 S   3 1.00       0.000000000000
      0.1873113696D+02  0.3349460434D-01
      0.2825394365D+01  0.2347269535D+00
      0.6401216923D+00  0.8137573261D+00
 S   1 1.00       0.000000000000
      0.1612777588D+00  0.1000000000D+01
 ****
     27 0
 S   3 1.00       0.000000000000
      0.1873113696D+02  0.3349460434D-01
      0.2825394365D+01  0.2347269535D+00
      0.6401216923D+00  0.8137573261D+00
 S   1 1.00       0.000000000000
      0.1612777588D+00  0.1000000000D+01
 ****
     28 0
 S   6 1.00       0.000000000000
      0.3047524880D+04  0.1834737132D-02
      0.4573695180D+03  0.1403732281D-01
      0.1039486850D+03  0.6884262226D-01
      0.2921015530D+02  0.2321844432D+00
      0.9286662960D+01  0.4679413484D+00
      0.3163926960D+01  0.3623119853D+00
 SP   3 1.00       0.000000000000
      0.7868272350D+01 -0.1193324198D+00  0.6899906659D-01
      0.1881288540D+01 -0.1608541517D+00  0.3164239610D+00
      0.5442492580D+00  0.1143456438D+01  0.7443082909D+00
 SP   1 1.00       0.000000000000
      0.1687144782D+00  0.1000000000D+01  0.1000000000D+01
 D   1 1.00       0.000000000000
      0.8000000000D+00  0.1000000000D+01
 ****
     29 0
 S   6 1.00       0.000000000000
      0.3047524880D+04  0.1834737132D-02
      0.4573695180D+03  0.1403732281D-01
      0.1039486850D+03  0.6884262226D-01
      0.2921015530D+02  0.2321844432D+00
      0.9286662960D+01  0.4679413484D+00
      0.3163926960D+01  0.3623119853D+00
 SP   3 1.00       0.000000000000
      0.7868272350D+01 -0.1193324198D+00  0.6899906659D-01
      0.1881288540D+01 -0.1608541517D+00  0.3164239610D+00
      0.5442492580D+00  0.1143456438D+01  0.7443082909D+00
 SP   1 1.00       0.000000000000
      0.1687144782D+00  0.1000000000D+01  0.1000000000D+01
 D   1 1.00       0.000000000000
      0.8000000000D+00  0.1000000000D+01
 ****
     30 0
 S   3 1.00       0.000000000000
      0.1873113696D+02  0.3349460434D-01
      0.2825394365D+01  0.2347269535D+00
      0.6401216923D+00  0.8137573261D+00
 S   1 1.00       0.000000000000
      0.1612777588D+00  0.1000000000D+01
 ****
     31 0
 S   6 1.00       0.000000000000
      0.3047524880D+04  0.1834737132D-02
      0.4573695180D+03  0.1403732281D-01
      0.1039486850D+03  0.6884262226D-01
      0.2921015530D+02  0.2321844432D+00
      0.9286662960D+01  0.4679413484D+00
      0.3163926960D+01  0.3623119853D+00
 SP   3 1.00       0.000000000000
      0.7868272350D+01 -0.1193324198D+00  0.6899906659D-01
      0.1881288540D+01 -0.1608541517D+00  0.3164239610D+00
      0.5442492580D+00  0.1143456438D+01  0.7443082909D+00
 SP   1 1.00       0.000000000000
      0.1687144782D+00  0.1000000000D+01  0.1000000000D+01
 D   1 1.00       0.000000000000
      0.8000000000D+00  0.1000000000D+01
 ****
     32 0
 S   3 1.00       0.000000000000
      0.1873113696D+02  0.3349460434D-01
      0.2825394365D+01  0.2347269535D+00
      0.6401216923D+00  0.8137573261D+00
 S   1 1.00       0.000000000000
      0.1612777588D+00  0.1000000000D+01
 ****
     33 0
 S   3 1.00       0.000000000000
      0.1873113696D+02  0.3349460434D-01
      0.2825394365D+01  0.2347269535D+00
      0.6401216923D+00  0.8137573261D+00
 S   1 1.00       0.000000000000
      0.1612777588D+00  0.1000000000D+01
 ****
     34 0
 S   6 1.00       0.000000000000
      0.3047524880D+04  0.1834737132D-02
      0.4573695180D+03  0.1403732281D-01
      0.1039486850D+03  0.6884262226D-01
      0.2921015530D+02  0.2321844432D+00
      0.9286662960D+01  0.4679413484D+00
      0.3163926960D+01  0.3623119853D+00
 SP   3 1.00       0.000000000000
      0.7868272350D+01 -0.1193324198D+00  0.6899906659D-01
      0.1881288540D+01 -0.1608541517D+00  0.3164239610D+00
      0.5442492580D+00  0.1143456438D+01  0.7443082909D+00
 SP   1 1.00       0.000000000000
      0.1687144782D+00  0.1000000000D+01  0.1000000000D+01
 D   1 1.00       0.000000000000
      0.8000000000D+00  0.1000000000D+01
 ****
     35 0
 S   3 1.00       0.000000000000
      0.1873113696D+02  0.3349460434D-01
      0.2825394365D+01  0.2347269535D+00
      0.6401216923D+00  0.8137573261D+00
 S   1 1.00       0.000000000000
      0.1612777588D+00  0.1000000000D+01
 ****
     36 0
 S   3 1.00       0.000000000000
      0.1873113696D+02  0.3349460434D-01
      0.2825394365D+01  0.2347269535D+00
      0.6401216923D+00  0.8137573261D+00
 S   1 1.00       0.000000000000
      0.1612777588D+00  0.1000000000D+01
 ****
     37 0
 S   6 1.00       0.000000000000
      0.3047524880D+04  0.1834737132D-02
      0.4573695180D+03  0.1403732281D-01
      0.1039486850D+03  0.6884262226D-01
      0.2921015530D+02  0.2321844432D+00
      0.9286662960D+01  0.4679413484D+00
      0.3163926960D+01  0.3623119853D+00
 SP   3 1.00       0.000000000000
      0.7868272350D+01 -0.1193324198D+00  0.6899906659D-01
      0.1881288540D+01 -0.1608541517D+00  0.3164239610D+00
      0.5442492580D+00  0.1143456438D+01  0.7443082909D+00
 SP   1 1.00       0.000000000000
      0.1687144782D+00  0.1000000000D+01  0.1000000000D+01
 D   1 1.00       0.000000000000
      0.8000000000D+00  0.1000000000D+01
 ****
     38 0
 S   3 1.00       0.000000000000
      0.1873113696D+02  0.3349460434D-01
      0.2825394365D+01  0.2347269535D+00
      0.6401216923D+00  0.8137573261D+00
 S   1 1.00       0.000000000000
      0.1612777588D+00  0.1000000000D+01
 ****
     39 0
 S   6 1.00       0.000000000000
      0.3047524880D+04  0.1834737132D-02
      0.4573695180D+03  0.1403732281D-01
      0.1039486850D+03  0.6884262226D-01
      0.2921015530D+02  0.2321844432D+00
      0.9286662960D+01  0.4679413484D+00
      0.3163926960D+01  0.3623119853D+00
 SP   3 1.00       0.000000000000
      0.7868272350D+01 -0.1193324198D+00  0.6899906659D-01
      0.1881288540D+01 -0.1608541517D+00  0.3164239610D+00
      0.5442492580D+00  0.1143456438D+01  0.7443082909D+00
 SP   1 1.00       0.000000000000
      0.1687144782D+00  0.1000000000D+01  0.1000000000D+01
 D   1 1.00       0.000000000000
      0.8000000000D+00  0.1000000000D+01
 ****
     40 0
 S   3 1.00       0.000000000000
      0.1873113696D+02  0.3349460434D-01
      0.2825394365D+01  0.2347269535D+00
      0.6401216923D+00  0.8137573261D+00
 S   1 1.00       0.000000000000
      0.1612777588D+00  0.1000000000D+01
 ****
     41 0
 S   3 1.00       0.000000000000
      0.1873113696D+02  0.3349460434D-01
      0.2825394365D+01  0.2347269535D+00
      0.6401216923D+00  0.8137573261D+00
 S   1 1.00       0.000000000000
      0.1612777588D+00  0.1000000000D+01
 ****
     42 0
 S   3 1.00       0.000000000000
      0.1873113696D+02  0.3349460434D-01
      0.2825394365D+01  0.2347269535D+00
      0.6401216923D+00  0.8137573261D+00
 S   1 1.00       0.000000000000
      0.1612777588D+00  0.1000000000D+01
 ****
     43 0
 S   6 1.00       0.000000000000
      0.3047524880D+04  0.1834737132D-02
      0.4573695180D+03  0.1403732281D-01
      0.1039486850D+03  0.6884262226D-01
      0.2921015530D+02  0.2321844432D+00
      0.9286662960D+01  0.4679413484D+00
      0.3163926960D+01  0.3623119853D+00
 SP   3 1.00       0.000000000000
      0.7868272350D+01 -0.1193324198D+00  0.6899906659D-01
      0.1881288540D+01 -0.1608541517D+00  0.3164239610D+00
      0.5442492580D+00  0.1143456438D+01  0.7443082909D+00
 SP   1 1.00       0.000000000000
      0.1687144782D+00  0.1000000000D+01  0.1000000000D+01
 D   1 1.00       0.000000000000
      0.8000000000D+00  0.1000000000D+01
 ****
     44 0
 S   3 1.00       0.000000000000
      0.1873113696D+02  0.3349460434D-01
      0.2825394365D+01  0.2347269535D+00
      0.6401216923D+00  0.8137573261D+00
 S   1 1.00       0.000000000000
      0.1612777588D+00  0.1000000000D+01
 ****
     45 0
 S   6 1.00       0.000000000000
      0.3047524880D+04  0.1834737132D-02
      0.4573695180D+03  0.1403732281D-01
      0.1039486850D+03  0.6884262226D-01
      0.2921015530D+02  0.2321844432D+00
      0.9286662960D+01  0.4679413484D+00
      0.3163926960D+01  0.3623119853D+00
 SP   3 1.00       0.000000000000
      0.7868272350D+01 -0.1193324198D+00  0.6899906659D-01
      0.1881288540D+01 -0.1608541517D+00  0.3164239610D+00
      0.5442492580D+00  0.1143456438D+01  0.7443082909D+00
 SP   1 1.00       0.000000000000
      0.1687144782D+00  0.1000000000D+01  0.1000000000D+01
 D   1 1.00       0.000000000000
      0.8000000000D+00  0.1000000000D+01
 ****
     46 0
 S   3 1.00       0.000000000000
      0.1873113696D+02  0.3349460434D-01
      0.2825394365D+01  0.2347269535D+00
      0.6401216923D+00  0.8137573261D+00
 S   1 1.00       0.000000000000
      0.1612777588D+00  0.1000000000D+01
 ****
     47 0
 S   3 1.00       0.000000000000
      0.1873113696D+02  0.3349460434D-01
      0.2825394365D+01  0.2347269535D+00
      0.6401216923D+00  0.8137573261D+00
 S   1 1.00       0.000000000000
      0.1612777588D+00  0.1000000000D+01
 ****
     48 0
 S   3 1.00       0.000000000000
      0.1873113696D+02  0.3349460434D-01
      0.2825394365D+01  0.2347269535D+00
      0.6401216923D+00  0.8137573261D+00
 S   1 1.00       0.000000000000
      0.1612777588D+00  0.1000000000D+01
 ****
     49 0
 S   6 1.00       0.000000000000
      0.3047524880D+04  0.1834737132D-02
      0.4573695180D+03  0.1403732281D-01
      0.1039486850D+03  0.6884262226D-01
      0.2921015530D+02  0.2321844432D+00
      0.9286662960D+01  0.4679413484D+00
      0.3163926960D+01  0.3623119853D+00
 SP   3 1.00       0.000000000000
      0.7868272350D+01 -0.1193324198D+00  0.6899906659D-01
      0.1881288540D+01 -0.1608541517D+00  0.3164239610D+00
      0.5442492580D+00  0.1143456438D+01  0.7443082909D+00
 SP   1 1.00       0.000000000000
      0.1687144782D+00  0.1000000000D+01  0.1000000000D+01
 D   1 1.00       0.000000000000
      0.8000000000D+00  0.1000000000D+01
 ****
     50 0
 S   3 1.00       0.000000000000
      0.1873113696D+02  0.3349460434D-01
      0.2825394365D+01  0.2347269535D+00
      0.6401216923D+00  0.8137573261D+00
 S   1 1.00       0.000000000000
      0.1612777588D+00  0.1000000000D+01
 ****
     51 0
 S   3 1.00       0.000000000000
      0.1873113696D+02  0.3349460434D-01
      0.2825394365D+01  0.2347269535D+00
      0.6401216923D+00  0.8137573261D+00
 S   1 1.00       0.000000000000
      0.1612777588D+00  0.1000000000D+01
 ****
     52 0
 S   3 1.00       0.000000000000
      0.1873113696D+02  0.3349460434D-01
      0.2825394365D+01  0.2347269535D+00
      0.6401216923D+00  0.8137573261D+00
 S   1 1.00       0.000000000000
      0.1612777588D+00  0.1000000000D+01
 ****
     53 0
 S   6 1.00       0.000000000000
      0.5484671660D+04  0.1831074430D-02
      0.8252349460D+03  0.1395017220D-01
      0.1880469580D+03  0.6844507810D-01
      0.5296450000D+02  0.2327143360D+00
      0.1689757040D+02  0.4701928980D+00
      0.5799635340D+01  0.3585208530D+00
 SP   3 1.00       0.000000000000
      0.1553961625D+02 -0.1107775495D+00  0.7087426823D-01
      0.3599933586D+01 -0.1480262627D+00  0.3397528391D+00
      0.1013761750D+01  0.1130767015D+01  0.7271585773D+00
 SP   1 1.00       0.000000000000
      0.2700058226D+00  0.1000000000D+01  0.1000000000D+01
 D   1 1.00       0.000000000000
      0.8000000000D+00  0.1000000000D+01
 ****
     54 0
 S   6 1.00       0.000000000000
      0.5484671660D+04  0.1831074430D-02
      0.8252349460D+03  0.1395017220D-01
      0.1880469580D+03  0.6844507810D-01
      0.5296450000D+02  0.2327143360D+00
      0.1689757040D+02  0.4701928980D+00
      0.5799635340D+01  0.3585208530D+00
 SP   3 1.00       0.000000000000
      0.1553961625D+02 -0.1107775495D+00  0.7087426823D-01
      0.3599933586D+01 -0.1480262627D+00  0.3397528391D+00
      0.1013761750D+01  0.1130767015D+01  0.7271585773D+00
 SP   1 1.00       0.000000000000
      0.2700058226D+00  0.1000000000D+01  0.1000000000D+01
 D   1 1.00       0.000000000000
      0.8000000000D+00  0.1000000000D+01
 ****
     55 0
 S   3 1.00       0.000000000000
      0.1873113696D+02  0.3349460434D-01
      0.2825394365D+01  0.2347269535D+00
      0.6401216923D+00  0.8137573261D+00
 S   1 1.00       0.000000000000
      0.1612777588D+00  0.1000000000D+01
 ****
     56 0
 S   6 1.00       0.000000000000
      0.5484671660D+04  0.1831074430D-02
      0.8252349460D+03  0.1395017220D-01
      0.1880469580D+03  0.6844507810D-01
      0.5296450000D+02  0.2327143360D+00
      0.1689757040D+02  0.4701928980D+00
      0.5799635340D+01  0.3585208530D+00
 SP   3 1.00       0.000000000000
      0.1553961625D+02 -0.1107775495D+00  0.7087426823D-01
      0.3599933586D+01 -0.1480262627D+00  0.3397528391D+00
      0.1013761750D+01  0.1130767015D+01  0.7271585773D+00
 SP   1 1.00       0.000000000000
      0.2700058226D+00  0.1000000000D+01  0.1000000000D+01
 D   1 1.00       0.000000000000
      0.8000000000D+00  0.1000000000D+01
 ****
     57 0
 S   3 1.00       0.000000000000
      0.1873113696D+02  0.3349460434D-01
      0.2825394365D+01  0.2347269535D+00
      0.6401216923D+00  0.8137573261D+00
 S   1 1.00       0.000000000000
      0.1612777588D+00  0.1000000000D+01
 ****
     58 0
 S   6 1.00       0.000000000000
      0.3047524880D+04  0.1834737132D-02
      0.4573695180D+03  0.1403732281D-01
      0.1039486850D+03  0.6884262226D-01
      0.2921015530D+02  0.2321844432D+00
      0.9286662960D+01  0.4679413484D+00
      0.3163926960D+01  0.3623119853D+00
 SP   3 1.00       0.000000000000
      0.7868272350D+01 -0.1193324198D+00  0.6899906659D-01
      0.1881288540D+01 -0.1608541517D+00  0.3164239610D+00
      0.5442492580D+00  0.1143456438D+01  0.7443082909D+00
 SP   1 1.00       0.000000000000
      0.1687144782D+00  0.1000000000D+01  0.1000000000D+01
 D   1 1.00       0.000000000000
      0.8000000000D+00  0.1000000000D+01
 ****
     59 0
 S   3 1.00       0.000000000000
      0.1873113696D+02  0.3349460434D-01
      0.2825394365D+01  0.2347269535D+00
      0.6401216923D+00  0.8137573261D+00
 S   1 1.00       0.000000000000
      0.1612777588D+00  0.1000000000D+01
 ****
     60 0
 S   3 1.00       0.000000000000
      0.1873113696D+02  0.3349460434D-01
      0.2825394365D+01  0.2347269535D+00
      0.6401216923D+00  0.8137573261D+00
 S   1 1.00       0.000000000000
      0.1612777588D+00  0.1000000000D+01
 ****
     61 0
 S   6 1.00       0.000000000000
      0.3047524880D+04  0.1834737132D-02
      0.4573695180D+03  0.1403732281D-01
      0.1039486850D+03  0.6884262226D-01
      0.2921015530D+02  0.2321844432D+00
      0.9286662960D+01  0.4679413484D+00
      0.3163926960D+01  0.3623119853D+00
 SP   3 1.00       0.000000000000
      0.7868272350D+01 -0.1193324198D+00  0.6899906659D-01
      0.1881288540D+01 -0.1608541517D+00  0.3164239610D+00
      0.5442492580D+00  0.1143456438D+01  0.7443082909D+00
 SP   1 1.00       0.000000000000
      0.1687144782D+00  0.1000000000D+01  0.1000000000D+01
 D   1 1.00       0.000000000000
      0.8000000000D+00  0.1000000000D+01
 ****
     62 0
 S   3 1.00       0.000000000000
      0.1873113696D+02  0.3349460434D-01
      0.2825394365D+01  0.2347269535D+00
      0.6401216923D+00  0.8137573261D+00
 S   1 1.00       0.000000000000
      0.1612777588D+00  0.1000000000D+01
 ****
     63 0
 S   3 1.00       0.000000000000
      0.1873113696D+02  0.3349460434D-01
      0.2825394365D+01  0.2347269535D+00
      0.6401216923D+00  0.8137573261D+00
 S   1 1.00       0.000000000000
      0.1612777588D+00  0.1000000000D+01
 ****
     64 0
 S   6 1.00       0.000000000000
      0.3047524880D+04  0.1834737132D-02
      0.4573695180D+03  0.1403732281D-01
      0.1039486850D+03  0.6884262226D-01
      0.2921015530D+02  0.2321844432D+00
      0.9286662960D+01  0.4679413484D+00
      0.3163926960D+01  0.3623119853D+00
 SP   3 1.00       0.000000000000
      0.7868272350D+01 -0.1193324198D+00  0.6899906659D-01
      0.1881288540D+01 -0.1608541517D+00  0.3164239610D+00
      0.5442492580D+00  0.1143456438D+01  0.7443082909D+00
 SP   1 1.00       0.000000000000
      0.1687144782D+00  0.1000000000D+01  0.1000000000D+01
 D   1 1.00       0.000000000000
      0.8000000000D+00  0.1000000000D+01
 ****
     65 0
 S   3 1.00       0.000000000000
      0.1873113696D+02  0.3349460434D-01
      0.2825394365D+01  0.2347269535D+00
      0.6401216923D+00  0.8137573261D+00
 S   1 1.00       0.000000000000
      0.1612777588D+00  0.1000000000D+01
 ****
     66 0
 S   3 1.00       0.000000000000
      0.1873113696D+02  0.3349460434D-01
      0.2825394365D+01  0.2347269535D+00
      0.6401216923D+00  0.8137573261D+00
 S   1 1.00       0.000000000000
      0.1612777588D+00  0.1000000000D+01
 ****
     67 0
 S   6 1.00       0.000000000000
      0.3047524880D+04  0.1834737132D-02
      0.4573695180D+03  0.1403732281D-01
      0.1039486850D+03  0.6884262226D-01
      0.2921015530D+02  0.2321844432D+00
      0.9286662960D+01  0.4679413484D+00
      0.3163926960D+01  0.3623119853D+00
 SP   3 1.00       0.000000000000
      0.7868272350D+01 -0.1193324198D+00  0.6899906659D-01
      0.1881288540D+01 -0.1608541517D+00  0.3164239610D+00
      0.5442492580D+00  0.1143456438D+01  0.7443082909D+00
 SP   1 1.00       0.000000000000
      0.1687144782D+00  0.1000000000D+01  0.1000000000D+01
 D   1 1.00       0.000000000000
      0.8000000000D+00  0.1000000000D+01
 ****
     68 0
 S   3 1.00       0.000000000000
      0.1873113696D+02  0.3349460434D-01
      0.2825394365D+01  0.2347269535D+00
      0.6401216923D+00  0.8137573261D+00
 S   1 1.00       0.000000000000
      0.1612777588D+00  0.1000000000D+01
 ****
     69 0
 S   6 1.00       0.000000000000
      0.3047524880D+04  0.1834737132D-02
      0.4573695180D+03  0.1403732281D-01
      0.1039486850D+03  0.6884262226D-01
      0.2921015530D+02  0.2321844432D+00
      0.9286662960D+01  0.4679413484D+00
      0.3163926960D+01  0.3623119853D+00
 SP   3 1.00       0.000000000000
      0.7868272350D+01 -0.1193324198D+00  0.6899906659D-01
      0.1881288540D+01 -0.1608541517D+00  0.3164239610D+00
      0.5442492580D+00  0.1143456438D+01  0.7443082909D+00
 SP   1 1.00       0.000000000000
      0.1687144782D+00  0.1000000000D+01  0.1000000000D+01
 D   1 1.00       0.000000000000
      0.8000000000D+00  0.1000000000D+01
 ****
     70 0
 S   3 1.00       0.000000000000
      0.1873113696D+02  0.3349460434D-01
      0.2825394365D+01  0.2347269535D+00
      0.6401216923D+00  0.8137573261D+00
 S   1 1.00       0.000000000000
      0.1612777588D+00  0.1000000000D+01
 ****
     71 0
 S   3 1.00       0.000000000000
      0.1873113696D+02  0.3349460434D-01
      0.2825394365D+01  0.2347269535D+00
      0.6401216923D+00  0.8137573261D+00
 S   1 1.00       0.000000000000
      0.1612777588D+00  0.1000000000D+01
 ****
     72 0
 S   3 1.00       0.000000000000
      0.1873113696D+02  0.3349460434D-01
      0.2825394365D+01  0.2347269535D+00
      0.6401216923D+00  0.8137573261D+00
 S   1 1.00       0.000000000000
      0.1612777588D+00  0.1000000000D+01
 ****
     73 0
 S   6 1.00       0.000000000000
      0.3047524880D+04  0.1834737132D-02
      0.4573695180D+03  0.1403732281D-01
      0.1039486850D+03  0.6884262226D-01
      0.2921015530D+02  0.2321844432D+00
      0.9286662960D+01  0.4679413484D+00
      0.3163926960D+01  0.3623119853D+00
 SP   3 1.00       0.000000000000
      0.7868272350D+01 -0.1193324198D+00  0.6899906659D-01
      0.1881288540D+01 -0.1608541517D+00  0.3164239610D+00
      0.5442492580D+00  0.1143456438D+01  0.7443082909D+00
 SP   1 1.00       0.000000000000
      0.1687144782D+00  0.1000000000D+01  0.1000000000D+01
 D   1 1.00       0.000000000000
      0.8000000000D+00  0.1000000000D+01
 ****
     74 0
 S   3 1.00       0.000000000000
      0.1873113696D+02  0.3349460434D-01
      0.2825394365D+01  0.2347269535D+00
      0.6401216923D+00  0.8137573261D+00
 S   1 1.00       0.000000000000
      0.1612777588D+00  0.1000000000D+01
 ****
     75 0
 S   3 1.00       0.000000000000
      0.1873113696D+02  0.3349460434D-01
      0.2825394365D+01  0.2347269535D+00
      0.6401216923D+00  0.8137573261D+00
 S   1 1.00       0.000000000000
      0.1612777588D+00  0.1000000000D+01
 ****
     76 0
 S   3 1.00       0.000000000000
      0.1873113696D+02  0.3349460434D-01
      0.2825394365D+01  0.2347269535D+00
      0.6401216923D+00  0.8137573261D+00
 S   1 1.00       0.000000000000
      0.1612777588D+00  0.1000000000D+01
 ****

 AO basis set (Overlap normalization):
 Atom C1       Shell     1 S   6     bf    1 -     1         14.187044733094          4.064842296839         -0.093965384738
      0.3047524880D+04  0.1834737132D-02
      0.4573695180D+03  0.1403732281D-01
      0.1039486850D+03  0.6884262226D-01
      0.2921015530D+02  0.2321844432D+00
      0.9286662960D+01  0.4679413484D+00
      0.3163926960D+01  0.3623119853D+00
 Atom C1       Shell     2 SP   3    bf    2 -     5         14.187044733094          4.064842296839         -0.093965384738
      0.7868272350D+01 -0.1193324198D+00  0.6899906659D-01
      0.1881288540D+01 -0.1608541517D+00  0.3164239610D+00
      0.5442492580D+00  0.1143456438D+01  0.7443082909D+00
 Atom C1       Shell     3 SP   1    bf    6 -     9         14.187044733094          4.064842296839         -0.093965384738
      0.1687144782D+00  0.1000000000D+01  0.1000000000D+01
 Atom C1       Shell     4 D   1     bf   10 -    15         14.187044733094          4.064842296839         -0.093965384738
      0.8000000000D+00  0.1000000000D+01
 Atom H2       Shell     5 S   3     bf   16 -    16         13.987441616623          3.913711260389          1.963762239060
      0.1873113696D+02  0.3349460434D-01
      0.2825394365D+01  0.2347269535D+00
      0.6401216923D+00  0.8137573261D+00
 Atom H2       Shell     6 S   1     bf   17 -    17         13.987441616623          3.913711260389          1.963762239060
      0.1612777588D+00  0.1000000000D+01
 Atom C3       Shell     7 S   6     bf   18 -    18         12.767625986770          1.858365163950         -1.339717090025
      0.3047524880D+04  0.1834737132D-02
      0.4573695180D+03  0.1403732281D-01
      0.1039486850D+03  0.6884262226D-01
      0.2921015530D+02  0.2321844432D+00
      0.9286662960D+01  0.4679413484D+00
      0.3163926960D+01  0.3623119853D+00
 Atom C3       Shell     8 SP   3    bf   19 -    22         12.767625986770          1.858365163950         -1.339717090025
      0.7868272350D+01 -0.1193324198D+00  0.6899906659D-01
      0.1881288540D+01 -0.1608541517D+00  0.3164239610D+00
      0.5442492580D+00  0.1143456438D+01  0.7443082909D+00
 Atom C3       Shell     9 SP   1    bf   23 -    26         12.767625986770          1.858365163950         -1.339717090025
      0.1687144782D+00  0.1000000000D+01  0.1000000000D+01
 Atom C3       Shell    10 D   1     bf   27 -    32         12.767625986770          1.858365163950         -1.339717090025
      0.8000000000D+00  0.1000000000D+01
 Atom H4       Shell    11 S   3     bf   33 -    33         13.503657761528          0.063419605862         -0.622917984088
      0.1873113696D+02  0.3349460434D-01
      0.2825394365D+01  0.2347269535D+00
      0.6401216923D+00  0.8137573261D+00
 Atom H4       Shell    12 S   1     bf   34 -    34         13.503657761528          0.063419605862         -0.622917984088
      0.1612777588D+00  0.1000000000D+01
 Atom H5       Shell    13 S   3     bf   35 -    35         13.190828245606          1.904447042769         -3.377101830900
      0.1873113696D+02  0.3349460434D-01
      0.2825394365D+01  0.2347269535D+00
      0.6401216923D+00  0.8137573261D+00
 Atom H5       Shell    14 S   1     bf   36 -    36         13.190828245606          1.904447042769         -3.377101830900
      0.1612777588D+00  0.1000000000D+01
 Atom C6       Shell    15 S   6     bf   37 -    37          9.933994500646          2.006339337306         -0.922954224165
      0.3047524880D+04  0.1834737132D-02
      0.4573695180D+03  0.1403732281D-01
      0.1039486850D+03  0.6884262226D-01
      0.2921015530D+02  0.2321844432D+00
      0.9286662960D+01  0.4679413484D+00
      0.3163926960D+01  0.3623119853D+00
 Atom C6       Shell    16 SP   3    bf   38 -    41          9.933994500646          2.006339337306         -0.922954224165
      0.7868272350D+01 -0.1193324198D+00  0.6899906659D-01
      0.1881288540D+01 -0.1608541517D+00  0.3164239610D+00
      0.5442492580D+00  0.1143456438D+01  0.7443082909D+00
 Atom C6       Shell    17 SP   1    bf   42 -    45          9.933994500646          2.006339337306         -0.922954224165
      0.1687144782D+00  0.1000000000D+01  0.1000000000D+01
 Atom C6       Shell    18 D   1     bf   46 -    51          9.933994500646          2.006339337306         -0.922954224165
      0.8000000000D+00  0.1000000000D+01
 Atom C7       Shell    19 S   6     bf   52 -    52          8.645510059268          4.510094239242         -1.610445510816
      0.3047524880D+04  0.1834737132D-02
      0.4573695180D+03  0.1403732281D-01
      0.1039486850D+03  0.6884262226D-01
      0.2921015530D+02  0.2321844432D+00
      0.9286662960D+01  0.4679413484D+00
      0.3163926960D+01  0.3623119853D+00
 Atom C7       Shell    20 SP   3    bf   53 -    56          8.645510059268          4.510094239242         -1.610445510816
      0.7868272350D+01 -0.1193324198D+00  0.6899906659D-01
      0.1881288540D+01 -0.1608541517D+00  0.3164239610D+00
      0.5442492580D+00  0.1143456438D+01  0.7443082909D+00
 Atom C7       Shell    21 SP   1    bf   57 -    60          8.645510059268          4.510094239242         -1.610445510816
      0.1687144782D+00  0.1000000000D+01  0.1000000000D+01
 Atom C7       Shell    22 D   1     bf   61 -    66          8.645510059268          4.510094239242         -1.610445510816
      0.8000000000D+00  0.1000000000D+01
 Atom C8       Shell    23 S   6     bf   67 -    67         10.222891750033          6.706914890490         -0.436770643649
      0.3047524880D+04  0.1834737132D-02
      0.4573695180D+03  0.1403732281D-01
      0.1039486850D+03  0.6884262226D-01
      0.2921015530D+02  0.2321844432D+00
      0.9286662960D+01  0.4679413484D+00
      0.3163926960D+01  0.3623119853D+00
 Atom C8       Shell    24 SP   3    bf   68 -    71         10.222891750033          6.706914890490         -0.436770643649
      0.7868272350D+01 -0.1193324198D+00  0.6899906659D-01
      0.1881288540D+01 -0.1608541517D+00  0.3164239610D+00
      0.5442492580D+00  0.1143456438D+01  0.7443082909D+00
 Atom C8       Shell    25 SP   1    bf   72 -    75         10.222891750033          6.706914890490         -0.436770643649
      0.1687144782D+00  0.1000000000D+01  0.1000000000D+01
 Atom C8       Shell    26 D   1     bf   76 -    81         10.222891750033          6.706914890490         -0.436770643649
      0.8000000000D+00  0.1000000000D+01
 Atom H9       Shell    27 S   3     bf   82 -    82          9.938522643508          6.680919005223          1.619405137049
      0.1873113696D+02  0.3349460434D-01
      0.2825394365D+01  0.2347269535D+00
      0.6401216923D+00  0.8137573261D+00
 Atom H9       Shell    28 S   1     bf   83 -    83          9.938522643508          6.680919005223          1.619405137049
      0.1612777588D+00  0.1000000000D+01
 Atom H10      Shell    29 S   3     bf   84 -    84          9.480047059031          8.518299554153         -1.108896850572
      0.1873113696D+02  0.3349460434D-01
      0.2825394365D+01  0.2347269535D+00
      0.6401216923D+00  0.8137573261D+00
 Atom H10      Shell    30 S   1     bf   85 -    85          9.480047059031          8.518299554153         -1.108896850572
      0.1612777588D+00  0.1000000000D+01
 Atom C11      Shell    31 S   6     bf   86 -    86         13.074974200865          6.583887842190         -0.967167768551
      0.3047524880D+04  0.1834737132D-02
      0.4573695180D+03  0.1403732281D-01
      0.1039486850D+03  0.6884262226D-01
      0.2921015530D+02  0.2321844432D+00
      0.9286662960D+01  0.4679413484D+00
      0.3163926960D+01  0.3623119853D+00
 Atom C11      Shell    32 SP   3    bf   87 -    90         13.074974200865          6.583887842190         -0.967167768551
      0.7868272350D+01 -0.1193324198D+00  0.6899906659D-01
      0.1881288540D+01 -0.1608541517D+00  0.3164239610D+00
      0.5442492580D+00  0.1143456438D+01  0.7443082909D+00
 Atom C11      Shell    33 SP   1    bf   91 -    94         13.074974200865          6.583887842190         -0.967167768551
      0.1687144782D+00  0.1000000000D+01  0.1000000000D+01
 Atom C11      Shell    34 D   1     bf   95 -   100         13.074974200865          6.583887842190         -0.967167768551
      0.8000000000D+00  0.1000000000D+01
 Atom H12      Shell    35 S   3     bf  101 -   101         13.448811219521          6.822749754511         -2.998114968381
      0.1873113696D+02  0.3349460434D-01
      0.2825394365D+01  0.2347269535D+00
      0.6401216923D+00  0.8137573261D+00
 Atom H12      Shell    36 S   1     bf  102 -   102         13.448811219521          6.822749754511         -2.998114968381
      0.1612777588D+00  0.1000000000D+01
 Atom H13      Shell    37 S   3     bf  103 -   103         14.043198326324          8.138177741016          0.000000000000
      0.1873113696D+02  0.3349460434D-01
      0.2825394365D+01  0.2347269535D+00
      0.6401216923D+00  0.8137573261D+00
 Atom H13      Shell    38 S   1     bf  104 -   104         14.043198326324          8.138177741016          0.000000000000
      0.1612777588D+00  0.1000000000D+01
 Atom C14      Shell    39 S   6     bf  105 -   105          8.687201594054          0.000000000000          0.000000000000
      0.3047524880D+04  0.1834737132D-02
      0.4573695180D+03  0.1403732281D-01
      0.1039486850D+03  0.6884262226D-01
      0.2921015530D+02  0.2321844432D+00
      0.9286662960D+01  0.4679413484D+00
      0.3163926960D+01  0.3623119853D+00
 Atom C14      Shell    40 SP   3    bf  106 -   109          8.687201594054          0.000000000000          0.000000000000
      0.7868272350D+01 -0.1193324198D+00  0.6899906659D-01
      0.1881288540D+01 -0.1608541517D+00  0.3164239610D+00
      0.5442492580D+00  0.1143456438D+01  0.7443082909D+00
 Atom C14      Shell    41 SP   1    bf  110 -   113          8.687201594054          0.000000000000          0.000000000000
      0.1687144782D+00  0.1000000000D+01  0.1000000000D+01
 Atom C14      Shell    42 D   1     bf  114 -   119          8.687201594054          0.000000000000          0.000000000000
      0.8000000000D+00  0.1000000000D+01
 Atom H15      Shell    43 S   3     bf  120 -   120          9.738134553699         -1.710853179812          0.446381110459
      0.1873113696D+02  0.3349460434D-01
      0.2825394365D+01  0.2347269535D+00
      0.6401216923D+00  0.8137573261D+00
 Atom H15      Shell    44 S   1     bf  121 -   121          9.738134553699         -1.710853179812          0.446381110459
      0.1612777588D+00  0.1000000000D+01
 Atom C16      Shell    45 S   6     bf  122 -   122          5.893699028176         -0.083055655623          0.489896930162
      0.3047524880D+04  0.1834737132D-02
      0.4573695180D+03  0.1403732281D-01
      0.1039486850D+03  0.6884262226D-01
      0.2921015530D+02  0.2321844432D+00
      0.9286662960D+01  0.4679413484D+00
      0.3163926960D+01  0.3623119853D+00
 Atom C16      Shell    46 SP   3    bf  123 -   126          5.893699028176         -0.083055655623          0.489896930162
      0.7868272350D+01 -0.1193324198D+00  0.6899906659D-01
      0.1881288540D+01 -0.1608541517D+00  0.3164239610D+00
      0.5442492580D+00  0.1143456438D+01  0.7443082909D+00
 Atom C16      Shell    47 SP   1    bf  127 -   130          5.893699028176         -0.083055655623          0.489896930162
      0.1687144782D+00  0.1000000000D+01  0.1000000000D+01
 Atom C16      Shell    48 D   1     bf  131 -   136          5.893699028176         -0.083055655623          0.489896930162
      0.8000000000D+00  0.1000000000D+01
 Atom H17      Shell    49 S   3     bf  137 -   137          5.116185572719         -1.906914080236         -0.117812349035
      0.1873113696D+02  0.3349460434D-01
      0.2825394365D+01  0.2347269535D+00
      0.6401216923D+00  0.8137573261D+00
 Atom H17      Shell    50 S   1     bf  138 -   138          5.116185572719         -1.906914080236         -0.117812349035
      0.1612777588D+00  0.1000000000D+01
 Atom C18      Shell    51 S   6     bf  139 -   139          4.460399355235          2.082279493737         -0.821767591160
      0.3047524880D+04  0.1834737132D-02
      0.4573695180D+03  0.1403732281D-01
      0.1039486850D+03  0.6884262226D-01
      0.2921015530D+02  0.2321844432D+00
      0.9286662960D+01  0.4679413484D+00
      0.3163926960D+01  0.3623119853D+00
 Atom C18      Shell    52 SP   3    bf  140 -   143          4.460399355235          2.082279493737         -0.821767591160
      0.7868272350D+01 -0.1193324198D+00  0.6899906659D-01
      0.1881288540D+01 -0.1608541517D+00  0.3164239610D+00
      0.5442492580D+00  0.1143456438D+01  0.7443082909D+00
 Atom C18      Shell    53 SP   1    bf  144 -   147          4.460399355235          2.082279493737         -0.821767591160
      0.1687144782D+00  0.1000000000D+01  0.1000000000D+01
 Atom C18      Shell    54 D   1     bf  148 -   153          4.460399355235          2.082279493737         -0.821767591160
      0.8000000000D+00  0.1000000000D+01
 Atom H19      Shell    55 S   3     bf  154 -   154          4.428754549434          1.565364336471         -2.833256035336
      0.1873113696D+02  0.3349460434D-01
      0.2825394365D+01  0.2347269535D+00
      0.6401216923D+00  0.8137573261D+00
 Atom H19      Shell    56 S   1     bf  155 -   155          4.428754549434          1.565364336471         -2.833256035336
      0.1612777588D+00  0.1000000000D+01
 Atom C20      Shell    57 S   6     bf  156 -   156          5.900221739178          4.614818741924         -0.492501558588
      0.3047524880D+04  0.1834737132D-02
      0.4573695180D+03  0.1403732281D-01
      0.1039486850D+03  0.6884262226D-01
      0.2921015530D+02  0.2321844432D+00
      0.9286662960D+01  0.4679413484D+00
      0.3163926960D+01  0.3623119853D+00
 Atom C20      Shell    58 SP   3    bf  157 -   160          5.900221739178          4.614818741924         -0.492501558588
      0.7868272350D+01 -0.1193324198D+00  0.6899906659D-01
      0.1881288540D+01 -0.1608541517D+00  0.3164239610D+00
      0.5442492580D+00  0.1143456438D+01  0.7443082909D+00
 Atom C20      Shell    59 SP   1    bf  161 -   164          5.900221739178          4.614818741924         -0.492501558588
      0.1687144782D+00  0.1000000000D+01  0.1000000000D+01
 Atom C20      Shell    60 D   1     bf  165 -   170          5.900221739178          4.614818741924         -0.492501558588
      0.8000000000D+00  0.1000000000D+01
 Atom H21      Shell    61 S   3     bf  171 -   171          6.125276027357          4.871026847260          1.557851087723
      0.1873113696D+02  0.3349460434D-01
      0.2825394365D+01  0.2347269535D+00
      0.6401216923D+00  0.8137573261D+00
 Atom H21      Shell    62 S   1     bf  172 -   172          6.125276027357          4.871026847260          1.557851087723
      0.1612777588D+00  0.1000000000D+01
 Atom C22      Shell    63 S   6     bf  173 -   173          4.340993494638          6.887979736905         -1.467222732568
      0.3047524880D+04  0.1834737132D-02
      0.4573695180D+03  0.1403732281D-01
      0.1039486850D+03  0.6884262226D-01
      0.2921015530D+02  0.2321844432D+00
      0.9286662960D+01  0.4679413484D+00
      0.3163926960D+01  0.3623119853D+00
 Atom C22      Shell    64 SP   3    bf  174 -   177          4.340993494638          6.887979736905         -1.467222732568
      0.7868272350D+01 -0.1193324198D+00  0.6899906659D-01
      0.1881288540D+01 -0.1608541517D+00  0.3164239610D+00
      0.5442492580D+00  0.1143456438D+01  0.7443082909D+00
 Atom C22      Shell    65 SP   1    bf  178 -   181          4.340993494638          6.887979736905         -1.467222732568
      0.1687144782D+00  0.1000000000D+01  0.1000000000D+01
 Atom C22      Shell    66 D   1     bf  182 -   187          4.340993494638          6.887979736905         -1.467222732568
      0.8000000000D+00  0.1000000000D+01
 Atom H23      Shell    67 S   3     bf  188 -   188          4.317071659392          6.892106747601         -3.535868305790
      0.1873113696D+02  0.3349460434D-01
      0.2825394365D+01  0.2347269535D+00
      0.6401216923D+00  0.8137573261D+00
 Atom H23      Shell    68 S   1     bf  189 -   189          4.317071659392          6.892106747601         -3.535868305790
      0.1612777588D+00  0.1000000000D+01
 Atom H24      Shell    69 S   3     bf  190 -   190          5.270462152804          8.652399358241         -0.907283575722
      0.1873113696D+02  0.3349460434D-01
      0.2825394365D+01  0.2347269535D+00
      0.6401216923D+00  0.8137573261D+00
 Atom H24      Shell    70 S   1     bf  191 -   191          5.270462152804          8.652399358241         -0.907283575722
      0.1612777588D+00  0.1000000000D+01
 Atom C25      Shell    71 S   6     bf  192 -   192          1.583968973708          6.955391332531         -0.523145584326
      0.3047524880D+04  0.1834737132D-02
      0.4573695180D+03  0.1403732281D-01
      0.1039486850D+03  0.6884262226D-01
      0.2921015530D+02  0.2321844432D+00
      0.9286662960D+01  0.4679413484D+00
      0.3163926960D+01  0.3623119853D+00
 Atom C25      Shell    72 SP   3    bf  193 -   196          1.583968973708          6.955391332531         -0.523145584326
      0.7868272350D+01 -0.1193324198D+00  0.6899906659D-01
      0.1881288540D+01 -0.1608541517D+00  0.3164239610D+00
      0.5442492580D+00  0.1143456438D+01  0.7443082909D+00
 Atom C25      Shell    73 SP   1    bf  197 -   200          1.583968973708          6.955391332531         -0.523145584326
      0.1687144782D+00  0.1000000000D+01  0.1000000000D+01
 Atom C25      Shell    74 D   1     bf  201 -   206          1.583968973708          6.955391332531         -0.523145584326
      0.8000000000D+00  0.1000000000D+01
 Atom H26      Shell    75 S   3     bf  207 -   207          1.557894362451          7.248724959680          1.533252239192
      0.1873113696D+02  0.3349460434D-01
      0.2825394365D+01  0.2347269535D+00
      0.6401216923D+00  0.8137573261D+00
 Atom H26      Shell    76 S   1     bf  208 -   208          1.557894362451          7.248724959680          1.533252239192
      0.1612777588D+00  0.1000000000D+01
 Atom H27      Shell    77 S   3     bf  209 -   209          0.651916852049          8.599334072087         -1.363468623153
      0.1873113696D+02  0.3349460434D-01
      0.2825394365D+01  0.2347269535D+00
      0.6401216923D+00  0.8137573261D+00
 Atom H27      Shell    78 S   1     bf  210 -   210          0.651916852049          8.599334072087         -1.363468623153
      0.1612777588D+00  0.1000000000D+01
 Atom C28      Shell    79 S   6     bf  211 -   211          0.172616239923          4.476141189662         -1.125733308861
      0.3047524880D+04  0.1834737132D-02
      0.4573695180D+03  0.1403732281D-01
      0.1039486850D+03  0.6884262226D-01
      0.2921015530D+02  0.2321844432D+00
      0.9286662960D+01  0.4679413484D+00
      0.3163926960D+01  0.3623119853D+00
 Atom C28      Shell    80 SP   3    bf  212 -   215          0.172616239923          4.476141189662         -1.125733308861
      0.7868272350D+01 -0.1193324198D+00  0.6899906659D-01
      0.1881288540D+01 -0.1608541517D+00  0.3164239610D+00
      0.5442492580D+00  0.1143456438D+01  0.7443082909D+00
 Atom C28      Shell    81 SP   1    bf  216 -   219          0.172616239923          4.476141189662         -1.125733308861
      0.1687144782D+00  0.1000000000D+01  0.1000000000D+01
 Atom C28      Shell    82 D   1     bf  220 -   225          0.172616239923          4.476141189662         -1.125733308861
      0.8000000000D+00  0.1000000000D+01
 Atom C29      Shell    83 S   6     bf  226 -   226          1.728488897769          2.323790858787          0.130401874608
      0.3047524880D+04  0.1834737132D-02
      0.4573695180D+03  0.1403732281D-01
      0.1039486850D+03  0.6884262226D-01
      0.2921015530D+02  0.2321844432D+00
      0.9286662960D+01  0.4679413484D+00
      0.3163926960D+01  0.3623119853D+00
 Atom C29      Shell    84 SP   3    bf  227 -   230          1.728488897769          2.323790858787          0.130401874608
      0.7868272350D+01 -0.1193324198D+00  0.6899906659D-01
      0.1881288540D+01 -0.1608541517D+00  0.3164239610D+00
      0.5442492580D+00  0.1143456438D+01  0.7443082909D+00
 Atom C29      Shell    85 SP   1    bf  231 -   234          1.728488897769          2.323790858787          0.130401874608
      0.1687144782D+00  0.1000000000D+01  0.1000000000D+01
 Atom C29      Shell    86 D   1     bf  235 -   240          1.728488897769          2.323790858787          0.130401874608
      0.8000000000D+00  0.1000000000D+01
 Atom H30      Shell    87 S   3     bf  241 -   241          1.855431742074          2.843277479786          2.136544793780
      0.1873113696D+02  0.3349460434D-01
      0.2825394365D+01  0.2347269535D+00
      0.6401216923D+00  0.8137573261D+00
 Atom H30      Shell    88 S   1     bf  242 -   242          1.855431742074          2.843277479786          2.136544793780
      0.1612777588D+00  0.1000000000D+01
 Atom C31      Shell    89 S   6     bf  243 -   243          0.000000000000          0.000000000000          0.000000000000
      0.3047524880D+04  0.1834737132D-02
      0.4573695180D+03  0.1403732281D-01
      0.1039486850D+03  0.6884262226D-01
      0.2921015530D+02  0.2321844432D+00
      0.9286662960D+01  0.4679413484D+00
      0.3163926960D+01  0.3623119853D+00
 Atom C31      Shell    90 SP   3    bf  244 -   247          0.000000000000          0.000000000000          0.000000000000
      0.7868272350D+01 -0.1193324198D+00  0.6899906659D-01
      0.1881288540D+01 -0.1608541517D+00  0.3164239610D+00
      0.5442492580D+00  0.1143456438D+01  0.7443082909D+00
 Atom C31      Shell    91 SP   1    bf  248 -   251          0.000000000000          0.000000000000          0.000000000000
      0.1687144782D+00  0.1000000000D+01  0.1000000000D+01
 Atom C31      Shell    92 D   1     bf  252 -   257          0.000000000000          0.000000000000          0.000000000000
      0.8000000000D+00  0.1000000000D+01
 Atom H32      Shell    93 S   3     bf  258 -   258          0.471104680914         -1.396965738509          1.448023360722
      0.1873113696D+02  0.3349460434D-01
      0.2825394365D+01  0.2347269535D+00
      0.6401216923D+00  0.8137573261D+00
 Atom H32      Shell    94 S   1     bf  259 -   259          0.471104680914         -1.396965738509          1.448023360722
      0.1612777588D+00  0.1000000000D+01
 Atom H33      Shell    95 S   3     bf  260 -   260          0.168036280771         -0.946606603362         -1.837833024955
      0.1873113696D+02  0.3349460434D-01
      0.2825394365D+01  0.2347269535D+00
      0.6401216923D+00  0.8137573261D+00
 Atom H33      Shell    96 S   1     bf  261 -   261          0.168036280771         -0.946606603362         -1.837833024955
      0.1612777588D+00  0.1000000000D+01
 Atom C34      Shell    97 S   6     bf  262 -   262         -2.686850542540          1.124499960203          0.362422033464
      0.3047524880D+04  0.1834737132D-02
      0.4573695180D+03  0.1403732281D-01
      0.1039486850D+03  0.6884262226D-01
      0.2921015530D+02  0.2321844432D+00
      0.9286662960D+01  0.4679413484D+00
      0.3163926960D+01  0.3623119853D+00
 Atom C34      Shell    98 SP   3    bf  263 -   266         -2.686850542540          1.124499960203          0.362422033464
      0.7868272350D+01 -0.1193324198D+00  0.6899906659D-01
      0.1881288540D+01 -0.1608541517D+00  0.3164239610D+00
      0.5442492580D+00  0.1143456438D+01  0.7443082909D+00
 Atom C34      Shell    99 SP   1    bf  267 -   270         -2.686850542540          1.124499960203          0.362422033464
      0.1687144782D+00  0.1000000000D+01  0.1000000000D+01
 Atom C34      Shell   100 D   1     bf  271 -   276         -2.686850542540          1.124499960203          0.362422033464
      0.8000000000D+00  0.1000000000D+01
 Atom H35      Shell   101 S   3     bf  277 -   277         -3.974864120858          0.447799727867         -1.113259585706
      0.1873113696D+02  0.3349460434D-01
      0.2825394365D+01  0.2347269535D+00
      0.6401216923D+00  0.8137573261D+00
 Atom H35      Shell   102 S   1     bf  278 -   278         -3.974864120858          0.447799727867         -1.113259585706
      0.1612777588D+00  0.1000000000D+01
 Atom H36      Shell   103 S   3     bf  279 -   279         -3.504449964769          0.532756145623          2.166314140880
      0.1873113696D+02  0.3349460434D-01
      0.2825394365D+01  0.2347269535D+00
      0.6401216923D+00  0.8137573261D+00
 Atom H36      Shell   104 S   1     bf  280 -   280         -3.504449964769          0.532756145623          2.166314140880
      0.1612777588D+00  0.1000000000D+01
 Atom C37      Shell   105 S   6     bf  281 -   281         -2.432597566758          4.072940170161          0.232837238641
      0.3047524880D+04  0.1834737132D-02
      0.4573695180D+03  0.1403732281D-01
      0.1039486850D+03  0.6884262226D-01
      0.2921015530D+02  0.2321844432D+00
      0.9286662960D+01  0.4679413484D+00
      0.3163926960D+01  0.3623119853D+00
 Atom C37      Shell   106 SP   3    bf  282 -   285         -2.432597566758          4.072940170161          0.232837238641
      0.7868272350D+01 -0.1193324198D+00  0.6899906659D-01
      0.1881288540D+01 -0.1608541517D+00  0.3164239610D+00
      0.5442492580D+00  0.1143456438D+01  0.7443082909D+00
[...]
 1601 Fit      -0.002345
 1602 Fit      -0.002928
 1603 Fit      -0.002086
 1604 Fit      -0.000393
 1605 Fit       0.000649
 1606 Fit      -0.002825
 1607 Fit      -0.002405
 1608 Fit      -0.002765
 1609 Fit      -0.003102
 1610 Fit      -0.003102
 1611 Fit      -0.002522
 1612 Fit      -0.002605
 1613 Fit       0.002040
 1614 Fit       0.001824
 1615 Fit       0.000153
 1616 Fit      -0.002360
 1617 Fit      -0.001165
 1618 Fit       0.000779
 1619 Fit       0.001076
 1620 Fit      -0.000295
 1621 Fit      -0.002559
 1622 Fit      -0.001155
 1623 Fit      -0.000964
 1624 Fit       0.001717
 1625 Fit      -0.000202
 1626 Fit       0.001756
 1627 Fit       0.002157
 1628 Fit       0.001297
 1629 Fit      -0.000079
 1630 Fit      -0.002517
 1631 Fit      -0.000094
 1632 Fit       0.001251
 1633 Fit       0.000971
 1634 Fit      -0.000570
 1635 Fit      -0.001082
 1636 Fit      -0.000922
 1637 Fit       0.003019
 1638 Fit       0.004105
 1639 Fit       0.001000
 1640 Fit       0.002692
 1641 Fit       0.003384
 1642 Fit       0.002264
 1643 Fit      -0.000537
 1644 Fit       0.000631
 1645 Fit       0.001687
 1646 Fit       0.001557
 1647 Fit      -0.001019
 1648 Fit      -0.000704
 1649 Fit      -0.000407
 1650 Fit       0.003575
 1651 Fit      -0.002567
 1652 Fit       0.000505
 1653 Fit       0.004892
 1654 Fit       0.006760
 1655 Fit       0.007159
 1656 Fit       0.001443
 1657 Fit      -0.013928
 1658 Fit      -0.009607
 1659 Fit      -0.001483
 1660 Fit       0.004531
 1661 Fit       0.005804
 1662 Fit       0.010602
 1663 Fit       0.007030
 1664 Fit      -0.001067
 1665 Fit      -0.009808
 1666 Fit       0.002314
 1667 Fit       0.003803
 1668 Fit       0.004214
 1669 Fit       0.007368
 1670 Fit       0.004361
 1671 Fit       0.003922
 1672 Fit      -0.003308
 1673 Fit       0.005044
 1674 Fit       0.000930
 1675 Fit      -0.007302
 1676 Fit       0.004150
 1677 Fit       0.001569
 1678 Fit      -0.003827
 1679 Fit       0.003304
 1680 Fit       0.003433
 1681 Fit       0.008880
 1682 Fit       0.004053
 1683 Fit       0.005532
 1684 Fit       0.007514
 1685 Fit       0.011599
 1686 Fit       0.016341
 1687 Fit       0.008974
 1688 Fit       0.011026
 1689 Fit       0.005273
 1690 Fit       0.004905
 1691 Fit       0.005192
 1692 Fit       0.004747
 1693 Fit       0.005734
 1694 Fit       0.004813
 1695 Fit       0.004226
 1696 Fit       0.002983
 1697 Fit       0.002853
 1698 Fit       0.006286
 1699 Fit       0.004965
 1700 Fit       0.004668
 1701 Fit       0.004284
 1702 Fit       0.003984
 1703 Fit       0.005648
 1704 Fit       0.006708
 1705 Fit       0.007347
 1706 Fit       0.007799
 1707 Fit       0.008441
 1708 Fit       0.008662
 1709 Fit       0.009238
 1710 Fit       0.009203
 1711 Fit       0.006121
 1712 Fit       0.006162
 1713 Fit       0.007471
 1714 Fit       0.009347
 1715 Fit       0.006499
 1716 Fit       0.012366
 1717 Fit       0.009358
 1718 Fit       0.009095
 1719 Fit       0.017362
 1720 Fit       0.012388
 1721 Fit       0.010955
 1722 Fit       0.003176
 1723 Fit      -0.002815
 1724 Fit       0.001834
 1725 Fit       0.004439
 1726 Fit      -0.011495
 1727 Fit      -0.001943
 1728 Fit       0.002560
 1729 Fit       0.004518
 1730 Fit      -0.004017
 1731 Fit       0.001551
 1732 Fit       0.004097
 1733 Fit       0.005416
 1734 Fit      -0.001476
 1735 Fit       0.002510
 1736 Fit       0.004526
 1737 Fit       0.005981
 1738 Fit       0.004782
 1739 Fit       0.010687
 1740 Fit       0.001249
 1741 Fit       0.000670
 1742 Fit      -0.000174
 1743 Fit       0.001504
 1744 Fit      -0.000479
 1745 Fit       0.005329
 1746 Fit       0.008572
 1747 Fit      -0.005330
 1748 Fit       0.002063
 1749 Fit       0.005746
 1750 Fit      -0.000207
 1751 Fit       0.002822
 1752 Fit       0.005229
 1753 Fit       0.001418
 1754 Fit       0.002934
 1755 Fit      -0.010223
 1756 Fit      -0.010710
 1757 Fit      -0.002538
 1758 Fit      -0.002088
 1759 Fit      -0.001623
 1760 Fit       0.002046
 1761 Fit       0.002105
 1762 Fit       0.002180
 1763 Fit       0.004864
 1764 Fit       0.003965
 1765 Fit       0.006242
 1766 Fit       0.005842
 1767 Fit       0.007180
 1768 Fit      -0.006118
 1769 Fit       0.000096
 1770 Fit       0.001470
 1771 Fit      -0.001237
 1772 Fit      -0.008832
 1773 Fit       0.002603
 1774 Fit       0.004694
 1775 Fit       0.005879
 1776 Fit       0.005141
 1777 Fit       0.006179
 1778 Fit       0.007139
 1779 Fit       0.004090
 1780 Fit       0.005528
 1781 Fit       0.003923
 1782 Fit       0.006256
 1783 Fit       0.004322
 1784 Fit       0.006846
 1785 Fit       0.004822
 1786 Fit       0.007953
 1787 Fit       0.005303
 1788 Fit       0.001749
 1789 Fit       0.000125
 1790 Fit       0.001766
 1791 Fit      -0.000431
 1792 Fit      -0.000431
 1793 Fit       0.000966
 1794 Fit       0.000788
 1795 Fit       0.000382
 1796 Fit       0.002159
 1797 Fit       0.001560
 1798 Fit       0.000803
 1799 Fit       0.000751
 1800 Fit      -0.000118
 1801 Fit       0.002195
 1802 Fit       0.001130
 1803 Fit       0.003625
 1804 Fit       0.002998
 1805 Fit       0.004582
 1806 Fit       0.004757
 1807 Fit       0.005139
 1808 Fit      -0.014322
 1809 Fit      -0.008836
 1810 Fit      -0.005278
 1811 Fit      -0.008218
 1812 Fit      -0.018160
 1813 Fit      -0.003987
 1814 Fit      -0.004584
 1815 Fit      -0.004585
 1816 Fit      -0.019927
 1817 Fit      -0.013378
 1818 Fit      -0.008252
 1819 Fit      -0.012393
 1820 Fit      -0.006747
 1821 Fit      -0.008381
 1822 Fit      -0.012540
 1823 Fit      -0.006386
 1824 Fit      -0.007102
 1825 Fit      -0.001539
 1826 Fit      -0.001659
 1827 Fit      -0.000724
 1828 Fit       0.001343
 1829 Fit       0.001304
 1830 Fit       0.002547
 1831 Fit       0.005174
 1832 Fit       0.005489
 1833 Fit       0.003251
 1834 Fit       0.003922
 1835 Fit      -0.003485
 1836 Fit      -0.005084
 1837 Fit      -0.003771
 1838 Fit      -0.001991
 1839 Fit       0.000154
 1840 Fit      -0.001257
 1841 Fit       0.001042
 1842 Fit       0.002949
 1843 Fit      -0.004307
 1844 Fit      -0.008546
 1845 Fit      -0.004667
 1846 Fit      -0.002878
 1847 Fit      -0.002375
 1848 Fit      -0.003499
 1849 Fit      -0.006898
 1850 Fit      -0.001482
 1851 Fit      -0.002508
 1852 Fit      -0.004713
 1853 Fit      -0.001079
 1854 Fit      -0.002816
 1855 Fit      -0.004674
 1856 Fit      -0.002149
 1857 Fit      -0.003365
 1858 Fit      -0.000547
 1859 Fit      -0.000087
 1860 Fit      -0.003268
 1861 Fit      -0.005492
 1862 Fit       0.001207
 1863 Fit       0.004024
 1864 Fit       0.003491
 1865 Fit       0.001336
 1866 Fit       0.003161
 1867 Fit       0.002334
 1868 Fit       0.000922
 1869 Fit       0.001094
 1870 Fit       0.002179
 1871 Fit       0.001374
 1872 Fit       0.006422
 1873 Fit       0.006207
 1874 Fit       0.004617
 1875 Fit       0.004885
 1876 Fit       0.003167
 1877 Fit       0.003801
 1878 Fit       0.002723
 1879 Fit       0.003108
 1880 Fit       0.003308
 1881 Fit       0.003365
 1882 Fit       0.001398
 1883 Fit       0.002171
 1884 Fit       0.002083
 1885 Fit       0.005853
 1886 Fit       0.004245
 1887 Fit       0.004400
 1888 Fit       0.003627
 1889 Fit       0.002931
 1890 Fit       0.002192
 1891 Fit       0.002923
 1892 Fit       0.003026
 1893 Fit       0.001997
 1894 Fit       0.001618
 1895 Fit       0.002858
 1896 Fit      -0.001123
 1897 Fit      -0.000450
 1898 Fit      -0.001187
 1899 Fit      -0.001258
 1900 Fit       0.000598
 1901 Fit      -0.000803
 1902 Fit      -0.000294
 1903 Fit       0.000394
 1904 Fit       0.000993
 1905 Fit       0.002688
 1906 Fit       0.001146
 1907 Fit       0.001170
 1908 Fit       0.001207
 1909 Fit       0.000766
 1910 Fit       0.000576
 1911 Fit       0.000818
 1912 Fit       0.000412
 1913 Fit      -0.000256
 1914 Fit      -0.000899
 1915 Fit       0.000019
 1916 Fit      -0.000154
 1917 Fit      -0.000728
 1918 Fit      -0.000338
 1919 Fit       0.001257
 1920 Fit       0.000410
 1921 Fit       0.001615
 1922 Fit       0.000563
 1923 Fit       0.001442
 1924 Fit       0.000962
 1925 Fit       0.000953
 1926 Fit       0.001724
 1927 Fit       0.003806
 1928 Fit       0.001450
 1929 Fit       0.004385
 1930 Fit       0.002099
 1931 Fit       0.010061
 1932 Fit       0.005373
 1933 Fit       0.006281
 1934 Fit       0.006569
 1935 Fit       0.007333
 1936 Fit       0.006332
 1937 Fit       0.005645
 1938 Fit       0.005489
 1939 Fit       0.006174
 1940 Fit       0.005538
 1941 Fit       0.009360
 1942 Fit       0.009172
 1943 Fit       0.008649
 1944 Fit       0.008638
 1945 Fit       0.008208
 1946 Fit       0.008080
 1947 Fit       0.007716
 1948 Fit       0.007050
 1949 Fit       0.006860
 1950 Fit       0.016247
 1951 Fit       0.013828
 1952 Fit       0.009931
 1953 Fit       0.009763
 1954 Fit       0.014358
 1955 Fit       0.010712
 1956 Fit       0.008725
 1957 Fit       0.008785
 1958 Fit       0.007239
 1959 Fit       0.006495
 1960 Fit       0.003261
 1961 Fit       0.007827
 1962 Fit       0.006411
 1963 Fit       0.005402
 1964 Fit       0.006533
 1965 Fit       0.006536
 1966 Fit       0.005848
 1967 Fit       0.005681
 1968 Fit      -0.003971
 1969 Fit      -0.014810
 1970 Fit      -0.004169
 1971 Fit      -0.011095
 1972 Fit      -0.015110
 1973 Fit      -0.018798
 1974 Fit      -0.023268
 1975 Fit      -0.000806
 1976 Fit      -0.003142
 1977 Fit      -0.008371
 1978 Fit      -0.015307
 1979 Fit      -0.011912
 1980 Fit      -0.000295
 1981 Fit      -0.021669
 1982 Fit      -0.022970
 1983 Fit      -0.021822
 1984 Fit      -0.017830
 1985 Fit      -0.010581
 1986 Fit      -0.000353
 1987 Fit      -0.025012
 1988 Fit      -0.023680
 1989 Fit      -0.020778
 1990 Fit      -0.015432
 1991 Fit      -0.007666
 1992 Fit       0.002380
 1993 Fit      -0.021820
 1994 Fit      -0.021407
 1995 Fit      -0.018897
 1996 Fit      -0.014272
 1997 Fit      -0.007588
 1998 Fit       0.001038
 1999 Fit      -0.017526
 2000 Fit      -0.015811
 2001 Fit      -0.011211
 2002 Fit       0.006450
 2003 Fit       0.013752
 2004 Fit       0.011216
 2005 Fit       0.001982
 2006 Fit       0.008540
 2007 Fit       0.016867
 2008 Fit       0.016218
 2009 Fit       0.011470
 2010 Fit       0.001850
 2011 Fit       0.006932
 2012 Fit       0.013917
 2013 Fit       0.016625
 2014 Fit       0.016142
 2015 Fit       0.012713
 2016 Fit       0.004216
 2017 Fit       0.008649
 2018 Fit       0.014436
 2019 Fit       0.014058
 2020 Fit       0.012521
 2021 Fit      -0.020040
 2022 Fit      -0.015830
 2023 Fit      -0.016221
 2024 Fit      -0.023854
 2025 Fit      -0.022445
 2026 Fit      -0.018187
 2027 Fit      -0.011638
 2028 Fit      -0.019538
 2029 Fit      -0.023149
 2030 Fit      -0.021918
 2031 Fit      -0.020994
 2032 Fit      -0.018756
 2033 Fit      -0.013427
 2034 Fit      -0.016621
 2035 Fit      -0.020964
 2036 Fit      -0.022141
 2037 Fit      -0.014478
 2038 Fit      -0.013640
 2039 Fit      -0.012500
 2040 Fit      -0.009918
 2041 Fit      -0.014241
 2042 Fit      -0.015769
 2043 Fit      -0.015384
 2044 Fit      -0.002094
 2045 Fit       0.000028
 2046 Fit       0.001772
 2047 Fit      -0.004365
 2048 Fit      -0.005220
 2049 Fit      -0.003867
 2050 Fit       0.003202
 2051 Fit       0.004215
 2052 Fit       0.005234
 2053 Fit       0.006930
 2054 Fit       0.000595
 2055 Fit       0.001826
 2056 Fit       0.013093
 2057 Fit       0.014166
 2058 Fit       0.015690
 2059 Fit       0.012247
 2060 Fit       0.012219
 2061 Fit       0.019432
 2062 Fit       0.021084
 2063 Fit       0.019504
 2064 Fit       0.023528
 2065 Fit      -0.001285
 2066 Fit      -0.001823
 2067 Fit      -0.000969
 2068 Fit      -0.001082
 2069 Fit      -0.000825
 2070 Fit      -0.000810
 2071 Fit       0.000098
 2072 Fit      -0.000310
 2073 Fit      -0.001023
 2074 Fit      -0.001840
 2075 Fit      -0.002026
 2076 Fit       0.000838
 2077 Fit       0.000774
 2078 Fit      -0.000079
 2079 Fit      -0.000974
 2080 Fit      -0.001352
 2081 Fit      -0.000971
 2082 Fit      -0.001664
 2083 Fit      -0.001781
 2084 Fit      -0.002103
 2085 Fit      -0.002048
 2086 Fit      -0.001593
 2087 Fit      -0.000698
 2088 Fit      -0.001054
 2089 Fit      -0.000024
 2090 Fit       0.000391
 2091 Fit      -0.001425
 2092 Fit      -0.000373
 2093 Fit       0.000199
 2094 Fit      -0.001043
 2095 Fit      -0.000625
 2096 Fit      -0.001846
 2097 Fit      -0.000782
 2098 Fit      -0.000360
 2099 Fit      -0.001165
 2100 Fit       0.000364
 2101 Fit       0.000712
 2102 Fit      -0.000111
 2103 Fit      -0.001345
 2104 Fit       0.001521
 2105 Fit       0.000495
 2106 Fit      -0.000496
 2107 Fit       0.001950
 2108 Fit       0.000261
 2109 Fit      -0.000225
 2110 Fit      -0.000796
 2111 Fit       0.002549
 2112 Fit       0.001515
 2113 Fit       0.000104
 2114 Fit       0.001708
 2115 Fit      -0.000339
 2116 Fit      -0.000939
 2117 Fit      -0.000268
 2118 Fit      -0.000097
 2119 Fit       0.000284
 2120 Fit       0.000831
 2121 Fit       0.001405
 2122 Fit      -0.000146
 2123 Fit       0.000592
 2124 Fit       0.001262
 2125 Fit       0.001871
 2126 Fit      -0.000860
 2127 Fit       0.000204
 2128 Fit       0.001114
 2129 Fit      -0.001198
 2130 Fit      -0.001241
 2131 Fit      -0.000363
 2132 Fit       0.000491
 2133 Fit       0.003620
 2134 Fit       0.001961
 2135 Fit      -0.002010
 2136 Fit      -0.002657
 2137 Fit      -0.002801
 2138 Fit      -0.002581
 2139 Fit      -0.002655
 2140 Fit      -0.003028
 2141 Fit      -0.002212
 2142 Fit      -0.002759
 2143 Fit      -0.001377
 2144 Fit      -0.002440
 2145 Fit      -0.002304
 2146 Fit      -0.000671
 2147 Fit      -0.000848
 2148 Fit      -0.001913
 2149 Fit       0.000599
 2150 Fit       0.000587
 2151 Fit      -0.000166
 2152 Fit      -0.001556
 2153 Fit       0.001708
 2154 Fit       0.001341
 2155 Fit       0.000414
 2156 Fit      -0.001096
 2157 Fit       0.002279
 2158 Fit       0.001236
 2159 Fit      -0.000467
 2160 Fit      -0.002072
 2161 Fit      -0.001375
 2162 Fit      -0.001656
 2163 Fit      -0.002274
 2164 Fit      -0.000842
 2165 Fit       0.000010
 2166 Fit       0.000042
 2167 Fit      -0.000602
 2168 Fit      -0.001759
 2169 Fit      -0.000182
 2170 Fit       0.000875
 2171 Fit       0.001149
 2172 Fit       0.000736
 2173 Fit      -0.000195
 2174 Fit       0.001443
 2175 Fit       0.000419
 2176 Fit       0.000101
 2177 Fit       0.000897
 2178 Fit      -0.000370
 2179 Fit      -0.000748
 2180 Fit      -0.000354
 2181 Fit      -0.001457
 2182 Fit      -0.002231
 2183 Fit      -0.002396
 2184 Fit      -0.002134
 2185 Fit      -0.001600
 2186 Fit      -0.000589
 2187 Fit      -0.002181
 2188 Fit      -0.000117
 2189 Fit       0.000828
 2190 Fit      -0.001814
 2191 Fit      -0.002123
 2192 Fit      -0.001551
 2193 Fit      -0.002137
 2194 Fit      -0.002139
 2195 Fit      -0.001942
 2196 Fit      -0.002315
 2197 Fit      -0.002297
 2198 Fit      -0.001757
 2199 Fit      -0.001862
 2200 Fit       0.001886
 2201 Fit       0.000964
 2202 Fit      -0.001073
 2203 Fit      -0.000483
 2204 Fit       0.000986
 2205 Fit       0.001314
 2206 Fit       0.000643
 2207 Fit      -0.000811
 2208 Fit      -0.001077
 2209 Fit       0.000168
 2210 Fit       0.000356
 2211 Fit      -0.000594
 2212 Fit      -0.001205
 2213 Fit      -0.001142
 2214 Fit      -0.001787
 2215 Fit       0.000579
 2216 Fit       0.001697
 2217 Fit       0.001582
 2218 Fit       0.000872
 2219 Fit      -0.001515
 2220 Fit       0.000190
 2221 Fit       0.001226
 2222 Fit       0.001321
 2223 Fit       0.000691
 2224 Fit      -0.000184
 2225 Fit      -0.000493
 2226 Fit       0.000468
 2227 Fit       0.000346
 2228 Fit      -0.000580
 2229 Fit      -0.001229
 2230 Fit      -0.001024
 2231 Fit       0.002583
 2232 Fit       0.003231
 2233 Fit       0.001275
 2234 Fit       0.002128
 2235 Fit       0.002591
 2236 Fit       0.001738
 2237 Fit      -0.000214
 2238 Fit       0.000665
 2239 Fit       0.001174
 2240 Fit       0.001060
 2241 Fit      -0.000734
 2242 Fit      -0.000485
 2243 Fit      -0.000374
 -----------------------------------------------------------------
 Leave Link  602 at Wed Apr 26 14:55:50 2017, MaxMem=    33554432 cpu:         4.1
 (Enter /home/michal/g09/l9999.exe)

 Test job not archived.
 1\1\GINC-LINUX\SP\RHF\6-31G(d)\C27H46O3\MICHAL\26-Apr-2017\0\\#P HF/6-
 31G* SCF(Conver=6) NoSymm Test Pop=mk IOp(6/33=2) GFInput GFPrint\\MEP
  - Input generated by R.E.D.-III.x MOLECULE\\0,1\C,0,7.50746073,2.1510
 219,-0.04972434\H,0,7.40183531,2.0710468,1.03917822\C,0,6.75633668,0.9
 8340449,-0.70894775\H,0,7.14582792,0.03356021,-0.329634\H,0,6.98028567
 ,1.00778997,-1.78708532\C,0,5.25684348,1.06170905,-0.48840634\C,0,4.57
 500688,2.38663908,-0.85221106\C,0,5.40972132,3.5491465,-0.23112907\H,0
 ,5.25923967,3.53539007,0.85695229\H,0,5.01662484,4.50768998,-0.5868029
 4\C,0,6.91897835,3.48404339,-0.51180314\H,0,7.11680438,3.61044367,-1.5
 8653411\H,0,7.43134049,4.30653818,0.\C,0,4.59706909,0.,0.\H,0,5.153198
 86,-0.90534451,0.23621471\C,0,3.1188112,-0.04395116,0.25924229\H,0,2.7
 073688,-1.00909547,-0.06234361\C,0,2.36034168,1.10189485,-0.43486068\H
 ,0,2.34359597,0.82835513,-1.49929452\C,0,3.12226287,2.4420569,-0.26062
 06\H,0,3.24135647,2.57763639,0.82437929\C,0,2.29715482,3.64496189,-0.7
 7642083\H,0,2.28449593,3.64714581,-1.87110092\H,0,2.78900845,4.5786525
 4,-0.48011379\C,0,0.83820028,3.68063457,-0.27683672\H,0,0.82440219,3.8
 3586004,0.81136214\H,0,0.34497954,4.5505716,-0.72151652\C,0,0.09134458
 ,2.3686719,-0.59571241\C,0,0.91467693,1.22969716,0.0690057\H,0,0.98185
 219,1.50459764,1.13061081\C,0,0.,0.,0.\H,0,0.24929786,-0.73924243,0.76
 626096\H,0,0.08892097,-0.50092264,-0.97253935\C,0,-1.42182007,0.595059
 75,0.19178548\H,0,-2.1034075,0.23696541,-0.5891116\H,0,-1.85447505,0.2
 8192241,1.14636407\C,0,-1.28727519,2.15530711,0.12321216\H,0,-1.154428
 34,2.52888158,1.15094398\C,0,-0.0671906,2.17990391,-2.12161284\H,0,0.8
 9406365,2.10684172,-2.63692672\H,0,-0.63187756,1.27450862,-2.36386122\
 H,0,-0.60434993,3.02595657,-2.5629797\C,0,-2.56264904,2.83806484,-0.43
 806522\H,0,-2.74135179,2.42888709,-1.44280136\C,0,-2.4297868,4.3652807
 5,-0.56604401\H,0,-2.17808768,4.82048497,0.40029486\H,0,-3.36452157,4.
 81787373,-0.91035281\H,0,-1.6563499,4.65284973,-1.28146133\C,0,4.56814
 673,2.51948588,-2.39995845\H,0,4.27478866,3.52631948,-2.71163009\H,0,5
 .55531296,2.32653476,-2.82660937\H,0,3.87611525,1.80472368,-2.85593376
 \O,0,2.83545576,0.0701948,1.68122996\O,0,3.32583752,-1.13828913,2.3268
 4042\H,0,4.09649588,-0.79146626,2.80615072\O,0,8.91760895,2.06615727,-
 0.27057258\H,0,9.08915976,2.15567166,-1.21858186\C,0,-3.78303838,2.473
 64558,0.44601924\H,0,-3.83074274,1.38574729,0.56089422\H,0,-3.60461193
 ,2.87210376,1.45596867\C,0,-5.16217352,2.97369773,-0.02934543\H,0,-5.9
 0632899,2.65905737,0.71345406\H,0,-5.18761066,4.07017201,-0.0133491\C,
 0,-5.60719328,2.50432272,-1.42756952\H,0,-4.91822039,2.90878703,-2.181
 54634\H,0,-6.58608627,2.95600048,-1.64704594\C,0,-5.72195217,0.9800791
 9,-1.64168339\H,0,-4.74174707,0.52790938,-1.43246836\C,0,-6.74917553,0
 .33013414,-0.70099468\H,0,-7.74561836,0.76523321,-0.85299601\H,0,-6.82
 537732,-0.74684721,-0.88914079\H,0,-6.48564677,0.46164165,0.3533745\C,
 0,-6.06585088,0.67439132,-3.10841928\H,0,-7.04192889,1.09826928,-3.377
 52626\H,0,-6.11147513,-0.40543153,-3.29050701\H,0,-5.32013558,1.098548
 21,-3.7907876\\Version=EM64L-G09RevD.01\HF=-1273.6819307\RMSD=5.407e-0
 7\Dipole=0.1628991,0.520926,-0.8201359\Quadrupole=-5.8024982,2.6454993
 ,3.1569989,1.9833031,-8.1542764,-1.7695284\PG=C01 [X(C27H46O3)]\\@


 WE LEARN WISDOM FROM FAILURE MUCH MORE THAN FROM SUCCESS.
 WE DISCOVER WHAT WILL DO BY FINDING OUT WHAT WILL NOT DO...
 AND HE WHO NEVER MADE A MISTAKE NEVER MADE A DISCOVERY
 Job cpu time:       0 days  0 hours 12 minutes 13.2 seconds.
 File lengths (MBytes):  RWF=    159 Int=      0 D2E=      0 Chk=     11 Scr=      1
 Normal termination of Gaussian 09 at Wed Apr 26 14:55:50 2017.
