 Entering Gaussian System, Link 0=/home/michal/g09/g09
 Input=JOB2-gau_m1-18-2.com
 Output=JOB2-gau_m1-18-2.log
 Initial command:
 /home/michal/g09/l1.exe "/home/michal/gauss_scratch/Gau-13697.inp" -scrdir="/home/michal/gauss_scratch/"
 Entering Link 1 = /home/michal/g09/l1.exe PID=     13698.
  
 Copyright (c) 1988,1990,1992,1993,1995,1998,2003,2009,2013,
            Gaussian, Inc.  All Rights Reserved.
  
 This is part of the Gaussian(R) 09 program.  It is based on
 the Gaussian(R) 03 system (copyright 2003, Gaussian, Inc.),
 the Gaussian(R) 98 system (copyright 1998, Gaussian, Inc.),
 the Gaussian(R) 94 system (copyright 1995, Gaussian, Inc.),
 the Gaussian 92(TM) system (copyright 1992, Gaussian, Inc.),
 the Gaussian 90(TM) system (copyright 1990, Gaussian, Inc.),
 the Gaussian 88(TM) system (copyright 1988, Gaussian, Inc.),
 the Gaussian 86(TM) system (copyright 1986, Carnegie Mellon
 University), and the Gaussian 82(TM) system (copyright 1983,
 Carnegie Mellon University). Gaussian is a federally registered
 trademark of Gaussian, Inc.
  
 This software contains proprietary and confidential information,
 including trade secrets, belonging to Gaussian, Inc.
  
 This software is provided under written license and may be
 used, copied, transmitted, or stored only in accord with that
 written license.
  
 The following legend is applicable only to US Government
 contracts under FAR:
  
                    RESTRICTED RIGHTS LEGEND
  
 Use, reproduction and disclosure by the US Government is
 subject to restrictions as set forth in subparagraphs (a)
 and (c) of the Commercial Computer Software - Restricted
 Rights clause in FAR 52.227-19.
  
 Gaussian, Inc.
 340 Quinnipiac St., Bldg. 40, Wallingford CT 06492
  
  
 ---------------------------------------------------------------
 Warning -- This program may not be used in any manner that
 competes with the business of Gaussian, Inc. or will provide
 assistance to any competitor of Gaussian, Inc.  The licensee
 of this program is prohibited from giving any competitor of
 Gaussian, Inc. access to this program.  By using this program,
 the user acknowledges that Gaussian, Inc. is engaged in the
 business of creating and licensing software in the field of
 computational chemistry and represents and warrants to the
 licensee that it is not a competitor of Gaussian, Inc. and that
 it will not use this program in any manner prohibited above.
 ---------------------------------------------------------------
  

 Cite this work as:
 Gaussian 09, Revision D.01,
 M. J. Frisch, G. W. Trucks, H. B. Schlegel, G. E. Scuseria, 
 M. A. Robb, J. R. Cheeseman, G. Scalmani, V. Barone, B. Mennucci, 
 G. A. Petersson, H. Nakatsuji, M. Caricato, X. Li, H. P. Hratchian, 
 A. F. Izmaylov, J. Bloino, G. Zheng, J. L. Sonnenberg, M. Hada, 
 M. Ehara, K. Toyota, R. Fukuda, J. Hasegawa, M. Ishida, T. Nakajima, 
 Y. Honda, O. Kitao, H. Nakai, T. Vreven, J. A. Montgomery, Jr., 
 J. E. Peralta, F. Ogliaro, M. Bearpark, J. J. Heyd, E. Brothers, 
 K. N. Kudin, V. N. Staroverov, T. Keith, R. Kobayashi, J. Normand, 
 K. Raghavachari, A. Rendell, J. C. Burant, S. S. Iyengar, J. Tomasi, 
 M. Cossi, N. Rega, J. M. Millam, M. Klene, J. E. Knox, J. B. Cross, 
 V. Bakken, C. Adamo, J. Jaramillo, R. Gomperts, R. E. Stratmann, 
 O. Yazyev, A. J. Austin, R. Cammi, C. Pomelli, J. W. Ochterski, 
 R. L. Martin, K. Morokuma, V. G. Zakrzewski, G. A. Voth, 
 P. Salvador, J. J. Dannenberg, S. Dapprich, A. D. Daniels, 
 O. Farkas, J. B. Foresman, J. V. Ortiz, J. Cioslowski, 
 and D. J. Fox, Gaussian, Inc., Wallingford CT, 2013.
 
 ******************************************
 Gaussian 09:  EM64L-G09RevD.01 24-Apr-2013
                26-Apr-2017 
 ******************************************
 %Mem=256MB
 %NProc=12
 Will use up to   12 processors via shared memory.
 ----------------------------------------------------------------------
 #P HF/6-31G* SCF(Conver=6) NoSymm Test Pop=mk IOp(6/33=2) GFInput GFPr
 int
 ----------------------------------------------------------------------
 1/38=1/1;
 2/12=2,15=1,17=6,18=5,40=1/2;
 3/5=1,6=6,7=1,11=9,16=1,24=110,25=1,30=1/1,2,3;
 4//1;
 5/5=2,6=6,38=5/2;
 6/7=2,8=2,9=2,10=2,15=8,20=1,28=1,33=2/1,2;
 99/5=1,9=1/99;
 Leave Link    1 at Wed Apr 26 14:32:22 2017, MaxMem=    33554432 cpu:         1.3
 (Enter /home/michal/g09/l101.exe)
 ----------------------------------------------
 MEP - Input generated by R.E.D.-III.x MOLECULE
 ----------------------------------------------
 Symbolic Z-matrix:
 Charge =  0 Multiplicity = 1
 C                     7.50931   2.14953  -0.05058 
 H                     7.40366   2.06964   1.03831 
 C                     6.75813   0.98186  -0.70984 
 H                     7.14714   0.03205  -0.32993 
 H                     6.98281   1.0058   -1.7878 
 C                     5.25854   1.06065  -0.49026 
 C                     4.57754   2.38522  -0.85691 
 C                     5.41133   3.54757  -0.23433 
 H                     5.25926   3.53337   0.85352 
 H                     5.01881   4.50626  -0.59023 
 C                     6.92107   3.48266  -0.51283 
 H                     7.12045   3.60954  -1.58722 
 H                     7.43262   4.30502   0. 
 C                     4.59848   0.        0. 
 H                     5.15437  -0.90496   0.23821 
 C                     3.12015  -0.04281   0.25854 
 H                     2.70847  -1.00893  -0.05984 
 C                     2.36239   1.10036  -0.44039 
 H                     2.34742   0.82316  -1.50394 
 C                     3.12306   2.44216  -0.26943 
 H                     3.23903   2.58179   0.8154 
 C                     2.29938   3.64325  -0.79235 
 H                     2.28984   3.64076  -1.88701 
 H                     2.79105   4.57792  -0.49876 
 C                     0.83901   3.68127  -0.29688 
 H                     0.82219   3.84427   0.79017 
 H                     0.34426   4.54647  -0.74985 
 C                     0.09527   2.36676  -0.60976 
 C                     0.91625   1.23047   0.06128 
 H                     0.98343   1.51171   1.1212 
 C                     0.        0.        0. 
 H                     0.24004  -0.72614   0.78158 
 H                     0.10129  -0.51763  -0.96255 
 C                    -1.42554   0.59771   0.16141 
 H                    -2.08536   0.25081  -0.64265 
 H                    -1.89019   0.27815   1.09937 
 C                    -1.28164   2.15485   0.11069 
 H                    -1.13575   2.51563   1.13938 
 C                    -0.06188   2.17469  -2.13513 
 H                     0.89991   2.10362  -2.64966 
 H                    -0.62395   1.26769  -2.3773 
 H                    -0.60053   3.01969  -2.57732 
 C                    -2.5493    2.84899  -0.44605 
 H                    -2.6991    2.48339  -1.47254 
 C                    -2.43569   4.38349  -0.52089 
 H                    -2.11851   4.81752   0.43394 
 H                    -3.40438   4.82662  -0.78092 
 H                    -1.71878   4.70429  -1.28106 
 C                     4.57473   2.51662  -2.40483 
 H                     4.28577   3.5242   -2.71806 
 H                     5.56205   2.31951  -2.82919 
 H                     3.881     1.80394  -2.86158 
 O                     2.83599   0.07634   1.67997 
 O                     3.3246   -1.13064   2.32971 
 H                     4.09573  -0.7833    2.80789 
 O                     8.91947   2.0645   -0.27131 
 H                     9.09106   2.15424  -1.21929 
 C                    -3.83041   2.43974   0.32928 
 H                    -4.68809   2.89893  -0.18311 
 H                    -3.97815   1.35612   0.24142 
 C                    -3.88934   2.82481   1.81711 
 H                    -3.06184   2.34648   2.35508 
 H                    -3.7445    3.90661   1.92419 
 C                    -5.22498   2.41778   2.46122 
 H                    -5.36731   1.33629   2.32134 
 H                    -6.04271   2.9035    1.90906 
 C                    -5.39663   2.73857   3.96433 
 H                    -6.40231   2.38382   4.23475 
 C                    -4.39705   1.97755   4.85117 
 H                    -3.36837   2.31846   4.68673 
 H                    -4.62459   2.12808   5.9127 
 H                    -4.42767   0.8997    4.65287 
 C                    -5.35702   4.24765   4.25713 
 H                    -4.36192   4.66902   4.07358 
 H                    -5.6079    4.44814   5.30505 
 H                    -6.07257   4.7947    3.63188 
 
 NAtoms=     76 NQM=       76 NQMF=       0 NMMI=      0 NMMIF=      0
                NMic=       0 NMicF=      0.
                    Isotopes and Nuclear Properties:
 (Nuclear quadrupole moments (NQMom) in fm**2, nuclear magnetic moments (NMagM)
  in nuclear magnetons)

  Atom         1           2           3           4           5           6           7           8           9          10
 IAtWgt=          12           1          12           1           1          12          12          12           1           1
 AtmWgt=  12.0000000   1.0078250  12.0000000   1.0078250   1.0078250  12.0000000  12.0000000  12.0000000   1.0078250   1.0078250
 NucSpn=           0           1           0           1           1           0           0           0           1           1
 AtZEff=   0.0000000   0.0000000   0.0000000   0.0000000   0.0000000   0.0000000   0.0000000   0.0000000   0.0000000   0.0000000
 NQMom=    0.0000000   0.0000000   0.0000000   0.0000000   0.0000000   0.0000000   0.0000000   0.0000000   0.0000000   0.0000000
 NMagM=    0.0000000   2.7928460   0.0000000   2.7928460   2.7928460   0.0000000   0.0000000   0.0000000   2.7928460   2.7928460
 AtZNuc=   6.0000000   1.0000000   6.0000000   1.0000000   1.0000000   6.0000000   6.0000000   6.0000000   1.0000000   1.0000000

  Atom        11          12          13          14          15          16          17          18          19          20
 IAtWgt=          12           1           1          12           1          12           1          12           1          12
 AtmWgt=  12.0000000   1.0078250   1.0078250  12.0000000   1.0078250  12.0000000   1.0078250  12.0000000   1.0078250  12.0000000
 NucSpn=           0           1           1           0           1           0           1           0           1           0
 AtZEff=   0.0000000   0.0000000   0.0000000   0.0000000   0.0000000   0.0000000   0.0000000   0.0000000   0.0000000   0.0000000
 NQMom=    0.0000000   0.0000000   0.0000000   0.0000000   0.0000000   0.0000000   0.0000000   0.0000000   0.0000000   0.0000000
 NMagM=    0.0000000   2.7928460   2.7928460   0.0000000   2.7928460   0.0000000   2.7928460   0.0000000   2.7928460   0.0000000
 AtZNuc=   6.0000000   1.0000000   1.0000000   6.0000000   1.0000000   6.0000000   1.0000000   6.0000000   1.0000000   6.0000000

  Atom        21          22          23          24          25          26          27          28          29          30
 IAtWgt=           1          12           1           1          12           1           1          12          12           1
 AtmWgt=   1.0078250  12.0000000   1.0078250   1.0078250  12.0000000   1.0078250   1.0078250  12.0000000  12.0000000   1.0078250
 NucSpn=           1           0           1           1           0           1           1           0           0           1
 AtZEff=   0.0000000   0.0000000   0.0000000   0.0000000   0.0000000   0.0000000   0.0000000   0.0000000   0.0000000   0.0000000
 NQMom=    0.0000000   0.0000000   0.0000000   0.0000000   0.0000000   0.0000000   0.0000000   0.0000000   0.0000000   0.0000000
 NMagM=    2.7928460   0.0000000   2.7928460   2.7928460   0.0000000   2.7928460   2.7928460   0.0000000   0.0000000   2.7928460
 AtZNuc=   1.0000000   6.0000000   1.0000000   1.0000000   6.0000000   1.0000000   1.0000000   6.0000000   6.0000000   1.0000000

  Atom        31          32          33          34          35          36          37          38          39          40
 IAtWgt=          12           1           1          12           1           1          12           1          12           1
 AtmWgt=  12.0000000   1.0078250   1.0078250  12.0000000   1.0078250   1.0078250  12.0000000   1.0078250  12.0000000   1.0078250
 NucSpn=           0           1           1           0           1           1           0           1           0           1
 AtZEff=   0.0000000   0.0000000   0.0000000   0.0000000   0.0000000   0.0000000   0.0000000   0.0000000   0.0000000   0.0000000
 NQMom=    0.0000000   0.0000000   0.0000000   0.0000000   0.0000000   0.0000000   0.0000000   0.0000000   0.0000000   0.0000000
 NMagM=    0.0000000   2.7928460   2.7928460   0.0000000   2.7928460   2.7928460   0.0000000   2.7928460   0.0000000   2.7928460
 AtZNuc=   6.0000000   1.0000000   1.0000000   6.0000000   1.0000000   1.0000000   6.0000000   1.0000000   6.0000000   1.0000000

  Atom        41          42          43          44          45          46          47          48          49          50
 IAtWgt=           1           1          12           1          12           1           1           1          12           1
 AtmWgt=   1.0078250   1.0078250  12.0000000   1.0078250  12.0000000   1.0078250   1.0078250   1.0078250  12.0000000   1.0078250
 NucSpn=           1           1           0           1           0           1           1           1           0           1
 AtZEff=   0.0000000   0.0000000   0.0000000   0.0000000   0.0000000   0.0000000   0.0000000   0.0000000   0.0000000   0.0000000
 NQMom=    0.0000000   0.0000000   0.0000000   0.0000000   0.0000000   0.0000000   0.0000000   0.0000000   0.0000000   0.0000000
 NMagM=    2.7928460   2.7928460   0.0000000   2.7928460   0.0000000   2.7928460   2.7928460   2.7928460   0.0000000   2.7928460
 AtZNuc=   1.0000000   1.0000000   6.0000000   1.0000000   6.0000000   1.0000000   1.0000000   1.0000000   6.0000000   1.0000000

  Atom        51          52          53          54          55          56          57          58          59          60
 IAtWgt=           1           1          16          16           1          16           1          12           1           1
 AtmWgt=   1.0078250   1.0078250  15.9949146  15.9949146   1.0078250  15.9949146   1.0078250  12.0000000   1.0078250   1.0078250
 NucSpn=           1           1           0           0           1           0           1           0           1           1
 AtZEff=   0.0000000   0.0000000   0.0000000   0.0000000   0.0000000   0.0000000   0.0000000   0.0000000   0.0000000   0.0000000
 NQMom=    0.0000000   0.0000000   0.0000000   0.0000000   0.0000000   0.0000000   0.0000000   0.0000000   0.0000000   0.0000000
 NMagM=    2.7928460   2.7928460   0.0000000   0.0000000   2.7928460   0.0000000   2.7928460   0.0000000   2.7928460   2.7928460
 AtZNuc=   1.0000000   1.0000000   8.0000000   8.0000000   1.0000000   8.0000000   1.0000000   6.0000000   1.0000000   1.0000000

  Atom        61          62          63          64          65          66          67          68          69          70
 IAtWgt=          12           1           1          12           1           1          12           1          12           1
 AtmWgt=  12.0000000   1.0078250   1.0078250  12.0000000   1.0078250   1.0078250  12.0000000   1.0078250  12.0000000   1.0078250
 NucSpn=           0           1           1           0           1           1           0           1           0           1
 AtZEff=   0.0000000   0.0000000   0.0000000   0.0000000   0.0000000   0.0000000   0.0000000   0.0000000   0.0000000   0.0000000
 NQMom=    0.0000000   0.0000000   0.0000000   0.0000000   0.0000000   0.0000000   0.0000000   0.0000000   0.0000000   0.0000000
 NMagM=    0.0000000   2.7928460   2.7928460   0.0000000   2.7928460   2.7928460   0.0000000   2.7928460   0.0000000   2.7928460
 AtZNuc=   6.0000000   1.0000000   1.0000000   6.0000000   1.0000000   1.0000000   6.0000000   1.0000000   6.0000000   1.0000000

  Atom        71          72          73          74          75          76
 IAtWgt=           1           1          12           1           1           1
 AtmWgt=   1.0078250   1.0078250  12.0000000   1.0078250   1.0078250   1.0078250
 NucSpn=           1           1           0           1           1           1
 AtZEff=   0.0000000   0.0000000   0.0000000   0.0000000   0.0000000   0.0000000
 NQMom=    0.0000000   0.0000000   0.0000000   0.0000000   0.0000000   0.0000000
 NMagM=    2.7928460   2.7928460   0.0000000   2.7928460   2.7928460   2.7928460
 AtZNuc=   1.0000000   1.0000000   6.0000000   1.0000000   1.0000000   1.0000000
 Leave Link  101 at Wed Apr 26 14:32:22 2017, MaxMem=    33554432 cpu:         1.8
 (Enter /home/michal/g09/l202.exe)
 Symmetry turned off by external request.
 Stoichiometry    C27H46O3
 Framework group  C1[X(C27H46O3)]
 Deg. of freedom   222
 Full point group                 C1      NOp   1
                          Input orientation:                          
 ---------------------------------------------------------------------
 Center     Atomic      Atomic             Coordinates (Angstroms)
 Number     Number       Type             X           Y           Z
 ---------------------------------------------------------------------
      1          6           0        7.509315    2.149533   -0.050579
      2          1           0        7.403661    2.069639    1.038306
      3          6           0        6.758130    0.981859   -0.709843
      4          1           0        7.147143    0.032049   -0.329933
      5          1           0        6.982813    1.005804   -1.787803
      6          6           0        5.258542    1.060654   -0.490264
      7          6           0        4.577542    2.385223   -0.856908
      8          6           0        5.411327    3.547567   -0.234326
      9          1           0        5.259262    3.533374    0.853521
     10          1           0        5.018808    4.506264   -0.590229
     11          6           0        6.921073    3.482656   -0.512831
     12          1           0        7.120452    3.609545   -1.587217
     13          1           0        7.432619    4.305018    0.000000
     14          6           0        4.598476    0.000000    0.000000
     15          1           0        5.154373   -0.904957    0.238210
     16          6           0        3.120146   -0.042814    0.258542
     17          1           0        2.708466   -1.008930   -0.059842
     18          6           0        2.362393    1.100361   -0.440390
     19          1           0        2.347422    0.823164   -1.503939
     20          6           0        3.123058    2.442160   -0.269434
     21          1           0        3.239033    2.581791    0.815404
     22          6           0        2.299380    3.643246   -0.792347
     23          1           0        2.289836    3.640765   -1.887005
     24          1           0        2.791045    4.577917   -0.498760
     25          6           0        0.839015    3.681274   -0.296885
     26          1           0        0.822193    3.844269    0.790169
     27          1           0        0.344264    4.546468   -0.749849
     28          6           0        0.095267    2.366757   -0.609758
     29          6           0        0.916246    1.230471    0.061285
     30          1           0        0.983431    1.511707    1.121198
     31          6           0        0.000000    0.000000    0.000000
     32          1           0        0.240037   -0.726138    0.781581
     33          1           0        0.101287   -0.517629   -0.962552
     34          6           0       -1.425542    0.597707    0.161413
     35          1           0       -2.085363    0.250807   -0.642650
     36          1           0       -1.890187    0.278145    1.099373
     37          6           0       -1.281643    2.154850    0.110689
     38          1           0       -1.135746    2.515627    1.139385
     39          6           0       -0.061879    2.174695   -2.135126
     40          1           0        0.899906    2.103623   -2.649659
     41          1           0       -0.623951    1.267689   -2.377298
     42          1           0       -0.600529    3.019687   -2.577321
     43          6           0       -2.549300    2.848992   -0.446050
     44          1           0       -2.699101    2.483389   -1.472537
     45          6           0       -2.435690    4.383488   -0.520889
     46          1           0       -2.118512    4.817524    0.433943
     47          1           0       -3.404382    4.826622   -0.780922
     48          1           0       -1.718781    4.704285   -1.281061
     49          6           0        4.574729    2.516624   -2.404833
     50          1           0        4.285775    3.524201   -2.718056
     51          1           0        5.562052    2.319510   -2.829185
     52          1           0        3.881004    1.803941   -2.861579
     53          8           0        2.835986    0.076344    1.679974
     54          8           0        3.324605   -1.130641    2.329713
     55          1           0        4.095727   -0.783303    2.807888
     56          8           0        8.919467    2.064500   -0.271308
     57          1           0        9.091065    2.154241   -1.219287
     58          6           0       -3.830410    2.439737    0.329280
     59          1           0       -4.688085    2.898930   -0.183110
     60          1           0       -3.978146    1.356119    0.241419
     61          6           0       -3.889336    2.824813    1.817115
     62          1           0       -3.061838    2.346481    2.355077
     63          1           0       -3.744500    3.906612    1.924192
     64          6           0       -5.224984    2.417783    2.461224
     65          1           0       -5.367307    1.336294    2.321342
     66          1           0       -6.042715    2.903495    1.909064
     67          6           0       -5.396629    2.738574    3.964334
     68          1           0       -6.402312    2.383823    4.234751
     69          6           0       -4.397052    1.977547    4.851170
     70          1           0       -3.368374    2.318457    4.686728
     71          1           0       -4.624588    2.128076    5.912703
     72          1           0       -4.427671    0.899698    4.652866
     73          6           0       -5.357021    4.247654    4.257126
     74          1           0       -4.361920    4.669019    4.073577
     75          1           0       -5.607901    4.448135    5.305048
     76          1           0       -6.072566    4.794701    3.631878
 ---------------------------------------------------------------------
 Rotational constants (GHZ):      0.3073833      0.0605756      0.0576626
 Leave Link  202 at Wed Apr 26 14:32:22 2017, MaxMem=    33554432 cpu:         0.0
 (Enter /home/michal/g09/l301.exe)
 Standard basis: 6-31G(d) (6D, 7F)
 Ernie: Thresh=  0.10000D-02 Tol=  0.10000D-05 Strict=F.
 AO basis set in the form of general basis input (Overlap normalization):
      1 0
 S   6 1.00       0.000000000000
      0.3047524880D+04  0.1834737132D-02
      0.4573695180D+03  0.1403732281D-01
      0.1039486850D+03  0.6884262226D-01
      0.2921015530D+02  0.2321844432D+00
      0.9286662960D+01  0.4679413484D+00
      0.3163926960D+01  0.3623119853D+00
 SP   3 1.00       0.000000000000
      0.7868272350D+01 -0.1193324198D+00  0.6899906659D-01
      0.1881288540D+01 -0.1608541517D+00  0.3164239610D+00
      0.5442492580D+00  0.1143456438D+01  0.7443082909D+00
 SP   1 1.00       0.000000000000
      0.1687144782D+00  0.1000000000D+01  0.1000000000D+01
 D   1 1.00       0.000000000000
      0.8000000000D+00  0.1000000000D+01
 ****
      2 0
 S   3 1.00       0.000000000000
      0.1873113696D+02  0.3349460434D-01
      0.2825394365D+01  0.2347269535D+00
      0.6401216923D+00  0.8137573261D+00
 S   1 1.00       0.000000000000
      0.1612777588D+00  0.1000000000D+01
 ****
      3 0
 S   6 1.00       0.000000000000
      0.3047524880D+04  0.1834737132D-02
      0.4573695180D+03  0.1403732281D-01
      0.1039486850D+03  0.6884262226D-01
      0.2921015530D+02  0.2321844432D+00
      0.9286662960D+01  0.4679413484D+00
      0.3163926960D+01  0.3623119853D+00
 SP   3 1.00       0.000000000000
      0.7868272350D+01 -0.1193324198D+00  0.6899906659D-01
      0.1881288540D+01 -0.1608541517D+00  0.3164239610D+00
      0.5442492580D+00  0.1143456438D+01  0.7443082909D+00
 SP   1 1.00       0.000000000000
      0.1687144782D+00  0.1000000000D+01  0.1000000000D+01
 D   1 1.00       0.000000000000
      0.8000000000D+00  0.1000000000D+01
 ****
      4 0
 S   3 1.00       0.000000000000
      0.1873113696D+02  0.3349460434D-01
      0.2825394365D+01  0.2347269535D+00
      0.6401216923D+00  0.8137573261D+00
 S   1 1.00       0.000000000000
      0.1612777588D+00  0.1000000000D+01
 ****
      5 0
 S   3 1.00       0.000000000000
      0.1873113696D+02  0.3349460434D-01
      0.2825394365D+01  0.2347269535D+00
      0.6401216923D+00  0.8137573261D+00
 S   1 1.00       0.000000000000
      0.1612777588D+00  0.1000000000D+01
 ****
      6 0
 S   6 1.00       0.000000000000
      0.3047524880D+04  0.1834737132D-02
      0.4573695180D+03  0.1403732281D-01
      0.1039486850D+03  0.6884262226D-01
      0.2921015530D+02  0.2321844432D+00
      0.9286662960D+01  0.4679413484D+00
      0.3163926960D+01  0.3623119853D+00
 SP   3 1.00       0.000000000000
      0.7868272350D+01 -0.1193324198D+00  0.6899906659D-01
      0.1881288540D+01 -0.1608541517D+00  0.3164239610D+00
      0.5442492580D+00  0.1143456438D+01  0.7443082909D+00
 SP   1 1.00       0.000000000000
      0.1687144782D+00  0.1000000000D+01  0.1000000000D+01
 D   1 1.00       0.000000000000
      0.8000000000D+00  0.1000000000D+01
 ****
      7 0
 S   6 1.00       0.000000000000
      0.3047524880D+04  0.1834737132D-02
      0.4573695180D+03  0.1403732281D-01
      0.1039486850D+03  0.6884262226D-01
      0.2921015530D+02  0.2321844432D+00
      0.9286662960D+01  0.4679413484D+00
      0.3163926960D+01  0.3623119853D+00
 SP   3 1.00       0.000000000000
      0.7868272350D+01 -0.1193324198D+00  0.6899906659D-01
      0.1881288540D+01 -0.1608541517D+00  0.3164239610D+00
      0.5442492580D+00  0.1143456438D+01  0.7443082909D+00
 SP   1 1.00       0.000000000000
      0.1687144782D+00  0.1000000000D+01  0.1000000000D+01
 D   1 1.00       0.000000000000
      0.8000000000D+00  0.1000000000D+01
 ****
      8 0
 S   6 1.00       0.000000000000
      0.3047524880D+04  0.1834737132D-02
      0.4573695180D+03  0.1403732281D-01
      0.1039486850D+03  0.6884262226D-01
      0.2921015530D+02  0.2321844432D+00
      0.9286662960D+01  0.4679413484D+00
      0.3163926960D+01  0.3623119853D+00
 SP   3 1.00       0.000000000000
      0.7868272350D+01 -0.1193324198D+00  0.6899906659D-01
      0.1881288540D+01 -0.1608541517D+00  0.3164239610D+00
      0.5442492580D+00  0.1143456438D+01  0.7443082909D+00
 SP   1 1.00       0.000000000000
      0.1687144782D+00  0.1000000000D+01  0.1000000000D+01
 D   1 1.00       0.000000000000
      0.8000000000D+00  0.1000000000D+01
 ****
      9 0
 S   3 1.00       0.000000000000
      0.1873113696D+02  0.3349460434D-01
      0.2825394365D+01  0.2347269535D+00
      0.6401216923D+00  0.8137573261D+00
 S   1 1.00       0.000000000000
      0.1612777588D+00  0.1000000000D+01
 ****
     10 0
 S   3 1.00       0.000000000000
      0.1873113696D+02  0.3349460434D-01
      0.2825394365D+01  0.2347269535D+00
      0.6401216923D+00  0.8137573261D+00
 S   1 1.00       0.000000000000
      0.1612777588D+00  0.1000000000D+01
 ****
     11 0
 S   6 1.00       0.000000000000
      0.3047524880D+04  0.1834737132D-02
      0.4573695180D+03  0.1403732281D-01
      0.1039486850D+03  0.6884262226D-01
      0.2921015530D+02  0.2321844432D+00
      0.9286662960D+01  0.4679413484D+00
      0.3163926960D+01  0.3623119853D+00
 SP   3 1.00       0.000000000000
      0.7868272350D+01 -0.1193324198D+00  0.6899906659D-01
      0.1881288540D+01 -0.1608541517D+00  0.3164239610D+00
      0.5442492580D+00  0.1143456438D+01  0.7443082909D+00
 SP   1 1.00       0.000000000000
      0.1687144782D+00  0.1000000000D+01  0.1000000000D+01
 D   1 1.00       0.000000000000
      0.8000000000D+00  0.1000000000D+01
 ****
     12 0
 S   3 1.00       0.000000000000
      0.1873113696D+02  0.3349460434D-01
      0.2825394365D+01  0.2347269535D+00
      0.6401216923D+00  0.8137573261D+00
 S   1 1.00       0.000000000000
      0.1612777588D+00  0.1000000000D+01
 ****
     13 0
 S   3 1.00       0.000000000000
      0.1873113696D+02  0.3349460434D-01
      0.2825394365D+01  0.2347269535D+00
      0.6401216923D+00  0.8137573261D+00
 S   1 1.00       0.000000000000
      0.1612777588D+00  0.1000000000D+01
 ****
     14 0
 S   6 1.00       0.000000000000
      0.3047524880D+04  0.1834737132D-02
      0.4573695180D+03  0.1403732281D-01
      0.1039486850D+03  0.6884262226D-01
      0.2921015530D+02  0.2321844432D+00
      0.9286662960D+01  0.4679413484D+00
      0.3163926960D+01  0.3623119853D+00
 SP   3 1.00       0.000000000000
      0.7868272350D+01 -0.1193324198D+00  0.6899906659D-01
      0.1881288540D+01 -0.1608541517D+00  0.3164239610D+00
      0.5442492580D+00  0.1143456438D+01  0.7443082909D+00
 SP   1 1.00       0.000000000000
      0.1687144782D+00  0.1000000000D+01  0.1000000000D+01
 D   1 1.00       0.000000000000
      0.8000000000D+00  0.1000000000D+01
 ****
     15 0
 S   3 1.00       0.000000000000
      0.1873113696D+02  0.3349460434D-01
      0.2825394365D+01  0.2347269535D+00
      0.6401216923D+00  0.8137573261D+00
 S   1 1.00       0.000000000000
      0.1612777588D+00  0.1000000000D+01
 ****
     16 0
 S   6 1.00       0.000000000000
      0.3047524880D+04  0.1834737132D-02
      0.4573695180D+03  0.1403732281D-01
      0.1039486850D+03  0.6884262226D-01
      0.2921015530D+02  0.2321844432D+00
      0.9286662960D+01  0.4679413484D+00
      0.3163926960D+01  0.3623119853D+00
 SP   3 1.00       0.000000000000
      0.7868272350D+01 -0.1193324198D+00  0.6899906659D-01
      0.1881288540D+01 -0.1608541517D+00  0.3164239610D+00
      0.5442492580D+00  0.1143456438D+01  0.7443082909D+00
 SP   1 1.00       0.000000000000
      0.1687144782D+00  0.1000000000D+01  0.1000000000D+01
 D   1 1.00       0.000000000000
      0.8000000000D+00  0.1000000000D+01
 ****
     17 0
 S   3 1.00       0.000000000000
      0.1873113696D+02  0.3349460434D-01
      0.2825394365D+01  0.2347269535D+00
      0.6401216923D+00  0.8137573261D+00
 S   1 1.00       0.000000000000
      0.1612777588D+00  0.1000000000D+01
 ****
     18 0
 S   6 1.00       0.000000000000
      0.3047524880D+04  0.1834737132D-02
      0.4573695180D+03  0.1403732281D-01
      0.1039486850D+03  0.6884262226D-01
      0.2921015530D+02  0.2321844432D+00
      0.9286662960D+01  0.4679413484D+00
      0.3163926960D+01  0.3623119853D+00
 SP   3 1.00       0.000000000000
      0.7868272350D+01 -0.1193324198D+00  0.6899906659D-01
      0.1881288540D+01 -0.1608541517D+00  0.3164239610D+00
      0.5442492580D+00  0.1143456438D+01  0.7443082909D+00
 SP   1 1.00       0.000000000000
      0.1687144782D+00  0.1000000000D+01  0.1000000000D+01
 D   1 1.00       0.000000000000
      0.8000000000D+00  0.1000000000D+01
 ****
     19 0
 S   3 1.00       0.000000000000
      0.1873113696D+02  0.3349460434D-01
      0.2825394365D+01  0.2347269535D+00
      0.6401216923D+00  0.8137573261D+00
 S   1 1.00       0.000000000000
      0.1612777588D+00  0.1000000000D+01
 ****
     20 0
 S   6 1.00       0.000000000000
      0.3047524880D+04  0.1834737132D-02
      0.4573695180D+03  0.1403732281D-01
      0.1039486850D+03  0.6884262226D-01
      0.2921015530D+02  0.2321844432D+00
      0.9286662960D+01  0.4679413484D+00
      0.3163926960D+01  0.3623119853D+00
 SP   3 1.00       0.000000000000
      0.7868272350D+01 -0.1193324198D+00  0.6899906659D-01
      0.1881288540D+01 -0.1608541517D+00  0.3164239610D+00
      0.5442492580D+00  0.1143456438D+01  0.7443082909D+00
 SP   1 1.00       0.000000000000
      0.1687144782D+00  0.1000000000D+01  0.1000000000D+01
 D   1 1.00       0.000000000000
      0.8000000000D+00  0.1000000000D+01
 ****
     21 0
 S   3 1.00       0.000000000000
      0.1873113696D+02  0.3349460434D-01
      0.2825394365D+01  0.2347269535D+00
      0.6401216923D+00  0.8137573261D+00
 S   1 1.00       0.000000000000
      0.1612777588D+00  0.1000000000D+01
 ****
     22 0
 S   6 1.00       0.000000000000
      0.3047524880D+04  0.1834737132D-02
      0.4573695180D+03  0.1403732281D-01
      0.1039486850D+03  0.6884262226D-01
      0.2921015530D+02  0.2321844432D+00
      0.9286662960D+01  0.4679413484D+00
      0.3163926960D+01  0.3623119853D+00
 SP   3 1.00       0.000000000000
      0.7868272350D+01 -0.1193324198D+00  0.6899906659D-01
      0.1881288540D+01 -0.1608541517D+00  0.3164239610D+00
      0.5442492580D+00  0.1143456438D+01  0.7443082909D+00
 SP   1 1.00       0.000000000000
      0.1687144782D+00  0.1000000000D+01  0.1000000000D+01
 D   1 1.00       0.000000000000
      0.8000000000D+00  0.1000000000D+01
 ****
     23 0
 S   3 1.00       0.000000000000
      0.1873113696D+02  0.3349460434D-01
      0.2825394365D+01  0.2347269535D+00
      0.6401216923D+00  0.8137573261D+00
 S   1 1.00       0.000000000000
      0.1612777588D+00  0.1000000000D+01
 ****
     24 0
 S   3 1.00       0.000000000000
      0.1873113696D+02  0.3349460434D-01
      0.2825394365D+01  0.2347269535D+00
      0.6401216923D+00  0.8137573261D+00
 S   1 1.00       0.000000000000
      0.1612777588D+00  0.1000000000D+01
 ****
     25 0
 S   6 1.00       0.000000000000
      0.3047524880D+04  0.1834737132D-02
      0.4573695180D+03  0.1403732281D-01
      0.1039486850D+03  0.6884262226D-01
      0.2921015530D+02  0.2321844432D+00
      0.9286662960D+01  0.4679413484D+00
      0.3163926960D+01  0.3623119853D+00
 SP   3 1.00       0.000000000000
      0.7868272350D+01 -0.1193324198D+00  0.6899906659D-01
      0.1881288540D+01 -0.1608541517D+00  0.3164239610D+00
      0.5442492580D+00  0.1143456438D+01  0.7443082909D+00
 SP   1 1.00       0.000000000000
      0.1687144782D+00  0.1000000000D+01  0.1000000000D+01
 D   1 1.00       0.000000000000
      0.8000000000D+00  0.1000000000D+01
 ****
     26 0
 S   3 1.00       0.000000000000
      0.1873113696D+02  0.3349460434D-01
      0.2825394365D+01  0.2347269535D+00
      0.6401216923D+00  0.8137573261D+00
 S   1 1.00       0.000000000000
      0.1612777588D+00  0.1000000000D+01
 ****
     27 0
 S   3 1.00       0.000000000000
      0.1873113696D+02  0.3349460434D-01
      0.2825394365D+01  0.2347269535D+00
      0.6401216923D+00  0.8137573261D+00
 S   1 1.00       0.000000000000
      0.1612777588D+00  0.1000000000D+01
 ****
     28 0
 S   6 1.00       0.000000000000
      0.3047524880D+04  0.1834737132D-02
      0.4573695180D+03  0.1403732281D-01
      0.1039486850D+03  0.6884262226D-01
      0.2921015530D+02  0.2321844432D+00
      0.9286662960D+01  0.4679413484D+00
      0.3163926960D+01  0.3623119853D+00
 SP   3 1.00       0.000000000000
      0.7868272350D+01 -0.1193324198D+00  0.6899906659D-01
      0.1881288540D+01 -0.1608541517D+00  0.3164239610D+00
      0.5442492580D+00  0.1143456438D+01  0.7443082909D+00
 SP   1 1.00       0.000000000000
      0.1687144782D+00  0.1000000000D+01  0.1000000000D+01
 D   1 1.00       0.000000000000
      0.8000000000D+00  0.1000000000D+01
 ****
     29 0
 S   6 1.00       0.000000000000
      0.3047524880D+04  0.1834737132D-02
      0.4573695180D+03  0.1403732281D-01
      0.1039486850D+03  0.6884262226D-01
      0.2921015530D+02  0.2321844432D+00
      0.9286662960D+01  0.4679413484D+00
      0.3163926960D+01  0.3623119853D+00
 SP   3 1.00       0.000000000000
      0.7868272350D+01 -0.1193324198D+00  0.6899906659D-01
      0.1881288540D+01 -0.1608541517D+00  0.3164239610D+00
      0.5442492580D+00  0.1143456438D+01  0.7443082909D+00
 SP   1 1.00       0.000000000000
      0.1687144782D+00  0.1000000000D+01  0.1000000000D+01
 D   1 1.00       0.000000000000
      0.8000000000D+00  0.1000000000D+01
 ****
     30 0
 S   3 1.00       0.000000000000
      0.1873113696D+02  0.3349460434D-01
      0.2825394365D+01  0.2347269535D+00
      0.6401216923D+00  0.8137573261D+00
 S   1 1.00       0.000000000000
      0.1612777588D+00  0.1000000000D+01
 ****
     31 0
 S   6 1.00       0.000000000000
      0.3047524880D+04  0.1834737132D-02
      0.4573695180D+03  0.1403732281D-01
      0.1039486850D+03  0.6884262226D-01
      0.2921015530D+02  0.2321844432D+00
      0.9286662960D+01  0.4679413484D+00
      0.3163926960D+01  0.3623119853D+00
 SP   3 1.00       0.000000000000
      0.7868272350D+01 -0.1193324198D+00  0.6899906659D-01
      0.1881288540D+01 -0.1608541517D+00  0.3164239610D+00
      0.5442492580D+00  0.1143456438D+01  0.7443082909D+00
 SP   1 1.00       0.000000000000
      0.1687144782D+00  0.1000000000D+01  0.1000000000D+01
 D   1 1.00       0.000000000000
      0.8000000000D+00  0.1000000000D+01
 ****
     32 0
 S   3 1.00       0.000000000000
      0.1873113696D+02  0.3349460434D-01
      0.2825394365D+01  0.2347269535D+00
      0.6401216923D+00  0.8137573261D+00
 S   1 1.00       0.000000000000
      0.1612777588D+00  0.1000000000D+01
 ****
     33 0
 S   3 1.00       0.000000000000
      0.1873113696D+02  0.3349460434D-01
      0.2825394365D+01  0.2347269535D+00
      0.6401216923D+00  0.8137573261D+00
 S   1 1.00       0.000000000000
      0.1612777588D+00  0.1000000000D+01
 ****
     34 0
 S   6 1.00       0.000000000000
      0.3047524880D+04  0.1834737132D-02
      0.4573695180D+03  0.1403732281D-01
      0.1039486850D+03  0.6884262226D-01
      0.2921015530D+02  0.2321844432D+00
      0.9286662960D+01  0.4679413484D+00
      0.3163926960D+01  0.3623119853D+00
 SP   3 1.00       0.000000000000
      0.7868272350D+01 -0.1193324198D+00  0.6899906659D-01
      0.1881288540D+01 -0.1608541517D+00  0.3164239610D+00
      0.5442492580D+00  0.1143456438D+01  0.7443082909D+00
 SP   1 1.00       0.000000000000
      0.1687144782D+00  0.1000000000D+01  0.1000000000D+01
 D   1 1.00       0.000000000000
      0.8000000000D+00  0.1000000000D+01
 ****
     35 0
 S   3 1.00       0.000000000000
      0.1873113696D+02  0.3349460434D-01
      0.2825394365D+01  0.2347269535D+00
      0.6401216923D+00  0.8137573261D+00
 S   1 1.00       0.000000000000
      0.1612777588D+00  0.1000000000D+01
 ****
     36 0
 S   3 1.00       0.000000000000
      0.1873113696D+02  0.3349460434D-01
      0.2825394365D+01  0.2347269535D+00
      0.6401216923D+00  0.8137573261D+00
 S   1 1.00       0.000000000000
      0.1612777588D+00  0.1000000000D+01
 ****
     37 0
 S   6 1.00       0.000000000000
      0.3047524880D+04  0.1834737132D-02
      0.4573695180D+03  0.1403732281D-01
      0.1039486850D+03  0.6884262226D-01
      0.2921015530D+02  0.2321844432D+00
      0.9286662960D+01  0.4679413484D+00
      0.3163926960D+01  0.3623119853D+00
 SP   3 1.00       0.000000000000
      0.7868272350D+01 -0.1193324198D+00  0.6899906659D-01
      0.1881288540D+01 -0.1608541517D+00  0.3164239610D+00
      0.5442492580D+00  0.1143456438D+01  0.7443082909D+00
 SP   1 1.00       0.000000000000
      0.1687144782D+00  0.1000000000D+01  0.1000000000D+01
 D   1 1.00       0.000000000000
      0.8000000000D+00  0.1000000000D+01
 ****
     38 0
 S   3 1.00       0.000000000000
      0.1873113696D+02  0.3349460434D-01
      0.2825394365D+01  0.2347269535D+00
      0.6401216923D+00  0.8137573261D+00
 S   1 1.00       0.000000000000
      0.1612777588D+00  0.1000000000D+01
 ****
     39 0
 S   6 1.00       0.000000000000
      0.3047524880D+04  0.1834737132D-02
      0.4573695180D+03  0.1403732281D-01
      0.1039486850D+03  0.6884262226D-01
      0.2921015530D+02  0.2321844432D+00
      0.9286662960D+01  0.4679413484D+00
      0.3163926960D+01  0.3623119853D+00
 SP   3 1.00       0.000000000000
      0.7868272350D+01 -0.1193324198D+00  0.6899906659D-01
      0.1881288540D+01 -0.1608541517D+00  0.3164239610D+00
      0.5442492580D+00  0.1143456438D+01  0.7443082909D+00
 SP   1 1.00       0.000000000000
      0.1687144782D+00  0.1000000000D+01  0.1000000000D+01
 D   1 1.00       0.000000000000
      0.8000000000D+00  0.1000000000D+01
 ****
     40 0
 S   3 1.00       0.000000000000
      0.1873113696D+02  0.3349460434D-01
      0.2825394365D+01  0.2347269535D+00
      0.6401216923D+00  0.8137573261D+00
 S   1 1.00       0.000000000000
      0.1612777588D+00  0.1000000000D+01
 ****
     41 0
 S   3 1.00       0.000000000000
      0.1873113696D+02  0.3349460434D-01
      0.2825394365D+01  0.2347269535D+00
      0.6401216923D+00  0.8137573261D+00
 S   1 1.00       0.000000000000
      0.1612777588D+00  0.1000000000D+01
 ****
     42 0
 S   3 1.00       0.000000000000
      0.1873113696D+02  0.3349460434D-01
      0.2825394365D+01  0.2347269535D+00
      0.6401216923D+00  0.8137573261D+00
 S   1 1.00       0.000000000000
      0.1612777588D+00  0.1000000000D+01
 ****
     43 0
 S   6 1.00       0.000000000000
      0.3047524880D+04  0.1834737132D-02
      0.4573695180D+03  0.1403732281D-01
      0.1039486850D+03  0.6884262226D-01
      0.2921015530D+02  0.2321844432D+00
      0.9286662960D+01  0.4679413484D+00
      0.3163926960D+01  0.3623119853D+00
 SP   3 1.00       0.000000000000
      0.7868272350D+01 -0.1193324198D+00  0.6899906659D-01
      0.1881288540D+01 -0.1608541517D+00  0.3164239610D+00
      0.5442492580D+00  0.1143456438D+01  0.7443082909D+00
 SP   1 1.00       0.000000000000
      0.1687144782D+00  0.1000000000D+01  0.1000000000D+01
 D   1 1.00       0.000000000000
      0.8000000000D+00  0.1000000000D+01
 ****
     44 0
 S   3 1.00       0.000000000000
      0.1873113696D+02  0.3349460434D-01
      0.2825394365D+01  0.2347269535D+00
      0.6401216923D+00  0.8137573261D+00
 S   1 1.00       0.000000000000
      0.1612777588D+00  0.1000000000D+01
 ****
     45 0
 S   6 1.00       0.000000000000
      0.3047524880D+04  0.1834737132D-02
      0.4573695180D+03  0.1403732281D-01
      0.1039486850D+03  0.6884262226D-01
      0.2921015530D+02  0.2321844432D+00
      0.9286662960D+01  0.4679413484D+00
      0.3163926960D+01  0.3623119853D+00
 SP   3 1.00       0.000000000000
      0.7868272350D+01 -0.1193324198D+00  0.6899906659D-01
      0.1881288540D+01 -0.1608541517D+00  0.3164239610D+00
      0.5442492580D+00  0.1143456438D+01  0.7443082909D+00
 SP   1 1.00       0.000000000000
      0.1687144782D+00  0.1000000000D+01  0.1000000000D+01
 D   1 1.00       0.000000000000
      0.8000000000D+00  0.1000000000D+01
 ****
     46 0
 S   3 1.00       0.000000000000
      0.1873113696D+02  0.3349460434D-01
      0.2825394365D+01  0.2347269535D+00
      0.6401216923D+00  0.8137573261D+00
 S   1 1.00       0.000000000000
      0.1612777588D+00  0.1000000000D+01
 ****
     47 0
 S   3 1.00       0.000000000000
      0.1873113696D+02  0.3349460434D-01
      0.2825394365D+01  0.2347269535D+00
      0.6401216923D+00  0.8137573261D+00
 S   1 1.00       0.000000000000
      0.1612777588D+00  0.1000000000D+01
 ****
     48 0
 S   3 1.00       0.000000000000
      0.1873113696D+02  0.3349460434D-01
      0.2825394365D+01  0.2347269535D+00
      0.6401216923D+00  0.8137573261D+00
 S   1 1.00       0.000000000000
      0.1612777588D+00  0.1000000000D+01
 ****
     49 0
 S   6 1.00       0.000000000000
      0.3047524880D+04  0.1834737132D-02
      0.4573695180D+03  0.1403732281D-01
      0.1039486850D+03  0.6884262226D-01
      0.2921015530D+02  0.2321844432D+00
      0.9286662960D+01  0.4679413484D+00
      0.3163926960D+01  0.3623119853D+00
 SP   3 1.00       0.000000000000
      0.7868272350D+01 -0.1193324198D+00  0.6899906659D-01
      0.1881288540D+01 -0.1608541517D+00  0.3164239610D+00
      0.5442492580D+00  0.1143456438D+01  0.7443082909D+00
 SP   1 1.00       0.000000000000
      0.1687144782D+00  0.1000000000D+01  0.1000000000D+01
 D   1 1.00       0.000000000000
      0.8000000000D+00  0.1000000000D+01
 ****
     50 0
 S   3 1.00       0.000000000000
      0.1873113696D+02  0.3349460434D-01
      0.2825394365D+01  0.2347269535D+00
      0.6401216923D+00  0.8137573261D+00
 S   1 1.00       0.000000000000
      0.1612777588D+00  0.1000000000D+01
 ****
     51 0
 S   3 1.00       0.000000000000
      0.1873113696D+02  0.3349460434D-01
      0.2825394365D+01  0.2347269535D+00
      0.6401216923D+00  0.8137573261D+00
 S   1 1.00       0.000000000000
      0.1612777588D+00  0.1000000000D+01
 ****
     52 0
 S   3 1.00       0.000000000000
      0.1873113696D+02  0.3349460434D-01
      0.2825394365D+01  0.2347269535D+00
      0.6401216923D+00  0.8137573261D+00
 S   1 1.00       0.000000000000
      0.1612777588D+00  0.1000000000D+01
 ****
     53 0
 S   6 1.00       0.000000000000
      0.5484671660D+04  0.1831074430D-02
      0.8252349460D+03  0.1395017220D-01
      0.1880469580D+03  0.6844507810D-01
      0.5296450000D+02  0.2327143360D+00
      0.1689757040D+02  0.4701928980D+00
      0.5799635340D+01  0.3585208530D+00
 SP   3 1.00       0.000000000000
      0.1553961625D+02 -0.1107775495D+00  0.7087426823D-01
      0.3599933586D+01 -0.1480262627D+00  0.3397528391D+00
      0.1013761750D+01  0.1130767015D+01  0.7271585773D+00
 SP   1 1.00       0.000000000000
      0.2700058226D+00  0.1000000000D+01  0.1000000000D+01
 D   1 1.00       0.000000000000
      0.8000000000D+00  0.1000000000D+01
 ****
     54 0
 S   6 1.00       0.000000000000
      0.5484671660D+04  0.1831074430D-02
      0.8252349460D+03  0.1395017220D-01
      0.1880469580D+03  0.6844507810D-01
      0.5296450000D+02  0.2327143360D+00
      0.1689757040D+02  0.4701928980D+00
      0.5799635340D+01  0.3585208530D+00
 SP   3 1.00       0.000000000000
      0.1553961625D+02 -0.1107775495D+00  0.7087426823D-01
      0.3599933586D+01 -0.1480262627D+00  0.3397528391D+00
      0.1013761750D+01  0.1130767015D+01  0.7271585773D+00
 SP   1 1.00       0.000000000000
      0.2700058226D+00  0.1000000000D+01  0.1000000000D+01
 D   1 1.00       0.000000000000
      0.8000000000D+00  0.1000000000D+01
 ****
     55 0
 S   3 1.00       0.000000000000
      0.1873113696D+02  0.3349460434D-01
      0.2825394365D+01  0.2347269535D+00
      0.6401216923D+00  0.8137573261D+00
 S   1 1.00       0.000000000000
      0.1612777588D+00  0.1000000000D+01
 ****
     56 0
 S   6 1.00       0.000000000000
      0.5484671660D+04  0.1831074430D-02
      0.8252349460D+03  0.1395017220D-01
      0.1880469580D+03  0.6844507810D-01
      0.5296450000D+02  0.2327143360D+00
      0.1689757040D+02  0.4701928980D+00
      0.5799635340D+01  0.3585208530D+00
 SP   3 1.00       0.000000000000
      0.1553961625D+02 -0.1107775495D+00  0.7087426823D-01
      0.3599933586D+01 -0.1480262627D+00  0.3397528391D+00
      0.1013761750D+01  0.1130767015D+01  0.7271585773D+00
 SP   1 1.00       0.000000000000
      0.2700058226D+00  0.1000000000D+01  0.1000000000D+01
 D   1 1.00       0.000000000000
      0.8000000000D+00  0.1000000000D+01
 ****
     57 0
 S   3 1.00       0.000000000000
      0.1873113696D+02  0.3349460434D-01
      0.2825394365D+01  0.2347269535D+00
      0.6401216923D+00  0.8137573261D+00
 S   1 1.00       0.000000000000
      0.1612777588D+00  0.1000000000D+01
 ****
     58 0
 S   6 1.00       0.000000000000
      0.3047524880D+04  0.1834737132D-02
      0.4573695180D+03  0.1403732281D-01
      0.1039486850D+03  0.6884262226D-01
      0.2921015530D+02  0.2321844432D+00
      0.9286662960D+01  0.4679413484D+00
      0.3163926960D+01  0.3623119853D+00
 SP   3 1.00       0.000000000000
      0.7868272350D+01 -0.1193324198D+00  0.6899906659D-01
      0.1881288540D+01 -0.1608541517D+00  0.3164239610D+00
      0.5442492580D+00  0.1143456438D+01  0.7443082909D+00
 SP   1 1.00       0.000000000000
      0.1687144782D+00  0.1000000000D+01  0.1000000000D+01
 D   1 1.00       0.000000000000
      0.8000000000D+00  0.1000000000D+01
 ****
     59 0
 S   3 1.00       0.000000000000
      0.1873113696D+02  0.3349460434D-01
      0.2825394365D+01  0.2347269535D+00
      0.6401216923D+00  0.8137573261D+00
 S   1 1.00       0.000000000000
      0.1612777588D+00  0.1000000000D+01
 ****
     60 0
 S   3 1.00       0.000000000000
      0.1873113696D+02  0.3349460434D-01
      0.2825394365D+01  0.2347269535D+00
      0.6401216923D+00  0.8137573261D+00
 S   1 1.00       0.000000000000
      0.1612777588D+00  0.1000000000D+01
 ****
     61 0
 S   6 1.00       0.000000000000
      0.3047524880D+04  0.1834737132D-02
      0.4573695180D+03  0.1403732281D-01
      0.1039486850D+03  0.6884262226D-01
      0.2921015530D+02  0.2321844432D+00
      0.9286662960D+01  0.4679413484D+00
      0.3163926960D+01  0.3623119853D+00
 SP   3 1.00       0.000000000000
      0.7868272350D+01 -0.1193324198D+00  0.6899906659D-01
      0.1881288540D+01 -0.1608541517D+00  0.3164239610D+00
      0.5442492580D+00  0.1143456438D+01  0.7443082909D+00
 SP   1 1.00       0.000000000000
      0.1687144782D+00  0.1000000000D+01  0.1000000000D+01
 D   1 1.00       0.000000000000
      0.8000000000D+00  0.1000000000D+01
 ****
     62 0
 S   3 1.00       0.000000000000
      0.1873113696D+02  0.3349460434D-01
      0.2825394365D+01  0.2347269535D+00
      0.6401216923D+00  0.8137573261D+00
 S   1 1.00       0.000000000000
      0.1612777588D+00  0.1000000000D+01
 ****
     63 0
 S   3 1.00       0.000000000000
      0.1873113696D+02  0.3349460434D-01
      0.2825394365D+01  0.2347269535D+00
      0.6401216923D+00  0.8137573261D+00
 S   1 1.00       0.000000000000
      0.1612777588D+00  0.1000000000D+01
 ****
     64 0
 S   6 1.00       0.000000000000
      0.3047524880D+04  0.1834737132D-02
      0.4573695180D+03  0.1403732281D-01
      0.1039486850D+03  0.6884262226D-01
      0.2921015530D+02  0.2321844432D+00
      0.9286662960D+01  0.4679413484D+00
      0.3163926960D+01  0.3623119853D+00
 SP   3 1.00       0.000000000000
      0.7868272350D+01 -0.1193324198D+00  0.6899906659D-01
      0.1881288540D+01 -0.1608541517D+00  0.3164239610D+00
      0.5442492580D+00  0.1143456438D+01  0.7443082909D+00
 SP   1 1.00       0.000000000000
      0.1687144782D+00  0.1000000000D+01  0.1000000000D+01
 D   1 1.00       0.000000000000
      0.8000000000D+00  0.1000000000D+01
 ****
     65 0
 S   3 1.00       0.000000000000
      0.1873113696D+02  0.3349460434D-01
      0.2825394365D+01  0.2347269535D+00
      0.6401216923D+00  0.8137573261D+00
 S   1 1.00       0.000000000000
      0.1612777588D+00  0.1000000000D+01
 ****
     66 0
 S   3 1.00       0.000000000000
      0.1873113696D+02  0.3349460434D-01
      0.2825394365D+01  0.2347269535D+00
      0.6401216923D+00  0.8137573261D+00
 S   1 1.00       0.000000000000
      0.1612777588D+00  0.1000000000D+01
 ****
     67 0
 S   6 1.00       0.000000000000
      0.3047524880D+04  0.1834737132D-02
      0.4573695180D+03  0.1403732281D-01
      0.1039486850D+03  0.6884262226D-01
      0.2921015530D+02  0.2321844432D+00
      0.9286662960D+01  0.4679413484D+00
      0.3163926960D+01  0.3623119853D+00
 SP   3 1.00       0.000000000000
      0.7868272350D+01 -0.1193324198D+00  0.6899906659D-01
      0.1881288540D+01 -0.1608541517D+00  0.3164239610D+00
      0.5442492580D+00  0.1143456438D+01  0.7443082909D+00
 SP   1 1.00       0.000000000000
      0.1687144782D+00  0.1000000000D+01  0.1000000000D+01
 D   1 1.00       0.000000000000
      0.8000000000D+00  0.1000000000D+01
 ****
     68 0
 S   3 1.00       0.000000000000
      0.1873113696D+02  0.3349460434D-01
      0.2825394365D+01  0.2347269535D+00
      0.6401216923D+00  0.8137573261D+00
 S   1 1.00       0.000000000000
      0.1612777588D+00  0.1000000000D+01
 ****
     69 0
 S   6 1.00       0.000000000000
      0.3047524880D+04  0.1834737132D-02
      0.4573695180D+03  0.1403732281D-01
      0.1039486850D+03  0.6884262226D-01
      0.2921015530D+02  0.2321844432D+00
      0.9286662960D+01  0.4679413484D+00
      0.3163926960D+01  0.3623119853D+00
 SP   3 1.00       0.000000000000
      0.7868272350D+01 -0.1193324198D+00  0.6899906659D-01
      0.1881288540D+01 -0.1608541517D+00  0.3164239610D+00
      0.5442492580D+00  0.1143456438D+01  0.7443082909D+00
 SP   1 1.00       0.000000000000
      0.1687144782D+00  0.1000000000D+01  0.1000000000D+01
 D   1 1.00       0.000000000000
      0.8000000000D+00  0.1000000000D+01
 ****
     70 0
 S   3 1.00       0.000000000000
      0.1873113696D+02  0.3349460434D-01
      0.2825394365D+01  0.2347269535D+00
      0.6401216923D+00  0.8137573261D+00
 S   1 1.00       0.000000000000
      0.1612777588D+00  0.1000000000D+01
 ****
     71 0
 S   3 1.00       0.000000000000
      0.1873113696D+02  0.3349460434D-01
      0.2825394365D+01  0.2347269535D+00
      0.6401216923D+00  0.8137573261D+00
 S   1 1.00       0.000000000000
      0.1612777588D+00  0.1000000000D+01
 ****
     72 0
 S   3 1.00       0.000000000000
      0.1873113696D+02  0.3349460434D-01
      0.2825394365D+01  0.2347269535D+00
      0.6401216923D+00  0.8137573261D+00
 S   1 1.00       0.000000000000
      0.1612777588D+00  0.1000000000D+01
 ****
     73 0
 S   6 1.00       0.000000000000
      0.3047524880D+04  0.1834737132D-02
      0.4573695180D+03  0.1403732281D-01
      0.1039486850D+03  0.6884262226D-01
      0.2921015530D+02  0.2321844432D+00
      0.9286662960D+01  0.4679413484D+00
      0.3163926960D+01  0.3623119853D+00
 SP   3 1.00       0.000000000000
      0.7868272350D+01 -0.1193324198D+00  0.6899906659D-01
      0.1881288540D+01 -0.1608541517D+00  0.3164239610D+00
      0.5442492580D+00  0.1143456438D+01  0.7443082909D+00
 SP   1 1.00       0.000000000000
      0.1687144782D+00  0.1000000000D+01  0.1000000000D+01
 D   1 1.00       0.000000000000
      0.8000000000D+00  0.1000000000D+01
 ****
     74 0
 S   3 1.00       0.000000000000
      0.1873113696D+02  0.3349460434D-01
      0.2825394365D+01  0.2347269535D+00
      0.6401216923D+00  0.8137573261D+00
 S   1 1.00       0.000000000000
      0.1612777588D+00  0.1000000000D+01
 ****
     75 0
 S   3 1.00       0.000000000000
      0.1873113696D+02  0.3349460434D-01
      0.2825394365D+01  0.2347269535D+00
      0.6401216923D+00  0.8137573261D+00
 S   1 1.00       0.000000000000
      0.1612777588D+00  0.1000000000D+01
 ****
     76 0
 S   3 1.00       0.000000000000
      0.1873113696D+02  0.3349460434D-01
      0.2825394365D+01  0.2347269535D+00
      0.6401216923D+00  0.8137573261D+00
 S   1 1.00       0.000000000000
      0.1612777588D+00  0.1000000000D+01
 ****

 AO basis set (Overlap normalization):
 Atom C1       Shell     1 S   6     bf    1 -     1         14.190548474317          4.062028985956         -0.095581138377
      0.3047524880D+04  0.1834737132D-02
      0.4573695180D+03  0.1403732281D-01
      0.1039486850D+03  0.6884262226D-01
      0.2921015530D+02  0.2321844432D+00
      0.9286662960D+01  0.4679413484D+00
      0.3163926960D+01  0.3623119853D+00
 Atom C1       Shell     2 SP   3    bf    2 -     5         14.190548474317          4.062028985956         -0.095581138377
      0.7868272350D+01 -0.1193324198D+00  0.6899906659D-01
      0.1881288540D+01 -0.1608541517D+00  0.3164239610D+00
      0.5442492580D+00  0.1143456438D+01  0.7443082909D+00
 Atom C1       Shell     3 SP   1    bf    6 -     9         14.190548474317          4.062028985956         -0.095581138377
      0.1687144782D+00  0.1000000000D+01  0.1000000000D+01
 Atom C1       Shell     4 D   1     bf   10 -    15         14.190548474317          4.062028985956         -0.095581138377
      0.8000000000D+00  0.1000000000D+01
 Atom H2       Shell     5 S   3     bf   16 -    16         13.990892483308          3.911051754316          1.962113093961
      0.1873113696D+02  0.3349460434D-01
      0.2825394365D+01  0.2347269535D+00
      0.6401216923D+00  0.8137573261D+00
 Atom H2       Shell     6 S   1     bf   17 -    17         13.990892483308          3.911051754316          1.962113093961
      0.1612777588D+00  0.1000000000D+01
 Atom C3       Shell     7 S   6     bf   18 -    18         12.771015683021          1.855445102438         -1.341408073661
      0.3047524880D+04  0.1834737132D-02
      0.4573695180D+03  0.1403732281D-01
      0.1039486850D+03  0.6884262226D-01
      0.2921015530D+02  0.2321844432D+00
      0.9286662960D+01  0.4679413484D+00
      0.3163926960D+01  0.3623119853D+00
 Atom C3       Shell     8 SP   3    bf   19 -    22         12.771015683021          1.855445102438         -1.341408073661
      0.7868272350D+01 -0.1193324198D+00  0.6899906659D-01
      0.1881288540D+01 -0.1608541517D+00  0.3164239610D+00
      0.5442492580D+00  0.1143456438D+01  0.7443082909D+00
 Atom C3       Shell     9 SP   1    bf   23 -    26         12.771015683021          1.855445102438         -1.341408073661
      0.1687144782D+00  0.1000000000D+01  0.1000000000D+01
 Atom C3       Shell    10 D   1     bf   27 -    32         12.771015683021          1.855445102438         -1.341408073661
      0.8000000000D+00  0.1000000000D+01
 Atom H4       Shell    11 S   3     bf   33 -    33         13.506143034852          0.060564229675         -0.623483900373
      0.1873113696D+02  0.3349460434D-01
      0.2825394365D+01  0.2347269535D+00
      0.6401216923D+00  0.8137573261D+00
 Atom H4       Shell    12 S   1     bf   34 -    34         13.506143034852          0.060564229675         -0.623483900373
      0.1612777588D+00  0.1000000000D+01
 Atom H5       Shell    13 S   3     bf   35 -    35         13.195604698482          1.900694915943         -3.378457482634
      0.1873113696D+02  0.3349460434D-01
      0.2825394365D+01  0.2347269535D+00
      0.6401216923D+00  0.8137573261D+00
 Atom H5       Shell    14 S   1     bf   36 -    36         13.195604698482          1.900694915943         -3.378457482634
      0.1612777588D+00  0.1000000000D+01
 Atom C6       Shell    15 S   6     bf   37 -    37          9.937203671359          2.004346243154         -0.926464069203
      0.3047524880D+04  0.1834737132D-02
      0.4573695180D+03  0.1403732281D-01
      0.1039486850D+03  0.6884262226D-01
      0.2921015530D+02  0.2321844432D+00
      0.9286662960D+01  0.4679413484D+00
      0.3163926960D+01  0.3623119853D+00
 Atom C6       Shell    16 SP   3    bf   38 -    41          9.937203671359          2.004346243154         -0.926464069203
      0.7868272350D+01 -0.1193324198D+00  0.6899906659D-01
      0.1881288540D+01 -0.1608541517D+00  0.3164239610D+00
      0.5442492580D+00  0.1143456438D+01  0.7443082909D+00
 Atom C6       Shell    17 SP   1    bf   42 -    45          9.937203671359          2.004346243154         -0.926464069203
      0.1687144782D+00  0.1000000000D+01  0.1000000000D+01
 Atom C6       Shell    18 D   1     bf   46 -    51          9.937203671359          2.004346243154         -0.926464069203
      0.8000000000D+00  0.1000000000D+01
 Atom C7       Shell    19 S   6     bf   52 -    52          8.650300080377          4.507418670497         -1.619320968647
      0.3047524880D+04  0.1834737132D-02
      0.4573695180D+03  0.1403732281D-01
      0.1039486850D+03  0.6884262226D-01
      0.2921015530D+02  0.2321844432D+00
      0.9286662960D+01  0.4679413484D+00
      0.3163926960D+01  0.3623119853D+00
 Atom C7       Shell    20 SP   3    bf   53 -    56          8.650300080377          4.507418670497         -1.619320968647
      0.7868272350D+01 -0.1193324198D+00  0.6899906659D-01
      0.1881288540D+01 -0.1608541517D+00  0.3164239610D+00
      0.5442492580D+00  0.1143456438D+01  0.7443082909D+00
 Atom C7       Shell    21 SP   1    bf   57 -    60          8.650300080377          4.507418670497         -1.619320968647
      0.1687144782D+00  0.1000000000D+01  0.1000000000D+01
 Atom C7       Shell    22 D   1     bf   61 -    66          8.650300080377          4.507418670497         -1.619320968647
      0.8000000000D+00  0.1000000000D+01
 Atom C8       Shell    23 S   6     bf   67 -    67         10.225925667544          6.703930143652         -0.442812324863
      0.3047524880D+04  0.1834737132D-02
      0.4573695180D+03  0.1403732281D-01
      0.1039486850D+03  0.6884262226D-01
      0.2921015530D+02  0.2321844432D+00
      0.9286662960D+01  0.4679413484D+00
      0.3163926960D+01  0.3623119853D+00
 Atom C8       Shell    24 SP   3    bf   68 -    71         10.225925667544          6.703930143652         -0.442812324863
      0.7868272350D+01 -0.1193324198D+00  0.6899906659D-01
      0.1881288540D+01 -0.1608541517D+00  0.3164239610D+00
      0.5442492580D+00  0.1143456438D+01  0.7443082909D+00
 Atom C8       Shell    25 SP   1    bf   72 -    75         10.225925667544          6.703930143652         -0.442812324863
      0.1687144782D+00  0.1000000000D+01  0.1000000000D+01
 Atom C8       Shell    26 D   1     bf   76 -    81         10.225925667544          6.703930143652         -0.442812324863
      0.8000000000D+00  0.1000000000D+01
 Atom H9       Shell    27 S   3     bf   82 -    82          9.938564614325          6.677109374031          1.612921637865
      0.1873113696D+02  0.3349460434D-01
      0.2825394365D+01  0.2347269535D+00
      0.6401216923D+00  0.8137573261D+00
 Atom H9       Shell    28 S   1     bf   83 -    83          9.938564614325          6.677109374031          1.612921637865
      0.1612777588D+00  0.1000000000D+01
 Atom H10      Shell    29 S   3     bf   84 -    84          9.484172709125          8.515604086591         -1.115370277516
      0.1873113696D+02  0.3349460434D-01
      0.2825394365D+01  0.2347269535D+00
      0.6401216923D+00  0.8137573261D+00
 Atom H10      Shell    30 S   1     bf   85 -    85          9.484172709125          8.515604086591         -1.115370277516
      0.1612777588D+00  0.1000000000D+01
 Atom C11      Shell    31 S   6     bf   86 -    86         13.078932704682          6.581265696003         -0.969110633783
      0.3047524880D+04  0.1834737132D-02
      0.4573695180D+03  0.1403732281D-01
      0.1039486850D+03  0.6884262226D-01
      0.2921015530D+02  0.2321844432D+00
      0.9286662960D+01  0.4679413484D+00
      0.3163926960D+01  0.3623119853D+00
 Atom C11      Shell    32 SP   3    bf   87 -    90         13.078932704682          6.581265696003         -0.969110633783
      0.7868272350D+01 -0.1193324198D+00  0.6899906659D-01
      0.1881288540D+01 -0.1608541517D+00  0.3164239610D+00
      0.5442492580D+00  0.1143456438D+01  0.7443082909D+00
 Atom C11      Shell    33 SP   1    bf   91 -    94         13.078932704682          6.581265696003         -0.969110633783
      0.1687144782D+00  0.1000000000D+01  0.1000000000D+01
 Atom C11      Shell    34 D   1     bf   95 -   100         13.078932704682          6.581265696003         -0.969110633783
      0.8000000000D+00  0.1000000000D+01
 Atom H12      Shell    35 S   3     bf  101 -   101         13.455704732584          6.821051098587         -2.999404706467
      0.1873113696D+02  0.3349460434D-01
      0.2825394365D+01  0.2347269535D+00
      0.6401216923D+00  0.8137573261D+00
 Atom H12      Shell    36 S   1     bf  102 -   102         13.455704732584          6.821051098587         -2.999404706467
      0.1612777588D+00  0.1000000000D+01
 Atom H13      Shell    37 S   3     bf  103 -   103         14.045613434117          8.135305602958          0.000000000000
      0.1873113696D+02  0.3349460434D-01
      0.2825394365D+01  0.2347269535D+00
      0.6401216923D+00  0.8137573261D+00
 Atom H13      Shell    38 S   1     bf  104 -   104         14.045613434117          8.135305602958          0.000000000000
      0.1612777588D+00  0.1000000000D+01
 Atom C14      Shell    39 S   6     bf  105 -   105          8.689859550552          0.000000000000          0.000000000000
      0.3047524880D+04  0.1834737132D-02
      0.4573695180D+03  0.1403732281D-01
      0.1039486850D+03  0.6884262226D-01
      0.2921015530D+02  0.2321844432D+00
      0.9286662960D+01  0.4679413484D+00
      0.3163926960D+01  0.3623119853D+00
 Atom C14      Shell    40 SP   3    bf  106 -   109          8.689859550552          0.000000000000          0.000000000000
      0.7868272350D+01 -0.1193324198D+00  0.6899906659D-01
      0.1881288540D+01 -0.1608541517D+00  0.3164239610D+00
      0.5442492580D+00  0.1143456438D+01  0.7443082909D+00
 Atom C14      Shell    41 SP   1    bf  110 -   113          8.689859550552          0.000000000000          0.000000000000
      0.1687144782D+00  0.1000000000D+01  0.1000000000D+01
 Atom C14      Shell    42 D   1     bf  114 -   119          8.689859550552          0.000000000000          0.000000000000
      0.8000000000D+00  0.1000000000D+01
 Atom H15      Shell    43 S   3     bf  120 -   120          9.740353281151         -1.710120022764          0.450151132991
      0.1873113696D+02  0.3349460434D-01
      0.2825394365D+01  0.2347269535D+00
      0.6401216923D+00  0.8137573261D+00
 Atom H15      Shell    44 S   1     bf  121 -   121          9.740353281151         -1.710120022764          0.450151132991
      0.1612777588D+00  0.1000000000D+01
 Atom C16      Shell    45 S   6     bf  122 -   122          5.896221283441         -0.080907603927          0.488574046280
      0.3047524880D+04  0.1834737132D-02
      0.4573695180D+03  0.1403732281D-01
      0.1039486850D+03  0.6884262226D-01
      0.2921015530D+02  0.2321844432D+00
      0.9286662960D+01  0.4679413484D+00
      0.3163926960D+01  0.3623119853D+00
 Atom C16      Shell    46 SP   3    bf  123 -   126          5.896221283441         -0.080907603927          0.488574046280
      0.7868272350D+01 -0.1193324198D+00  0.6899906659D-01
      0.1881288540D+01 -0.1608541517D+00  0.3164239610D+00
      0.5442492580D+00  0.1143456438D+01  0.7443082909D+00
 Atom C16      Shell    47 SP   1    bf  127 -   130          5.896221283441         -0.080907603927          0.488574046280
      0.1687144782D+00  0.1000000000D+01  0.1000000000D+01
 Atom C16      Shell    48 D   1     bf  131 -   136          5.896221283441         -0.080907603927          0.488574046280
      0.8000000000D+00  0.1000000000D+01
 Atom H17      Shell    49 S   3     bf  137 -   137          5.118259471561         -1.906601368355         -0.113085369189
      0.1873113696D+02  0.3349460434D-01
      0.2825394365D+01  0.2347269535D+00
      0.6401216923D+00  0.8137573261D+00
 Atom H17      Shell    50 S   1     bf  138 -   138          5.118259471561         -1.906601368355         -0.113085369189
      0.1612777588D+00  0.1000000000D+01
 Atom C18      Shell    51 S   6     bf  139 -   139          4.464275353609          2.079381787685         -0.832217171963
      0.3047524880D+04  0.1834737132D-02
      0.4573695180D+03  0.1403732281D-01
      0.1039486850D+03  0.6884262226D-01
      0.2921015530D+02  0.2321844432D+00
      0.9286662960D+01  0.4679413484D+00
      0.3163926960D+01  0.3623119853D+00
 Atom C18      Shell    52 SP   3    bf  140 -   143          4.464275353609          2.079381787685         -0.832217171963
      0.7868272350D+01 -0.1193324198D+00  0.6899906659D-01
      0.1881288540D+01 -0.1608541517D+00  0.3164239610D+00
      0.5442492580D+00  0.1143456438D+01  0.7443082909D+00
 Atom C18      Shell    53 SP   1    bf  144 -   147          4.464275353609          2.079381787685         -0.832217171963
      0.1687144782D+00  0.1000000000D+01  0.1000000000D+01
 Atom C18      Shell    54 D   1     bf  148 -   153          4.464275353609          2.079381787685         -0.832217171963
      0.8000000000D+00  0.1000000000D+01
 Atom H19      Shell    55 S   3     bf  154 -   154          4.435984452646          1.555555032677         -2.842033567559
      0.1873113696D+02  0.3349460434D-01
      0.2825394365D+01  0.2347269535D+00
      0.6401216923D+00  0.8137573261D+00
 Atom H19      Shell    56 S   1     bf  155 -   155          4.435984452646          1.555555032677         -2.842033567559
      0.1612777588D+00  0.1000000000D+01
 Atom C20      Shell    57 S   6     bf  156 -   156          5.901724600576          4.615013780558         -0.509157396854
      0.3047524880D+04  0.1834737132D-02
      0.4573695180D+03  0.1403732281D-01
      0.1039486850D+03  0.6884262226D-01
      0.2921015530D+02  0.2321844432D+00
      0.9286662960D+01  0.4679413484D+00
      0.3163926960D+01  0.3623119853D+00
 Atom C20      Shell    58 SP   3    bf  157 -   160          5.901724600576          4.615013780558         -0.509157396854
      0.7868272350D+01 -0.1193324198D+00  0.6899906659D-01
      0.1881288540D+01 -0.1608541517D+00  0.3164239610D+00
      0.5442492580D+00  0.1143456438D+01  0.7443082909D+00
 Atom C20      Shell    59 SP   1    bf  161 -   164          5.901724600576          4.615013780558         -0.509157396854
      0.1687144782D+00  0.1000000000D+01  0.1000000000D+01
 Atom C20      Shell    60 D   1     bf  165 -   170          5.901724600576          4.615013780558         -0.509157396854
      0.8000000000D+00  0.1000000000D+01
 Atom H21      Shell    61 S   3     bf  171 -   171          6.120885343174          4.878878319191          1.540890115379
      0.1873113696D+02  0.3349460434D-01
      0.2825394365D+01  0.2347269535D+00
      0.6401216923D+00  0.8137573261D+00
 Atom H21      Shell    62 S   1     bf  172 -   172          6.120885343174          4.878878319191          1.540890115379
      0.1612777588D+00  0.1000000000D+01
 Atom C22      Shell    63 S   6     bf  173 -   173          4.345198078592          6.884736324354         -1.497318170809
      0.3047524880D+04  0.1834737132D-02
      0.4573695180D+03  0.1403732281D-01
      0.1039486850D+03  0.6884262226D-01
      0.2921015530D+02  0.2321844432D+00
      0.9286662960D+01  0.4679413484D+00
      0.3163926960D+01  0.3623119853D+00
 Atom C22      Shell    64 SP   3    bf  174 -   177          4.345198078592          6.884736324354         -1.497318170809
      0.7868272350D+01 -0.1193324198D+00  0.6899906659D-01
      0.1881288540D+01 -0.1608541517D+00  0.3164239610D+00
      0.5442492580D+00  0.1143456438D+01  0.7443082909D+00
 Atom C22      Shell    65 SP   1    bf  178 -   181          4.345198078592          6.884736324354         -1.497318170809
      0.1687144782D+00  0.1000000000D+01  0.1000000000D+01
 Atom C22      Shell    66 D   1     bf  182 -   187          4.345198078592          6.884736324354         -1.497318170809
      0.8000000000D+00  0.1000000000D+01
 Atom H23      Shell    67 S   3     bf  188 -   188          4.327162041051          6.880048310661         -3.565923587352
      0.1873113696D+02  0.3349460434D-01
      0.2825394365D+01  0.2347269535D+00
      0.6401216923D+00  0.8137573261D+00
 Atom H23      Shell    68 S   1     bf  189 -   189          4.327162041051          6.880048310661         -3.565923587352
      0.1612777588D+00  0.1000000000D+01
 Atom H24      Shell    69 S   3     bf  190 -   190          5.274311298169          8.651009143417         -0.942520543031
      0.1873113696D+02  0.3349460434D-01
      0.2825394365D+01  0.2347269535D+00
      0.6401216923D+00  0.8137573261D+00
 Atom H24      Shell    70 S   1     bf  191 -   191          5.274311298169          8.651009143417         -0.942520543031
      0.1612777588D+00  0.1000000000D+01
 Atom C25      Shell    71 S   6     bf  192 -   192          1.585508420205          6.956600152544         -0.561031210681
      0.3047524880D+04  0.1834737132D-02
      0.4573695180D+03  0.1403732281D-01
      0.1039486850D+03  0.6884262226D-01
      0.2921015530D+02  0.2321844432D+00
      0.9286662960D+01  0.4679413484D+00
      0.3163926960D+01  0.3623119853D+00
 Atom C25      Shell    72 SP   3    bf  193 -   196          1.585508420205          6.956600152544         -0.561031210681
      0.7868272350D+01 -0.1193324198D+00  0.6899906659D-01
      0.1881288540D+01 -0.1608541517D+00  0.3164239610D+00
      0.5442492580D+00  0.1143456438D+01  0.7443082909D+00
 Atom C25      Shell    73 SP   1    bf  197 -   200          1.585508420205          6.956600152544         -0.561031210681
      0.1687144782D+00  0.1000000000D+01  0.1000000000D+01
 Atom C25      Shell    74 D   1     bf  201 -   206          1.585508420205          6.956600152544         -0.561031210681
      0.8000000000D+00  0.1000000000D+01
 Atom H26      Shell    75 S   3     bf  207 -   207          1.553718880280          7.264616082471          1.493202555162
      0.1873113696D+02  0.3349460434D-01
      0.2825394365D+01  0.2347269535D+00
      0.6401216923D+00  0.8137573261D+00
 Atom H26      Shell    76 S   1     bf  208 -   208          1.553718880280          7.264616082471          1.493202555162
      0.1612777588D+00  0.1000000000D+01
 Atom H27      Shell    77 S   3     bf  209 -   209          0.650564318364          8.591580298997         -1.417010025806
      0.1873113696D+02  0.3349460434D-01
      0.2825394365D+01  0.2347269535D+00
      0.6401216923D+00  0.8137573261D+00
 Atom H27      Shell    78 S   1     bf  210 -   210          0.650564318364          8.591580298997         -1.417010025806
      0.1612777588D+00  0.1000000000D+01
 Atom C28      Shell    79 S   6     bf  211 -   211          0.180029314289          4.472522742063         -1.152276137562
      0.3047524880D+04  0.1834737132D-02
      0.4573695180D+03  0.1403732281D-01
      0.1039486850D+03  0.6884262226D-01
      0.2921015530D+02  0.2321844432D+00
      0.9286662960D+01  0.4679413484D+00
      0.3163926960D+01  0.3623119853D+00
 Atom C28      Shell    80 SP   3    bf  212 -   215          0.180029314289          4.472522742063         -1.152276137562
      0.7868272350D+01 -0.1193324198D+00  0.6899906659D-01
      0.1881288540D+01 -0.1608541517D+00  0.3164239610D+00
      0.5442492580D+00  0.1143456438D+01  0.7443082909D+00
 Atom C28      Shell    81 SP   1    bf  216 -   219          0.180029314289          4.472522742063         -1.152276137562
      0.1687144782D+00  0.1000000000D+01  0.1000000000D+01
 Atom C28      Shell    82 D   1     bf  220 -   225          0.180029314289          4.472522742063         -1.152276137562
      0.8000000000D+00  0.1000000000D+01
 Atom C29      Shell    83 S   6     bf  226 -   226          1.731454785140          2.325253280047          0.115810921191
      0.3047524880D+04  0.1834737132D-02
      0.4573695180D+03  0.1403732281D-01
      0.1039486850D+03  0.6884262226D-01
      0.2921015530D+02  0.2321844432D+00
      0.9286662960D+01  0.4679413484D+00
      0.3163926960D+01  0.3623119853D+00
 Atom C29      Shell    84 SP   3    bf  227 -   230          1.731454785140          2.325253280047          0.115810921191
      0.7868272350D+01 -0.1193324198D+00  0.6899906659D-01
      0.1881288540D+01 -0.1608541517D+00  0.3164239610D+00
      0.5442492580D+00  0.1143456438D+01  0.7443082909D+00
 Atom C29      Shell    85 SP   1    bf  231 -   234          1.731454785140          2.325253280047          0.115810921191
      0.1687144782D+00  0.1000000000D+01  0.1000000000D+01
 Atom C29      Shell    86 D   1     bf  235 -   240          1.731454785140          2.325253280047          0.115810921191
      0.8000000000D+00  0.1000000000D+01
 Atom H30      Shell    87 S   3     bf  241 -   241          1.858414391316          2.856712865673          2.118756310362
      0.1873113696D+02  0.3349460434D-01
      0.2825394365D+01  0.2347269535D+00
      0.6401216923D+00  0.8137573261D+00
 Atom H30      Shell    88 S   1     bf  242 -   242          1.858414391316          2.856712865673          2.118756310362
      0.1612777588D+00  0.1000000000D+01
 Atom C31      Shell    89 S   6     bf  243 -   243          0.000000000000          0.000000000000          0.000000000000
      0.3047524880D+04  0.1834737132D-02
      0.4573695180D+03  0.1403732281D-01
      0.1039486850D+03  0.6884262226D-01
      0.2921015530D+02  0.2321844432D+00
      0.9286662960D+01  0.4679413484D+00
      0.3163926960D+01  0.3623119853D+00
 Atom C31      Shell    90 SP   3    bf  244 -   247          0.000000000000          0.000000000000          0.000000000000
      0.7868272350D+01 -0.1193324198D+00  0.6899906659D-01
      0.1881288540D+01 -0.1608541517D+00  0.3164239610D+00
      0.5442492580D+00  0.1143456438D+01  0.7443082909D+00
 Atom C31      Shell    91 SP   1    bf  248 -   251          0.000000000000          0.000000000000          0.000000000000
      0.1687144782D+00  0.1000000000D+01  0.1000000000D+01
 Atom C31      Shell    92 D   1     bf  252 -   257          0.000000000000          0.000000000000          0.000000000000
      0.8000000000D+00  0.1000000000D+01
 Atom H32      Shell    93 S   3     bf  258 -   258          0.453604494116         -1.372201104305          1.476974796557
      0.1873113696D+02  0.3349460434D-01
      0.2825394365D+01  0.2347269535D+00
      0.6401216923D+00  0.8137573261D+00
 Atom H32      Shell    94 S   1     bf  259 -   259          0.453604494116         -1.372201104305          1.476974796557
      0.1612777588D+00  0.1000000000D+01
 Atom H33      Shell    95 S   3     bf  260 -   260          0.191404785308         -0.978176368138         -1.818960008812
      0.1873113696D+02  0.3349460434D-01
      0.2825394365D+01  0.2347269535D+00
      0.6401216923D+00  0.8137573261D+00
 Atom H33      Shell    96 S   1     bf  261 -   261          0.191404785308         -0.978176368138         -1.818960008812
      0.1612777588D+00  0.1000000000D+01
 Atom C34      Shell    97 S   6     bf  262 -   262         -2.693883082755          1.129502178661          0.305025589500
      0.3047524880D+04  0.1834737132D-02
      0.4573695180D+03  0.1403732281D-01
      0.1039486850D+03  0.6884262226D-01
      0.2921015530D+02  0.2321844432D+00
      0.9286662960D+01  0.4679413484D+00
      0.3163926960D+01  0.3623119853D+00
 Atom C34      Shell    98 SP   3    bf  263 -   266         -2.693883082755          1.129502178661          0.305025589500
      0.7868272350D+01 -0.1193324198D+00  0.6899906659D-01
      0.1881288540D+01 -0.1608541517D+00  0.3164239610D+00
      0.5442492580D+00  0.1143456438D+01  0.7443082909D+00
 Atom C34      Shell    99 SP   1    bf  267 -   270         -2.693883082755          1.129502178661          0.305025589500
      0.1687144782D+00  0.1000000000D+01  0.1000000000D+01
 Atom C34      Shell   100 D   1     bf  271 -   276         -2.693883082755          1.129502178661          0.305025589500
      0.8000000000D+00  0.1000000000D+01
 Atom H35      Shell   101 S   3     bf  277 -   277         -3.940765864721          0.473955710731         -1.214431630025
      0.1873113696D+02  0.3349460434D-01
      0.2825394365D+01  0.2347269535D+00
      0.6401216923D+00  0.8137573261D+00
 Atom H35      Shell   102 S   1     bf  278 -   278         -3.940765864721          0.473955710731         -1.214431630025
      0.1612777588D+00  0.1000000000D+01
 Atom H36      Shell   103 S   3     bf  279 -   279         -3.571935807735          0.525618498841          2.077513264279
      0.1873113696D+02  0.3349460434D-01
      0.2825394365D+01  0.2347269535D+00
      0.6401216923D+00  0.8137573261D+00
 Atom H36      Shell   104 S   1     bf  280 -   280         -3.571935807735          0.525618498841          2.077513264279
      0.1612777588D+00  0.1000000000D+01
 Atom C37      Shell   105 S   6     bf  281 -   281         -2.421953778801          4.072077151134          0.209171253416
      0.3047524880D+04  0.1834737132D-02
      0.4573695180D+03  0.1403732281D-01
      0.1039486850D+03  0.6884262226D-01
      0.2921015530D+02  0.2321844432D+00
      0.9286662960D+01  0.4679413484D+00
      0.3163926960D+01  0.3623119853D+00
 Atom C37      Shell   106 SP   3    bf  282 -   285         -2.421953778801          4.072077151134          0.209171253416
      0.7868272350D+01 -0.1193324198D+00  0.6899906659D-01
      0.1881288540D+01 -0.1608541517D+00  0.3164239610D+00
      0.5442492580D+00  0.1143456438D+01  0.7443082909D+00
[...]
 1637 Fit      -0.003452
 1638 Fit      -0.003693
 1639 Fit      -0.003572
 1640 Fit      -0.003217
 1641 Fit      -0.002919
 1642 Fit      -0.002295
 1643 Fit      -0.003547
 1644 Fit      -0.002673
 1645 Fit      -0.001294
 1646 Fit      -0.003519
 1647 Fit      -0.000601
 1648 Fit      -0.000545
 1649 Fit      -0.001890
 1650 Fit       0.001385
 1651 Fit       0.001554
 1652 Fit       0.000366
 1653 Fit      -0.001878
 1654 Fit       0.002625
 1655 Fit       0.000460
 1656 Fit      -0.002277
 1657 Fit       0.001258
 1658 Fit      -0.000553
 1659 Fit      -0.000056
 1660 Fit       0.000777
 1661 Fit       0.001182
 1662 Fit       0.001564
 1663 Fit      -0.002890
 1664 Fit      -0.002075
 1665 Fit      -0.001299
 1666 Fit      -0.000783
 1667 Fit      -0.000497
 1668 Fit      -0.000209
 1669 Fit       0.000162
 1670 Fit      -0.002518
 1671 Fit      -0.002377
 1672 Fit      -0.002361
 1673 Fit      -0.000757
 1674 Fit       0.000098
 1675 Fit       0.000064
 1676 Fit      -0.000543
 1677 Fit      -0.001592
 1678 Fit       0.000189
 1679 Fit       0.001443
 1680 Fit       0.001662
 1681 Fit       0.001142
 1682 Fit      -0.000374
 1683 Fit       0.001401
 1684 Fit       0.002129
 1685 Fit       0.003542
 1686 Fit      -0.002605
 1687 Fit       0.000466
 1688 Fit       0.004854
 1689 Fit       0.006738
 1690 Fit       0.007139
 1691 Fit       0.001406
 1692 Fit      -0.013969
 1693 Fit      -0.009646
 1694 Fit      -0.001522
 1695 Fit       0.004486
 1696 Fit       0.005807
 1697 Fit       0.010611
 1698 Fit       0.006991
 1699 Fit      -0.001112
 1700 Fit      -0.009852
 1701 Fit       0.002257
 1702 Fit       0.003752
 1703 Fit       0.004167
 1704 Fit       0.007323
 1705 Fit       0.004310
 1706 Fit       0.003869
 1707 Fit      -0.003356
 1708 Fit       0.004991
 1709 Fit       0.000880
 1710 Fit      -0.007352
 1711 Fit       0.004097
 1712 Fit       0.001519
 1713 Fit      -0.003879
 1714 Fit       0.003246
 1715 Fit       0.003382
 1716 Fit       0.008828
 1717 Fit       0.004004
 1718 Fit       0.005488
 1719 Fit       0.007473
 1720 Fit       0.011557
 1721 Fit       0.016307
 1722 Fit       0.008934
 1723 Fit       0.010989
 1724 Fit       0.005235
 1725 Fit       0.004860
 1726 Fit       0.005133
 1727 Fit       0.004708
 1728 Fit       0.005700
 1729 Fit       0.004775
 1730 Fit       0.004189
 1731 Fit       0.002933
 1732 Fit       0.002798
 1733 Fit       0.006254
 1734 Fit       0.004932
 1735 Fit       0.004630
 1736 Fit       0.004246
 1737 Fit       0.003952
 1738 Fit       0.005599
 1739 Fit       0.006664
 1740 Fit       0.007299
 1741 Fit       0.007756
 1742 Fit       0.008395
 1743 Fit       0.008620
 1744 Fit       0.009189
 1745 Fit       0.009171
 1746 Fit       0.006084
 1747 Fit       0.006121
 1748 Fit       0.007429
 1749 Fit       0.009305
 1750 Fit       0.006457
 1751 Fit       0.012324
 1752 Fit       0.009314
 1753 Fit       0.009050
 1754 Fit       0.017314
 1755 Fit       0.012338
 1756 Fit       0.010896
 1757 Fit       0.003134
 1758 Fit      -0.002849
 1759 Fit       0.001796
 1760 Fit       0.004397
 1761 Fit      -0.011524
 1762 Fit      -0.001978
 1763 Fit       0.002522
 1764 Fit       0.004478
 1765 Fit      -0.004054
 1766 Fit       0.001512
 1767 Fit       0.004057
 1768 Fit       0.005373
 1769 Fit      -0.001516
 1770 Fit       0.002469
 1771 Fit       0.004485
 1772 Fit       0.005938
 1773 Fit       0.004739
 1774 Fit       0.010655
 1775 Fit       0.001191
 1776 Fit       0.000601
 1777 Fit      -0.000241
 1778 Fit       0.001433
 1779 Fit      -0.000544
 1780 Fit       0.005265
 1781 Fit       0.008504
 1782 Fit      -0.005307
 1783 Fit       0.002036
 1784 Fit       0.005700
 1785 Fit      -0.000230
 1786 Fit       0.002784
 1787 Fit       0.005184
 1788 Fit       0.001365
 1789 Fit       0.002879
 1790 Fit      -0.010266
 1791 Fit      -0.010690
 1792 Fit      -0.002645
 1793 Fit      -0.002151
 1794 Fit      -0.001658
 1795 Fit       0.001993
 1796 Fit       0.002044
 1797 Fit       0.002125
 1798 Fit       0.004800
 1799 Fit       0.003899
 1800 Fit       0.006129
 1801 Fit       0.005743
 1802 Fit       0.007028
 1803 Fit      -0.006180
 1804 Fit       0.000035
 1805 Fit       0.001444
 1806 Fit      -0.001218
 1807 Fit      -0.008812
 1808 Fit       0.002611
 1809 Fit       0.004579
 1810 Fit       0.005737
 1811 Fit       0.004937
 1812 Fit       0.006018
 1813 Fit       0.007003
 1814 Fit       0.004085
 1815 Fit       0.005514
 1816 Fit       0.003920
 1817 Fit       0.006225
 1818 Fit       0.004286
 1819 Fit       0.006792
 1820 Fit       0.004754
 1821 Fit       0.007871
 1822 Fit       0.005213
 1823 Fit       0.001796
 1824 Fit       0.000266
 1825 Fit       0.001744
 1826 Fit      -0.000097
 1827 Fit      -0.000287
 1828 Fit       0.001152
 1829 Fit       0.001141
 1830 Fit       0.000955
 1831 Fit       0.002221
 1832 Fit       0.001678
 1833 Fit       0.001053
 1834 Fit       0.001259
 1835 Fit      -0.000001
 1836 Fit       0.002154
 1837 Fit       0.001126
 1838 Fit       0.003538
 1839 Fit       0.002964
 1840 Fit       0.004447
 1841 Fit       0.004653
 1842 Fit       0.004929
 1843 Fit      -0.014120
 1844 Fit      -0.008675
 1845 Fit      -0.004725
 1846 Fit      -0.007444
 1847 Fit      -0.017965
 1848 Fit      -0.004301
 1849 Fit      -0.004765
 1850 Fit      -0.004717
 1851 Fit      -0.019686
 1852 Fit      -0.013303
 1853 Fit      -0.008237
 1854 Fit      -0.012436
 1855 Fit      -0.006834
 1856 Fit      -0.008517
 1857 Fit      -0.012721
 1858 Fit      -0.006602
 1859 Fit      -0.007335
 1860 Fit      -0.001839
 1861 Fit      -0.001817
 1862 Fit      -0.000822
 1863 Fit       0.001092
 1864 Fit       0.001156
 1865 Fit       0.002448
 1866 Fit       0.005080
 1867 Fit       0.005351
 1868 Fit       0.003063
 1869 Fit       0.003786
 1870 Fit      -0.009870
 1871 Fit      -0.003613
 1872 Fit      -0.005216
 1873 Fit      -0.004073
 1874 Fit      -0.002452
 1875 Fit       0.000122
 1876 Fit      -0.000639
 1877 Fit      -0.001691
 1878 Fit       0.001212
 1879 Fit       0.001082
 1880 Fit       0.000695
 1881 Fit       0.002537
 1882 Fit       0.002637
 1883 Fit      -0.003829
 1884 Fit      -0.007893
 1885 Fit      -0.003125
 1886 Fit      -0.006608
 1887 Fit      -0.001935
 1888 Fit      -0.004451
 1889 Fit      -0.000724
 1890 Fit      -0.002542
 1891 Fit      -0.004550
 1892 Fit      -0.002539
 1893 Fit       0.000299
 1894 Fit      -0.004226
 1895 Fit       0.003831
 1896 Fit       0.003282
 1897 Fit       0.000649
 1898 Fit       0.002974
 1899 Fit       0.002115
 1900 Fit       0.000519
 1901 Fit       0.000811
 1902 Fit       0.001975
 1903 Fit       0.001122
 1904 Fit       0.006255
 1905 Fit       0.006068
 1906 Fit       0.004456
 1907 Fit       0.004722
 1908 Fit       0.002980
 1909 Fit       0.003487
 1910 Fit       0.002086
 1911 Fit       0.002863
 1912 Fit       0.003105
 1913 Fit       0.003174
 1914 Fit       0.000880
 1915 Fit       0.001900
 1916 Fit       0.001876
 1917 Fit       0.005610
 1918 Fit       0.004016
 1919 Fit       0.004168
 1920 Fit       0.003251
 1921 Fit       0.002067
 1922 Fit       0.001077
 1923 Fit       0.002674
 1924 Fit       0.002682
 1925 Fit       0.001457
 1926 Fit       0.001303
 1927 Fit       0.000426
 1928 Fit       0.000341
 1929 Fit       0.001089
 1930 Fit       0.002656
 1931 Fit       0.001227
 1932 Fit       0.001186
 1933 Fit       0.001595
 1934 Fit       0.001318
 1935 Fit      -0.001062
 1936 Fit      -0.000424
 1937 Fit      -0.001224
 1938 Fit      -0.001443
 1939 Fit       0.000499
 1940 Fit      -0.000965
 1941 Fit      -0.001098
 1942 Fit      -0.000636
 1943 Fit       0.000055
 1944 Fit       0.000327
 1945 Fit       0.000410
 1946 Fit       0.000284
 1947 Fit       0.001588
 1948 Fit       0.001949
 1949 Fit       0.001067
 1950 Fit       0.001267
 1951 Fit       0.000947
 1952 Fit       0.000288
 1953 Fit       0.000048
 1954 Fit      -0.000632
 1955 Fit      -0.000396
 1956 Fit      -0.000715
 1957 Fit       0.000518
 1958 Fit       0.001338
 1959 Fit      -0.000106
 1960 Fit       0.001100
 1961 Fit       0.001860
 1962 Fit       0.002236
 1963 Fit      -0.000047
 1964 Fit       0.001070
 1965 Fit       0.001623
 1966 Fit       0.001442
 1967 Fit       0.000274
 1968 Fit       0.000658
 1969 Fit       0.001570
 1970 Fit       0.003629
 1971 Fit       0.001309
 1972 Fit       0.004147
 1973 Fit       0.001813
 1974 Fit       0.010004
 1975 Fit       0.005329
 1976 Fit       0.006193
 1977 Fit       0.006515
 1978 Fit       0.007266
 1979 Fit       0.006270
 1980 Fit       0.005577
 1981 Fit       0.005415
 1982 Fit       0.006112
 1983 Fit       0.005473
 1984 Fit       0.009316
 1985 Fit       0.009118
 1986 Fit       0.008575
 1987 Fit       0.008592
 1988 Fit       0.008158
 1989 Fit       0.008012
 1990 Fit       0.007621
 1991 Fit       0.006996
 1992 Fit       0.006788
 1993 Fit       0.016193
 1994 Fit       0.013776
 1995 Fit       0.009876
 1996 Fit       0.009711
 1997 Fit       0.014301
 1998 Fit       0.010655
 1999 Fit       0.008664
 2000 Fit       0.008730
 2001 Fit       0.006410
 2002 Fit       0.003207
 2003 Fit       0.007725
 2004 Fit       0.006335
 2005 Fit       0.005343
 2006 Fit       0.006445
 2007 Fit       0.006457
 2008 Fit       0.005783
 2009 Fit       0.005611
 2010 Fit      -0.003958
 2011 Fit      -0.014801
 2012 Fit      -0.004167
 2013 Fit      -0.011078
 2014 Fit      -0.015023
 2015 Fit      -0.018652
 2016 Fit      -0.023210
 2017 Fit      -0.000833
 2018 Fit      -0.003232
 2019 Fit      -0.008434
 2020 Fit      -0.015384
 2021 Fit      -0.011993
 2022 Fit      -0.000383
 2023 Fit      -0.021661
 2024 Fit      -0.023013
 2025 Fit      -0.021886
 2026 Fit      -0.017898
 2027 Fit      -0.010651
 2028 Fit      -0.000431
 2029 Fit      -0.025025
 2030 Fit      -0.023732
 2031 Fit      -0.020838
 2032 Fit      -0.015495
 2033 Fit      -0.007733
 2034 Fit       0.002311
 2035 Fit      -0.021892
 2036 Fit      -0.021476
 2037 Fit      -0.018959
 2038 Fit      -0.014331
 2039 Fit      -0.007644
 2040 Fit       0.000990
 2041 Fit      -0.017600
 2042 Fit      -0.015860
 2043 Fit      -0.011248
 2044 Fit       0.006378
 2045 Fit       0.013691
 2046 Fit       0.011161
 2047 Fit       0.001926
 2048 Fit       0.008470
 2049 Fit       0.016814
 2050 Fit       0.016172
 2051 Fit       0.011435
 2052 Fit       0.001836
 2053 Fit       0.006865
 2054 Fit       0.013857
 2055 Fit       0.016577
 2056 Fit       0.016103
 2057 Fit       0.012685
 2058 Fit       0.004205
 2059 Fit       0.008590
 2060 Fit       0.014384
 2061 Fit       0.014003
 2062 Fit       0.012480
 2063 Fit      -0.020078
 2064 Fit      -0.015868
 2065 Fit      -0.016262
 2066 Fit      -0.023889
 2067 Fit      -0.022480
 2068 Fit      -0.018224
 2069 Fit      -0.011685
 2070 Fit      -0.019580
 2071 Fit      -0.023187
 2072 Fit      -0.021951
 2073 Fit      -0.021026
 2074 Fit      -0.018789
 2075 Fit      -0.013465
 2076 Fit      -0.016667
 2077 Fit      -0.021003
 2078 Fit      -0.022177
 2079 Fit      -0.014510
 2080 Fit      -0.013670
 2081 Fit      -0.012531
 2082 Fit      -0.009952
 2083 Fit      -0.014286
 2084 Fit      -0.015807
 2085 Fit      -0.015419
 2086 Fit      -0.002126
 2087 Fit       0.000000
 2088 Fit       0.001740
 2089 Fit      -0.004412
 2090 Fit      -0.005261
 2091 Fit      -0.003903
 2092 Fit       0.003171
 2093 Fit       0.004186
 2094 Fit       0.005204
 2095 Fit       0.006897
 2096 Fit       0.000554
 2097 Fit       0.001791
 2098 Fit       0.013061
 2099 Fit       0.014136
 2100 Fit       0.015659
 2101 Fit       0.012209
 2102 Fit       0.012184
 2103 Fit       0.019399
 2104 Fit       0.021050
 2105 Fit       0.019469
 2106 Fit       0.023493
 2107 Fit      -0.003416
 2108 Fit      -0.002661
 2109 Fit      -0.001536
 2110 Fit       0.001304
 2111 Fit       0.001843
 2112 Fit       0.001263
 2113 Fit      -0.000020
 2114 Fit      -0.001916
 2115 Fit       0.001785
 2116 Fit       0.000882
 2117 Fit      -0.000522
 2118 Fit      -0.001994
 2119 Fit       0.001043
 2120 Fit       0.000234
 2121 Fit      -0.000881
 2122 Fit      -0.000745
 2123 Fit      -0.002400
 2124 Fit      -0.000901
 2125 Fit      -0.000584
 2126 Fit      -0.000962
 2127 Fit      -0.000357
 2128 Fit       0.001327
 2129 Fit      -0.000450
 2130 Fit      -0.000336
 2131 Fit      -0.002585
 2132 Fit      -0.003120
 2133 Fit      -0.003764
 2134 Fit      -0.000776
 2135 Fit      -0.001532
 2136 Fit      -0.000664
 2137 Fit      -0.000041
 2138 Fit       0.000056
 2139 Fit      -0.002098
 2140 Fit      -0.000946
 2141 Fit      -0.000273
 2142 Fit      -0.000239
 2143 Fit      -0.003139
 2144 Fit      -0.001722
 2145 Fit      -0.000655
 2146 Fit       0.000517
 2147 Fit      -0.000533
 2148 Fit       0.001514
 2149 Fit       0.000871
 2150 Fit      -0.000219
 2151 Fit      -0.001744
 2152 Fit       0.001298
 2153 Fit       0.001324
 2154 Fit       0.000569
 2155 Fit      -0.000949
 2156 Fit      -0.002933
 2157 Fit      -0.000382
 2158 Fit      -0.001182
 2159 Fit      -0.000428
 2160 Fit      -0.000186
 2161 Fit      -0.000749
 2162 Fit      -0.000743
 2163 Fit      -0.000093
 2164 Fit      -0.000086
 2165 Fit      -0.000578
 2166 Fit      -0.001300
 2167 Fit      -0.000566
 2168 Fit      -0.000333
 2169 Fit      -0.000469
 2170 Fit      -0.000868
 2171 Fit      -0.000981
 2172 Fit      -0.001444
 2173 Fit      -0.004160
 2174 Fit      -0.003514
 2175 Fit      -0.004314
 2176 Fit      -0.004643
 2177 Fit      -0.003080
 2178 Fit      -0.002392
 2179 Fit      -0.002986
 2180 Fit      -0.005356
 2181 Fit      -0.005392
 2182 Fit      -0.005786
 2183 Fit      -0.005169
 2184 Fit      -0.003347
 2185 Fit      -0.002377
 2186 Fit      -0.002813
 2187 Fit      -0.005015
 2188 Fit      -0.002550
 2189 Fit      -0.000998
 2190 Fit      -0.000623
 2191 Fit      -0.004618
 2192 Fit      -0.001427
 2193 Fit       0.000239
 2194 Fit       0.000775
 2195 Fit      -0.003823
 2196 Fit      -0.000268
 2197 Fit      -0.001636
 2198 Fit      -0.000560
 2199 Fit       0.000554
 2200 Fit       0.000274
 2201 Fit      -0.000856
 2202 Fit      -0.001758
 2203 Fit      -0.003550
 2204 Fit      -0.002653
 2205 Fit      -0.001510
 2206 Fit       0.000535
 2207 Fit      -0.000496
 2208 Fit      -0.001706
 2209 Fit      -0.002826
 2210 Fit      -0.003684
 2211 Fit      -0.004005
 2212 Fit      -0.002630
 2213 Fit      -0.002629
 2214 Fit      -0.003650
 2215 Fit      -0.001772
 2216 Fit      -0.001264
 2217 Fit      -0.001230
 2218 Fit      -0.002098
 2219 Fit      -0.003805
 2220 Fit      -0.000883
 2221 Fit      -0.000322
 2222 Fit      -0.000383
 2223 Fit      -0.001340
 2224 Fit      -0.003048
 2225 Fit      -0.004684
 2226 Fit       0.000059
 2227 Fit      -0.001082
 2228 Fit      -0.002567
 2229 Fit      -0.002743
 2230 Fit      -0.002591
 2231 Fit      -0.001112
 2232 Fit      -0.002858
 2233 Fit      -0.002719
 2234 Fit      -0.001800
 2235 Fit      -0.002397
 2236 Fit      -0.001480
 2237 Fit      -0.001486
 2238 Fit      -0.001272
 2239 Fit      -0.002113
 2240 Fit       0.000429
 2241 Fit       0.000488
 2242 Fit      -0.000210
 2243 Fit      -0.001648
 2244 Fit       0.001229
 2245 Fit       0.001679
 2246 Fit       0.000776
 2247 Fit      -0.000869
 2248 Fit       0.000503
 2249 Fit       0.000753
 2250 Fit      -0.000423
 2251 Fit      -0.000145
 2252 Fit       0.000446
 2253 Fit       0.000790
 2254 Fit       0.001134
 2255 Fit      -0.002584
 2256 Fit      -0.001984
 2257 Fit      -0.001385
 2258 Fit      -0.000818
 2259 Fit      -0.000407
 2260 Fit      -0.000157
 2261 Fit       0.000058
 2262 Fit       0.000353
 2263 Fit      -0.002282
 2264 Fit      -0.001913
 2265 Fit      -0.001673
 2266 Fit      -0.001405
 2267 Fit      -0.001856
 2268 Fit      -0.001059
 2269 Fit      -0.000822
 2270 Fit      -0.001032
 2271 Fit      -0.001631
 2272 Fit      -0.000467
 2273 Fit       0.000358
 2274 Fit       0.000611
 2275 Fit       0.000353
 2276 Fit      -0.000183
 2277 Fit      -0.000901
 2278 Fit       0.000259
 2279 Fit       0.001159
 2280 Fit       0.001403
 2281 Fit      -0.000129
 2282 Fit       0.001074
 -----------------------------------------------------------------
 Leave Link  602 at Wed Apr 26 14:33:29 2017, MaxMem=    33554432 cpu:         6.4
 (Enter /home/michal/g09/l9999.exe)

 Test job not archived.
 1\1\GINC-LINUX\SP\RHF\6-31G(d)\C27H46O3\MICHAL\26-Apr-2017\0\\#P HF/6-
 31G* SCF(Conver=6) NoSymm Test Pop=mk IOp(6/33=2) GFInput GFPrint\\MEP
  - Input generated by R.E.D.-III.x MOLECULE\\0,1\C,0,7.50931483,2.1495
 3316,-0.05057936\H,0,7.40366143,2.06963945,1.03830553\C,0,6.75813043,0
 .98185926,-0.70984258\H,0,7.14714307,0.03204921,-0.32993347\H,0,6.9828
 1326,1.00580443,-1.7878027\C,0,5.2585417,1.06065435,-0.49026367\C,0,4.
 57754165,2.38522323,-0.85690775\C,0,5.4113268,3.54756704,-0.23432619\H
 ,0,5.25926188,3.5333741,0.85352137\H,0,5.01880804,4.5062636,-0.5902285
 3\C,0,6.9210731,3.48265581,-0.51283126\H,0,7.12045227,3.60954478,-1.58
 721661\H,0,7.43261851,4.30501831,0.\C,0,4.59847562,0.,0.\H,0,5.1543729
 6,-0.90495654,0.23820972\C,0,3.12014592,-0.04281446,0.25854225\H,0,2.7
 0846626,-1.00892999,-0.0598422\C,0,2.36239277,1.10036145,-0.44039036\H
 ,0,2.34742187,0.82316427,-1.50393939\C,0,3.12305815,2.44216011,-0.2694
 3449\H,0,3.23903302,2.58179121,0.81540393\C,0,2.29937979,3.64324555,-0
 .79234665\H,0,2.28983553,3.64076476,-1.88700549\H,0,2.79104533,4.57791
 687,-0.49876039\C,0,0.83901492,3.68127425,-0.29688493\H,0,0.82219262,3
 .84426926,0.79016876\H,0,0.34426381,4.54646848,-0.74984941\C,0,0.09526
 741,2.3667571,-0.60975827\C,0,0.91624641,1.23047104,0.0612845\H,0,0.98
 343054,1.51170734,1.12119755\C,0,0.,0.,0.\H,0,0.24003716,-0.72613755,0
 .7815814\H,0,0.10128705,-0.51762864,-0.96255218\C,0,-1.42554153,0.5977
 0681,0.16141259\H,0,-2.08536348,0.25080656,-0.64264954\H,0,-1.89018702
 ,0.27814533,1.09937267\C,0,-1.28164274,2.15485042,0.11068866\H,0,-1.13
 574568,2.51562724,1.13938457\C,0,-0.06187894,2.17469483,-2.13512646\H,
 0,0.89990585,2.10362343,-2.64965921\H,0,-0.62395066,1.26768878,-2.3772
 9825\H,0,-0.60052895,3.01968718,-2.57732068\C,0,-2.54929996,2.84899211
 ,-0.44605042\H,0,-2.69910144,2.48338886,-1.47253701\C,0,-2.43569044,4.
 38348797,-0.52088857\H,0,-2.11851193,4.81752365,0.43394298\H,0,-3.4043
 8214,4.82662179,-0.78092227\H,0,-1.71878082,4.70428529,-1.28106123\C,0
 ,4.57472911,2.51662364,-2.40483255\H,0,4.28577455,3.52420072,-2.718055
 5\H,0,5.562052,2.31951045,-2.82918528\H,0,3.88100431,1.80394089,-2.861
 57941\O,0,2.835986,0.07634356,1.67997396\O,0,3.32460452,-1.13064058,2.
 32971325\H,0,4.09572744,-0.78330295,2.80788843\O,0,8.91946695,2.064500
 33,-0.27130789\H,0,9.09106476,2.15424124,-1.21928704\C,0,-3.83040989,2
 .4397366,0.32928039\H,0,-4.6880851,2.89893025,-0.18310981\H,0,-3.97814
 623,1.3561189,0.24141872\C,0,-3.8893361,2.82481282,1.81711485\H,0,-3.0
 618384,2.34648099,2.35507713\H,0,-3.74450023,3.90661182,1.92419245\C,0
 ,-5.22498448,2.4177829,2.46122417\H,0,-5.36730651,1.33629392,2.3213416
 9\H,0,-6.04271496,2.90349502,1.90906374\C,0,-5.39662904,2.73857373,3.9
 6433368\H,0,-6.40231226,2.3838231,4.23475096\C,0,-4.3970521,1.97754736
 ,4.85116984\H,0,-3.36837388,2.31845673,4.68672809\H,0,-4.62458798,2.12
 807644,5.9127032\H,0,-4.42767101,0.89969778,4.65286629\C,0,-5.3570208,
 4.24765439,4.25712591\H,0,-4.36191988,4.6690192,4.07357692\H,0,-5.6079
 0055,4.44813544,5.30504789\H,0,-6.07256649,4.79470117,3.63187785\\Vers
 ion=EM64L-G09RevD.01\HF=-1273.6829869\RMSD=5.641e-07\Dipole=0.1214199,
 0.5029032,-0.8561774\Quadrupole=-5.1412038,2.0584899,3.082714,2.152612
 4,-7.8037841,-2.0218967\PG=C01 [X(C27H46O3)]\\@


 YOU WILL NEVER "FIND" TIME FOR ANYTHING.
 IF YOU WANT TIME, YOU MUST MAKE IT.

                        -- CHARLES BIXTON
 Job cpu time:       0 days  0 hours 12 minutes 25.2 seconds.
 File lengths (MBytes):  RWF=    159 Int=      0 D2E=      0 Chk=     11 Scr=      1
 Normal termination of Gaussian 09 at Wed Apr 26 14:33:29 2017.
