 Entering Gaussian System, Link 0=/home/michal/g09/g09
 Input=JOB2-gau_m1-7-1.com
 Output=JOB2-gau_m1-7-1.log
 Initial command:
 /home/michal/g09/l1.exe "/home/michal/gauss_scratch/Gau-7853.inp" -scrdir="/home/michal/gauss_scratch/"
 Entering Link 1 = /home/michal/g09/l1.exe PID=      7854.
  
 Copyright (c) 1988,1990,1992,1993,1995,1998,2003,2009,2013,
            Gaussian, Inc.  All Rights Reserved.
  
 This is part of the Gaussian(R) 09 program.  It is based on
 the Gaussian(R) 03 system (copyright 2003, Gaussian, Inc.),
 the Gaussian(R) 98 system (copyright 1998, Gaussian, Inc.),
 the Gaussian(R) 94 system (copyright 1995, Gaussian, Inc.),
 the Gaussian 92(TM) system (copyright 1992, Gaussian, Inc.),
 the Gaussian 90(TM) system (copyright 1990, Gaussian, Inc.),
 the Gaussian 88(TM) system (copyright 1988, Gaussian, Inc.),
 the Gaussian 86(TM) system (copyright 1986, Carnegie Mellon
 University), and the Gaussian 82(TM) system (copyright 1983,
 Carnegie Mellon University). Gaussian is a federally registered
 trademark of Gaussian, Inc.
  
 This software contains proprietary and confidential information,
 including trade secrets, belonging to Gaussian, Inc.
  
 This software is provided under written license and may be
 used, copied, transmitted, or stored only in accord with that
 written license.
  
 The following legend is applicable only to US Government
 contracts under FAR:
  
                    RESTRICTED RIGHTS LEGEND
  
 Use, reproduction and disclosure by the US Government is
 subject to restrictions as set forth in subparagraphs (a)
 and (c) of the Commercial Computer Software - Restricted
 Rights clause in FAR 52.227-19.
  
 Gaussian, Inc.
 340 Quinnipiac St., Bldg. 40, Wallingford CT 06492
  
  
 ---------------------------------------------------------------
 Warning -- This program may not be used in any manner that
 competes with the business of Gaussian, Inc. or will provide
 assistance to any competitor of Gaussian, Inc.  The licensee
 of this program is prohibited from giving any competitor of
 Gaussian, Inc. access to this program.  By using this program,
 the user acknowledges that Gaussian, Inc. is engaged in the
 business of creating and licensing software in the field of
 computational chemistry and represents and warrants to the
 licensee that it is not a competitor of Gaussian, Inc. and that
 it will not use this program in any manner prohibited above.
 ---------------------------------------------------------------
  

 Cite this work as:
 Gaussian 09, Revision D.01,
 M. J. Frisch, G. W. Trucks, H. B. Schlegel, G. E. Scuseria, 
 M. A. Robb, J. R. Cheeseman, G. Scalmani, V. Barone, B. Mennucci, 
 G. A. Petersson, H. Nakatsuji, M. Caricato, X. Li, H. P. Hratchian, 
 A. F. Izmaylov, J. Bloino, G. Zheng, J. L. Sonnenberg, M. Hada, 
 M. Ehara, K. Toyota, R. Fukuda, J. Hasegawa, M. Ishida, T. Nakajima, 
 Y. Honda, O. Kitao, H. Nakai, T. Vreven, J. A. Montgomery, Jr., 
 J. E. Peralta, F. Ogliaro, M. Bearpark, J. J. Heyd, E. Brothers, 
 K. N. Kudin, V. N. Staroverov, T. Keith, R. Kobayashi, J. Normand, 
 K. Raghavachari, A. Rendell, J. C. Burant, S. S. Iyengar, J. Tomasi, 
 M. Cossi, N. Rega, J. M. Millam, M. Klene, J. E. Knox, J. B. Cross, 
 V. Bakken, C. Adamo, J. Jaramillo, R. Gomperts, R. E. Stratmann, 
 O. Yazyev, A. J. Austin, R. Cammi, C. Pomelli, J. W. Ochterski, 
 R. L. Martin, K. Morokuma, V. G. Zakrzewski, G. A. Voth, 
 P. Salvador, J. J. Dannenberg, S. Dapprich, A. D. Daniels, 
 O. Farkas, J. B. Foresman, J. V. Ortiz, J. Cioslowski, 
 and D. J. Fox, Gaussian, Inc., Wallingford CT, 2013.
 
 ******************************************
 Gaussian 09:  EM64L-G09RevD.01 24-Apr-2013
                26-Apr-2017 
 ******************************************
 %Mem=256MB
 %NProc=12
 Will use up to   12 processors via shared memory.
 ----------------------------------------------------------------------
 #P HF/6-31G* SCF(Conver=6) NoSymm Test Pop=mk IOp(6/33=2) GFInput GFPr
 int
 ----------------------------------------------------------------------
 1/38=1/1;
 2/12=2,15=1,17=6,18=5,40=1/2;
 3/5=1,6=6,7=1,11=9,16=1,24=110,25=1,30=1/1,2,3;
 4//1;
 5/5=2,6=6,38=5/2;
 6/7=2,8=2,9=2,10=2,15=8,20=1,28=1,33=2/1,2;
 99/5=1,9=1/99;
 Leave Link    1 at Wed Apr 26 13:40:50 2017, MaxMem=    33554432 cpu:         0.6
 (Enter /home/michal/g09/l101.exe)
 ----------------------------------------------
 MEP - Input generated by R.E.D.-III.x MOLECULE
 ----------------------------------------------
 Symbolic Z-matrix:
 Charge =  0 Multiplicity = 1
 C                     1.75841  -1.24848   0.06183 
 H                     1.88341  -1.21423  -1.0274 
 C                     3.14664  -1.25693   0.72128 
 H                     3.72604  -2.1078    0.34967 
 H                     3.00319  -1.42081   1.80092 
 C                     3.9055    0.03671   0.48927 
 C                     3.17357   1.33757   0.84298 
 C                     1.74397   1.27412   0.22144 
 H                     1.83889   1.38316  -0.86753 
 H                     1.15901   2.13222   0.56961 
 C                     0.96837  -0.01992   0.51265 
 H                     0.75326  -0.10633   1.58802 
 H                     0.        0.        0. 
 C                     5.15465   0.        0. 
 H                     5.60472  -0.96421  -0.22898 
 C                     6.00448   1.20855  -0.26769 
 H                     7.03702   1.02321   0.05447 
 C                     5.46542   2.47563   0.42066 
 H                     5.70025   2.33967   1.48551 
 C                     3.92635   2.57741   0.24297 
 H                     3.74967   2.54398  -0.84216 
 C                     3.36947   3.93192   0.74605 
 H                     3.37189   3.95519   1.84039 
 H                     2.31973   4.0274    0.44554 
 C                     4.14122   5.1648    0.23293 
 H                     4.01756   5.24668  -0.85576 
 H                     3.6924    6.06472   0.66985 
 C                     5.64405   5.06986   0.55924 
 C                     6.15653   3.75004  -0.087 
 H                     5.9013    3.83001  -1.15204 
 C                     7.68913   3.84732   0. 
 H                     8.17922   3.242    -0.76769 
 H                     8.04956   3.48817   0.97247 
 C                     7.97171   5.36766  -0.1705 
 H                     8.5986    5.74004   0.64613 
 H                     8.51742   5.57878  -1.09651 
 C                     6.58203   6.08145  -0.18793 
 H                     6.23987   6.04584  -1.23127 
 C                     5.86152   5.0915    2.08996 
 H                     5.46641   4.19512   2.57504 
 H                     6.91938   5.16004   2.35602 
 H                     5.35238   5.9478    2.5417 
 C                     6.67627   7.59797   0.14685 
 H                     7.46521   7.96066  -0.53007 
 C                     7.1489    7.97096   1.56682 
 H                     6.35474   7.85316   2.30994 
 H                     7.45515   9.02313   1.58686 
 H                     8.00667   7.37779   1.89692 
 C                     3.06534   1.42856   2.39001 
 H                     2.38467   2.22901   2.69465 
 H                     2.68437   0.50101   2.82391 
 H                     4.04231   1.61845   2.84521 
 O                     6.06429   1.49964  -1.69141 
 O                     6.80045   0.4199   -2.33162 
 H                     6.08477  -0.03577  -2.80505 
 O                     1.05398  -2.47096   0.29382 
 H                     0.88418  -2.55596   1.24256 
 C                     5.4017    8.41259  -0.18381 
 H                     4.582     8.07667   0.46415 
 H                     5.59269   9.45372   0.10985 
 C                     4.90871   8.39679  -1.64395 
 H                     4.60219   7.38144  -1.92182 
 H                     3.99267   8.99921  -1.69638 
 C                     5.91025   8.89914  -2.70178 
 H                     5.43596   8.8146   -3.69079 
 H                     6.77645   8.22447  -2.73067 
 C                     6.42538   10.34469  -2.53673 
 H                     6.91465   10.42665  -1.55528 
 C                     7.48545   10.65558  -3.60568 
 H                     7.0538    10.5961  -4.61311 
 H                     7.89505   11.66427  -3.4791 
 H                     8.31988   9.94636  -3.55954 
 C                     5.29171   11.38148  -2.58481 
 H                     4.75322   11.32468  -3.53985 
 H                     5.68753   12.39883  -2.48753 
 H                     4.56212   11.23428  -1.78196 
 
 NAtoms=     76 NQM=       76 NQMF=       0 NMMI=      0 NMMIF=      0
                NMic=       0 NMicF=      0.
                    Isotopes and Nuclear Properties:
 (Nuclear quadrupole moments (NQMom) in fm**2, nuclear magnetic moments (NMagM)
  in nuclear magnetons)

  Atom         1           2           3           4           5           6           7           8           9          10
 IAtWgt=          12           1          12           1           1          12          12          12           1           1
 AtmWgt=  12.0000000   1.0078250  12.0000000   1.0078250   1.0078250  12.0000000  12.0000000  12.0000000   1.0078250   1.0078250
 NucSpn=           0           1           0           1           1           0           0           0           1           1
 AtZEff=   0.0000000   0.0000000   0.0000000   0.0000000   0.0000000   0.0000000   0.0000000   0.0000000   0.0000000   0.0000000
 NQMom=    0.0000000   0.0000000   0.0000000   0.0000000   0.0000000   0.0000000   0.0000000   0.0000000   0.0000000   0.0000000
 NMagM=    0.0000000   2.7928460   0.0000000   2.7928460   2.7928460   0.0000000   0.0000000   0.0000000   2.7928460   2.7928460
 AtZNuc=   6.0000000   1.0000000   6.0000000   1.0000000   1.0000000   6.0000000   6.0000000   6.0000000   1.0000000   1.0000000

  Atom        11          12          13          14          15          16          17          18          19          20
 IAtWgt=          12           1           1          12           1          12           1          12           1          12
 AtmWgt=  12.0000000   1.0078250   1.0078250  12.0000000   1.0078250  12.0000000   1.0078250  12.0000000   1.0078250  12.0000000
 NucSpn=           0           1           1           0           1           0           1           0           1           0
 AtZEff=   0.0000000   0.0000000   0.0000000   0.0000000   0.0000000   0.0000000   0.0000000   0.0000000   0.0000000   0.0000000
 NQMom=    0.0000000   0.0000000   0.0000000   0.0000000   0.0000000   0.0000000   0.0000000   0.0000000   0.0000000   0.0000000
 NMagM=    0.0000000   2.7928460   2.7928460   0.0000000   2.7928460   0.0000000   2.7928460   0.0000000   2.7928460   0.0000000
 AtZNuc=   6.0000000   1.0000000   1.0000000   6.0000000   1.0000000   6.0000000   1.0000000   6.0000000   1.0000000   6.0000000

  Atom        21          22          23          24          25          26          27          28          29          30
 IAtWgt=           1          12           1           1          12           1           1          12          12           1
 AtmWgt=   1.0078250  12.0000000   1.0078250   1.0078250  12.0000000   1.0078250   1.0078250  12.0000000  12.0000000   1.0078250
 NucSpn=           1           0           1           1           0           1           1           0           0           1
 AtZEff=   0.0000000   0.0000000   0.0000000   0.0000000   0.0000000   0.0000000   0.0000000   0.0000000   0.0000000   0.0000000
 NQMom=    0.0000000   0.0000000   0.0000000   0.0000000   0.0000000   0.0000000   0.0000000   0.0000000   0.0000000   0.0000000
 NMagM=    2.7928460   0.0000000   2.7928460   2.7928460   0.0000000   2.7928460   2.7928460   0.0000000   0.0000000   2.7928460
 AtZNuc=   1.0000000   6.0000000   1.0000000   1.0000000   6.0000000   1.0000000   1.0000000   6.0000000   6.0000000   1.0000000

  Atom        31          32          33          34          35          36          37          38          39          40
 IAtWgt=          12           1           1          12           1           1          12           1          12           1
 AtmWgt=  12.0000000   1.0078250   1.0078250  12.0000000   1.0078250   1.0078250  12.0000000   1.0078250  12.0000000   1.0078250
 NucSpn=           0           1           1           0           1           1           0           1           0           1
 AtZEff=   0.0000000   0.0000000   0.0000000   0.0000000   0.0000000   0.0000000   0.0000000   0.0000000   0.0000000   0.0000000
 NQMom=    0.0000000   0.0000000   0.0000000   0.0000000   0.0000000   0.0000000   0.0000000   0.0000000   0.0000000   0.0000000
 NMagM=    0.0000000   2.7928460   2.7928460   0.0000000   2.7928460   2.7928460   0.0000000   2.7928460   0.0000000   2.7928460
 AtZNuc=   6.0000000   1.0000000   1.0000000   6.0000000   1.0000000   1.0000000   6.0000000   1.0000000   6.0000000   1.0000000

  Atom        41          42          43          44          45          46          47          48          49          50
 IAtWgt=           1           1          12           1          12           1           1           1          12           1
 AtmWgt=   1.0078250   1.0078250  12.0000000   1.0078250  12.0000000   1.0078250   1.0078250   1.0078250  12.0000000   1.0078250
 NucSpn=           1           1           0           1           0           1           1           1           0           1
 AtZEff=   0.0000000   0.0000000   0.0000000   0.0000000   0.0000000   0.0000000   0.0000000   0.0000000   0.0000000   0.0000000
 NQMom=    0.0000000   0.0000000   0.0000000   0.0000000   0.0000000   0.0000000   0.0000000   0.0000000   0.0000000   0.0000000
 NMagM=    2.7928460   2.7928460   0.0000000   2.7928460   0.0000000   2.7928460   2.7928460   2.7928460   0.0000000   2.7928460
 AtZNuc=   1.0000000   1.0000000   6.0000000   1.0000000   6.0000000   1.0000000   1.0000000   1.0000000   6.0000000   1.0000000

  Atom        51          52          53          54          55          56          57          58          59          60
 IAtWgt=           1           1          16          16           1          16           1          12           1           1
 AtmWgt=   1.0078250   1.0078250  15.9949146  15.9949146   1.0078250  15.9949146   1.0078250  12.0000000   1.0078250   1.0078250
 NucSpn=           1           1           0           0           1           0           1           0           1           1
 AtZEff=   0.0000000   0.0000000   0.0000000   0.0000000   0.0000000   0.0000000   0.0000000   0.0000000   0.0000000   0.0000000
 NQMom=    0.0000000   0.0000000   0.0000000   0.0000000   0.0000000   0.0000000   0.0000000   0.0000000   0.0000000   0.0000000
 NMagM=    2.7928460   2.7928460   0.0000000   0.0000000   2.7928460   0.0000000   2.7928460   0.0000000   2.7928460   2.7928460
 AtZNuc=   1.0000000   1.0000000   8.0000000   8.0000000   1.0000000   8.0000000   1.0000000   6.0000000   1.0000000   1.0000000

  Atom        61          62          63          64          65          66          67          68          69          70
 IAtWgt=          12           1           1          12           1           1          12           1          12           1
 AtmWgt=  12.0000000   1.0078250   1.0078250  12.0000000   1.0078250   1.0078250  12.0000000   1.0078250  12.0000000   1.0078250
 NucSpn=           0           1           1           0           1           1           0           1           0           1
 AtZEff=   0.0000000   0.0000000   0.0000000   0.0000000   0.0000000   0.0000000   0.0000000   0.0000000   0.0000000   0.0000000
 NQMom=    0.0000000   0.0000000   0.0000000   0.0000000   0.0000000   0.0000000   0.0000000   0.0000000   0.0000000   0.0000000
 NMagM=    0.0000000   2.7928460   2.7928460   0.0000000   2.7928460   2.7928460   0.0000000   2.7928460   0.0000000   2.7928460
 AtZNuc=   6.0000000   1.0000000   1.0000000   6.0000000   1.0000000   1.0000000   6.0000000   1.0000000   6.0000000   1.0000000

  Atom        71          72          73          74          75          76
 IAtWgt=           1           1          12           1           1           1
 AtmWgt=   1.0078250   1.0078250  12.0000000   1.0078250   1.0078250   1.0078250
 NucSpn=           1           1           0           1           1           1
 AtZEff=   0.0000000   0.0000000   0.0000000   0.0000000   0.0000000   0.0000000
 NQMom=    0.0000000   0.0000000   0.0000000   0.0000000   0.0000000   0.0000000
 NMagM=    2.7928460   2.7928460   0.0000000   2.7928460   2.7928460   2.7928460
 AtZNuc=   1.0000000   1.0000000   6.0000000   1.0000000   1.0000000   1.0000000
 Leave Link  101 at Wed Apr 26 13:40:51 2017, MaxMem=    33554432 cpu:         1.0
 (Enter /home/michal/g09/l202.exe)
 Symmetry turned off by external request.
 Stoichiometry    C27H46O3
 Framework group  C1[X(C27H46O3)]
 Deg. of freedom   222
 Full point group                 C1      NOp   1
                          Input orientation:                          
 ---------------------------------------------------------------------
 Center     Atomic      Atomic             Coordinates (Angstroms)
 Number     Number       Type             X           Y           Z
 ---------------------------------------------------------------------
      1          6           0        1.758414   -1.248484    0.061833
      2          1           0        1.883409   -1.214233   -1.027400
      3          6           0        3.146637   -1.256926    0.721285
      4          1           0        3.726040   -2.107801    0.349673
      5          1           0        3.003187   -1.420814    1.800920
      6          6           0        3.905500    0.036709    0.489273
      7          6           0        3.173568    1.337571    0.842981
      8          6           0        1.743971    1.274123    0.221441
      9          1           0        1.838889    1.383160   -0.867530
     10          1           0        1.159012    2.132218    0.569607
     11          6           0        0.968374   -0.019918    0.512648
     12          1           0        0.753259   -0.106327    1.588019
     13          1           0        0.000000    0.000000    0.000000
     14          6           0        5.154647    0.000000    0.000000
     15          1           0        5.604724   -0.964209   -0.228978
     16          6           0        6.004478    1.208555   -0.267691
     17          1           0        7.037021    1.023207    0.054470
     18          6           0        5.465418    2.475632    0.420655
     19          1           0        5.700252    2.339670    1.485508
     20          6           0        3.926346    2.577415    0.242968
     21          1           0        3.749673    2.543984   -0.842157
     22          6           0        3.369471    3.931918    0.746049
     23          1           0        3.371895    3.955189    1.840388
     24          1           0        2.319728    4.027397    0.445537
     25          6           0        4.141220    5.164800    0.232928
     26          1           0        4.017560    5.246679   -0.855763
     27          1           0        3.692401    6.064725    0.669854
     28          6           0        5.644053    5.069856    0.559235
     29          6           0        6.156526    3.750035   -0.086999
     30          1           0        5.901301    3.830010   -1.152044
     31          6           0        7.689134    3.847321    0.000000
     32          1           0        8.179219    3.241997   -0.767688
     33          1           0        8.049560    3.488175    0.972469
     34          6           0        7.971713    5.367661   -0.170496
     35          1           0        8.598597    5.740038    0.646132
     36          1           0        8.517422    5.578781   -1.096508
     37          6           0        6.582035    6.081450   -0.187933
     38          1           0        6.239869    6.045840   -1.231269
     39          6           0        5.861519    5.091504    2.089962
     40          1           0        5.466408    4.195117    2.575039
     41          1           0        6.919376    5.160035    2.356019
     42          1           0        5.352381    5.947803    2.541701
     43          6           0        6.676274    7.597973    0.146848
     44          1           0        7.465212    7.960660   -0.530072
     45          6           0        7.148897    7.970962    1.566816
     46          1           0        6.354744    7.853160    2.309936
     47          1           0        7.455154    9.023127    1.586855
     48          1           0        8.006674    7.377790    1.896925
     49          6           0        3.065338    1.428560    2.390008
     50          1           0        2.384666    2.229011    2.694650
     51          1           0        2.684368    0.501009    2.823908
     52          1           0        4.042310    1.618450    2.845213
     53          8           0        6.064290    1.499639   -1.691408
     54          8           0        6.800453    0.419902   -2.331620
     55          1           0        6.084775   -0.035765   -2.805048
     56          8           0        1.053984   -2.470956    0.293820
     57          1           0        0.884180   -2.555961    1.242558
     58          6           0        5.401704    8.412590   -0.183813
     59          1           0        4.581999    8.076669    0.464154
     60          1           0        5.592693    9.453718    0.109851
     61          6           0        4.908711    8.396791   -1.643953
     62          1           0        4.602192    7.381437   -1.921823
     63          1           0        3.992666    8.999208   -1.696379
     64          6           0        5.910247    8.899143   -2.701777
     65          1           0        5.435963    8.814599   -3.690792
     66          1           0        6.776453    8.224474   -2.730673
     67          6           0        6.425380   10.344686   -2.536731
     68          1           0        6.914645   10.426650   -1.555279
     69          6           0        7.485453   10.655581   -3.605675
     70          1           0        7.053798   10.596097   -4.613105
     71          1           0        7.895047   11.664272   -3.479104
     72          1           0        8.319884    9.946356   -3.559536
     73          6           0        5.291709   11.381484   -2.584815
     74          1           0        4.753221   11.324681   -3.539854
     75          1           0        5.687535   12.398835   -2.487535
     76          1           0        4.562124   11.234277   -1.781959
 ---------------------------------------------------------------------
 Rotational constants (GHZ):      0.3021261      0.0637698      0.0613836
 Leave Link  202 at Wed Apr 26 13:40:51 2017, MaxMem=    33554432 cpu:         0.1
 (Enter /home/michal/g09/l301.exe)
 Standard basis: 6-31G(d) (6D, 7F)
 Ernie: Thresh=  0.10000D-02 Tol=  0.10000D-05 Strict=F.
 AO basis set in the form of general basis input (Overlap normalization):
      1 0
 S   6 1.00       0.000000000000
      0.3047524880D+04  0.1834737132D-02
      0.4573695180D+03  0.1403732281D-01
      0.1039486850D+03  0.6884262226D-01
      0.2921015530D+02  0.2321844432D+00
      0.9286662960D+01  0.4679413484D+00
      0.3163926960D+01  0.3623119853D+00
 SP   3 1.00       0.000000000000
      0.7868272350D+01 -0.1193324198D+00  0.6899906659D-01
      0.1881288540D+01 -0.1608541517D+00  0.3164239610D+00
      0.5442492580D+00  0.1143456438D+01  0.7443082909D+00
 SP   1 1.00       0.000000000000
      0.1687144782D+00  0.1000000000D+01  0.1000000000D+01
 D   1 1.00       0.000000000000
      0.8000000000D+00  0.1000000000D+01
 ****
      2 0
 S   3 1.00       0.000000000000
      0.1873113696D+02  0.3349460434D-01
      0.2825394365D+01  0.2347269535D+00
      0.6401216923D+00  0.8137573261D+00
 S   1 1.00       0.000000000000
      0.1612777588D+00  0.1000000000D+01
 ****
      3 0
 S   6 1.00       0.000000000000
      0.3047524880D+04  0.1834737132D-02
      0.4573695180D+03  0.1403732281D-01
      0.1039486850D+03  0.6884262226D-01
      0.2921015530D+02  0.2321844432D+00
      0.9286662960D+01  0.4679413484D+00
      0.3163926960D+01  0.3623119853D+00
 SP   3 1.00       0.000000000000
      0.7868272350D+01 -0.1193324198D+00  0.6899906659D-01
      0.1881288540D+01 -0.1608541517D+00  0.3164239610D+00
      0.5442492580D+00  0.1143456438D+01  0.7443082909D+00
 SP   1 1.00       0.000000000000
      0.1687144782D+00  0.1000000000D+01  0.1000000000D+01
 D   1 1.00       0.000000000000
      0.8000000000D+00  0.1000000000D+01
 ****
      4 0
 S   3 1.00       0.000000000000
      0.1873113696D+02  0.3349460434D-01
      0.2825394365D+01  0.2347269535D+00
      0.6401216923D+00  0.8137573261D+00
 S   1 1.00       0.000000000000
      0.1612777588D+00  0.1000000000D+01
 ****
      5 0
 S   3 1.00       0.000000000000
      0.1873113696D+02  0.3349460434D-01
      0.2825394365D+01  0.2347269535D+00
      0.6401216923D+00  0.8137573261D+00
 S   1 1.00       0.000000000000
      0.1612777588D+00  0.1000000000D+01
 ****
      6 0
 S   6 1.00       0.000000000000
      0.3047524880D+04  0.1834737132D-02
      0.4573695180D+03  0.1403732281D-01
      0.1039486850D+03  0.6884262226D-01
      0.2921015530D+02  0.2321844432D+00
      0.9286662960D+01  0.4679413484D+00
      0.3163926960D+01  0.3623119853D+00
 SP   3 1.00       0.000000000000
      0.7868272350D+01 -0.1193324198D+00  0.6899906659D-01
      0.1881288540D+01 -0.1608541517D+00  0.3164239610D+00
      0.5442492580D+00  0.1143456438D+01  0.7443082909D+00
 SP   1 1.00       0.000000000000
      0.1687144782D+00  0.1000000000D+01  0.1000000000D+01
 D   1 1.00       0.000000000000
      0.8000000000D+00  0.1000000000D+01
 ****
      7 0
 S   6 1.00       0.000000000000
      0.3047524880D+04  0.1834737132D-02
      0.4573695180D+03  0.1403732281D-01
      0.1039486850D+03  0.6884262226D-01
      0.2921015530D+02  0.2321844432D+00
      0.9286662960D+01  0.4679413484D+00
      0.3163926960D+01  0.3623119853D+00
 SP   3 1.00       0.000000000000
      0.7868272350D+01 -0.1193324198D+00  0.6899906659D-01
      0.1881288540D+01 -0.1608541517D+00  0.3164239610D+00
      0.5442492580D+00  0.1143456438D+01  0.7443082909D+00
 SP   1 1.00       0.000000000000
      0.1687144782D+00  0.1000000000D+01  0.1000000000D+01
 D   1 1.00       0.000000000000
      0.8000000000D+00  0.1000000000D+01
 ****
      8 0
 S   6 1.00       0.000000000000
      0.3047524880D+04  0.1834737132D-02
      0.4573695180D+03  0.1403732281D-01
      0.1039486850D+03  0.6884262226D-01
      0.2921015530D+02  0.2321844432D+00
      0.9286662960D+01  0.4679413484D+00
      0.3163926960D+01  0.3623119853D+00
 SP   3 1.00       0.000000000000
      0.7868272350D+01 -0.1193324198D+00  0.6899906659D-01
      0.1881288540D+01 -0.1608541517D+00  0.3164239610D+00
      0.5442492580D+00  0.1143456438D+01  0.7443082909D+00
 SP   1 1.00       0.000000000000
      0.1687144782D+00  0.1000000000D+01  0.1000000000D+01
 D   1 1.00       0.000000000000
      0.8000000000D+00  0.1000000000D+01
 ****
      9 0
 S   3 1.00       0.000000000000
      0.1873113696D+02  0.3349460434D-01
      0.2825394365D+01  0.2347269535D+00
      0.6401216923D+00  0.8137573261D+00
 S   1 1.00       0.000000000000
      0.1612777588D+00  0.1000000000D+01
 ****
     10 0
 S   3 1.00       0.000000000000
      0.1873113696D+02  0.3349460434D-01
      0.2825394365D+01  0.2347269535D+00
      0.6401216923D+00  0.8137573261D+00
 S   1 1.00       0.000000000000
      0.1612777588D+00  0.1000000000D+01
 ****
     11 0
 S   6 1.00       0.000000000000
      0.3047524880D+04  0.1834737132D-02
      0.4573695180D+03  0.1403732281D-01
      0.1039486850D+03  0.6884262226D-01
      0.2921015530D+02  0.2321844432D+00
      0.9286662960D+01  0.4679413484D+00
      0.3163926960D+01  0.3623119853D+00
 SP   3 1.00       0.000000000000
      0.7868272350D+01 -0.1193324198D+00  0.6899906659D-01
      0.1881288540D+01 -0.1608541517D+00  0.3164239610D+00
      0.5442492580D+00  0.1143456438D+01  0.7443082909D+00
 SP   1 1.00       0.000000000000
      0.1687144782D+00  0.1000000000D+01  0.1000000000D+01
 D   1 1.00       0.000000000000
      0.8000000000D+00  0.1000000000D+01
 ****
     12 0
 S   3 1.00       0.000000000000
      0.1873113696D+02  0.3349460434D-01
      0.2825394365D+01  0.2347269535D+00
      0.6401216923D+00  0.8137573261D+00
 S   1 1.00       0.000000000000
      0.1612777588D+00  0.1000000000D+01
 ****
     13 0
 S   3 1.00       0.000000000000
      0.1873113696D+02  0.3349460434D-01
      0.2825394365D+01  0.2347269535D+00
      0.6401216923D+00  0.8137573261D+00
 S   1 1.00       0.000000000000
      0.1612777588D+00  0.1000000000D+01
 ****
     14 0
 S   6 1.00       0.000000000000
      0.3047524880D+04  0.1834737132D-02
      0.4573695180D+03  0.1403732281D-01
      0.1039486850D+03  0.6884262226D-01
      0.2921015530D+02  0.2321844432D+00
      0.9286662960D+01  0.4679413484D+00
      0.3163926960D+01  0.3623119853D+00
 SP   3 1.00       0.000000000000
      0.7868272350D+01 -0.1193324198D+00  0.6899906659D-01
      0.1881288540D+01 -0.1608541517D+00  0.3164239610D+00
      0.5442492580D+00  0.1143456438D+01  0.7443082909D+00
 SP   1 1.00       0.000000000000
      0.1687144782D+00  0.1000000000D+01  0.1000000000D+01
 D   1 1.00       0.000000000000
      0.8000000000D+00  0.1000000000D+01
 ****
     15 0
 S   3 1.00       0.000000000000
      0.1873113696D+02  0.3349460434D-01
      0.2825394365D+01  0.2347269535D+00
      0.6401216923D+00  0.8137573261D+00
 S   1 1.00       0.000000000000
      0.1612777588D+00  0.1000000000D+01
 ****
     16 0
 S   6 1.00       0.000000000000
      0.3047524880D+04  0.1834737132D-02
      0.4573695180D+03  0.1403732281D-01
      0.1039486850D+03  0.6884262226D-01
      0.2921015530D+02  0.2321844432D+00
      0.9286662960D+01  0.4679413484D+00
      0.3163926960D+01  0.3623119853D+00
 SP   3 1.00       0.000000000000
      0.7868272350D+01 -0.1193324198D+00  0.6899906659D-01
      0.1881288540D+01 -0.1608541517D+00  0.3164239610D+00
      0.5442492580D+00  0.1143456438D+01  0.7443082909D+00
 SP   1 1.00       0.000000000000
      0.1687144782D+00  0.1000000000D+01  0.1000000000D+01
 D   1 1.00       0.000000000000
      0.8000000000D+00  0.1000000000D+01
 ****
     17 0
 S   3 1.00       0.000000000000
      0.1873113696D+02  0.3349460434D-01
      0.2825394365D+01  0.2347269535D+00
      0.6401216923D+00  0.8137573261D+00
 S   1 1.00       0.000000000000
      0.1612777588D+00  0.1000000000D+01
 ****
     18 0
 S   6 1.00       0.000000000000
      0.3047524880D+04  0.1834737132D-02
      0.4573695180D+03  0.1403732281D-01
      0.1039486850D+03  0.6884262226D-01
      0.2921015530D+02  0.2321844432D+00
      0.9286662960D+01  0.4679413484D+00
      0.3163926960D+01  0.3623119853D+00
 SP   3 1.00       0.000000000000
      0.7868272350D+01 -0.1193324198D+00  0.6899906659D-01
      0.1881288540D+01 -0.1608541517D+00  0.3164239610D+00
      0.5442492580D+00  0.1143456438D+01  0.7443082909D+00
 SP   1 1.00       0.000000000000
      0.1687144782D+00  0.1000000000D+01  0.1000000000D+01
 D   1 1.00       0.000000000000
      0.8000000000D+00  0.1000000000D+01
 ****
     19 0
 S   3 1.00       0.000000000000
      0.1873113696D+02  0.3349460434D-01
      0.2825394365D+01  0.2347269535D+00
      0.6401216923D+00  0.8137573261D+00
 S   1 1.00       0.000000000000
      0.1612777588D+00  0.1000000000D+01
 ****
     20 0
 S   6 1.00       0.000000000000
      0.3047524880D+04  0.1834737132D-02
      0.4573695180D+03  0.1403732281D-01
      0.1039486850D+03  0.6884262226D-01
      0.2921015530D+02  0.2321844432D+00
      0.9286662960D+01  0.4679413484D+00
      0.3163926960D+01  0.3623119853D+00
 SP   3 1.00       0.000000000000
      0.7868272350D+01 -0.1193324198D+00  0.6899906659D-01
      0.1881288540D+01 -0.1608541517D+00  0.3164239610D+00
      0.5442492580D+00  0.1143456438D+01  0.7443082909D+00
 SP   1 1.00       0.000000000000
      0.1687144782D+00  0.1000000000D+01  0.1000000000D+01
 D   1 1.00       0.000000000000
      0.8000000000D+00  0.1000000000D+01
 ****
     21 0
 S   3 1.00       0.000000000000
      0.1873113696D+02  0.3349460434D-01
      0.2825394365D+01  0.2347269535D+00
      0.6401216923D+00  0.8137573261D+00
 S   1 1.00       0.000000000000
      0.1612777588D+00  0.1000000000D+01
 ****
     22 0
 S   6 1.00       0.000000000000
      0.3047524880D+04  0.1834737132D-02
      0.4573695180D+03  0.1403732281D-01
      0.1039486850D+03  0.6884262226D-01
      0.2921015530D+02  0.2321844432D+00
      0.9286662960D+01  0.4679413484D+00
      0.3163926960D+01  0.3623119853D+00
 SP   3 1.00       0.000000000000
      0.7868272350D+01 -0.1193324198D+00  0.6899906659D-01
      0.1881288540D+01 -0.1608541517D+00  0.3164239610D+00
      0.5442492580D+00  0.1143456438D+01  0.7443082909D+00
 SP   1 1.00       0.000000000000
      0.1687144782D+00  0.1000000000D+01  0.1000000000D+01
 D   1 1.00       0.000000000000
      0.8000000000D+00  0.1000000000D+01
 ****
     23 0
 S   3 1.00       0.000000000000
      0.1873113696D+02  0.3349460434D-01
      0.2825394365D+01  0.2347269535D+00
      0.6401216923D+00  0.8137573261D+00
 S   1 1.00       0.000000000000
      0.1612777588D+00  0.1000000000D+01
 ****
     24 0
 S   3 1.00       0.000000000000
      0.1873113696D+02  0.3349460434D-01
      0.2825394365D+01  0.2347269535D+00
      0.6401216923D+00  0.8137573261D+00
 S   1 1.00       0.000000000000
      0.1612777588D+00  0.1000000000D+01
 ****
     25 0
 S   6 1.00       0.000000000000
      0.3047524880D+04  0.1834737132D-02
      0.4573695180D+03  0.1403732281D-01
      0.1039486850D+03  0.6884262226D-01
      0.2921015530D+02  0.2321844432D+00
      0.9286662960D+01  0.4679413484D+00
      0.3163926960D+01  0.3623119853D+00
 SP   3 1.00       0.000000000000
      0.7868272350D+01 -0.1193324198D+00  0.6899906659D-01
      0.1881288540D+01 -0.1608541517D+00  0.3164239610D+00
      0.5442492580D+00  0.1143456438D+01  0.7443082909D+00
 SP   1 1.00       0.000000000000
      0.1687144782D+00  0.1000000000D+01  0.1000000000D+01
 D   1 1.00       0.000000000000
      0.8000000000D+00  0.1000000000D+01
 ****
     26 0
 S   3 1.00       0.000000000000
      0.1873113696D+02  0.3349460434D-01
      0.2825394365D+01  0.2347269535D+00
      0.6401216923D+00  0.8137573261D+00
 S   1 1.00       0.000000000000
      0.1612777588D+00  0.1000000000D+01
 ****
     27 0
 S   3 1.00       0.000000000000
      0.1873113696D+02  0.3349460434D-01
      0.2825394365D+01  0.2347269535D+00
      0.6401216923D+00  0.8137573261D+00
 S   1 1.00       0.000000000000
      0.1612777588D+00  0.1000000000D+01
 ****
     28 0
 S   6 1.00       0.000000000000
      0.3047524880D+04  0.1834737132D-02
      0.4573695180D+03  0.1403732281D-01
      0.1039486850D+03  0.6884262226D-01
      0.2921015530D+02  0.2321844432D+00
      0.9286662960D+01  0.4679413484D+00
      0.3163926960D+01  0.3623119853D+00
 SP   3 1.00       0.000000000000
      0.7868272350D+01 -0.1193324198D+00  0.6899906659D-01
      0.1881288540D+01 -0.1608541517D+00  0.3164239610D+00
      0.5442492580D+00  0.1143456438D+01  0.7443082909D+00
 SP   1 1.00       0.000000000000
      0.1687144782D+00  0.1000000000D+01  0.1000000000D+01
 D   1 1.00       0.000000000000
      0.8000000000D+00  0.1000000000D+01
 ****
     29 0
 S   6 1.00       0.000000000000
      0.3047524880D+04  0.1834737132D-02
      0.4573695180D+03  0.1403732281D-01
      0.1039486850D+03  0.6884262226D-01
      0.2921015530D+02  0.2321844432D+00
      0.9286662960D+01  0.4679413484D+00
      0.3163926960D+01  0.3623119853D+00
 SP   3 1.00       0.000000000000
      0.7868272350D+01 -0.1193324198D+00  0.6899906659D-01
      0.1881288540D+01 -0.1608541517D+00  0.3164239610D+00
      0.5442492580D+00  0.1143456438D+01  0.7443082909D+00
 SP   1 1.00       0.000000000000
      0.1687144782D+00  0.1000000000D+01  0.1000000000D+01
 D   1 1.00       0.000000000000
      0.8000000000D+00  0.1000000000D+01
 ****
     30 0
 S   3 1.00       0.000000000000
      0.1873113696D+02  0.3349460434D-01
      0.2825394365D+01  0.2347269535D+00
      0.6401216923D+00  0.8137573261D+00
 S   1 1.00       0.000000000000
      0.1612777588D+00  0.1000000000D+01
 ****
     31 0
 S   6 1.00       0.000000000000
      0.3047524880D+04  0.1834737132D-02
      0.4573695180D+03  0.1403732281D-01
      0.1039486850D+03  0.6884262226D-01
      0.2921015530D+02  0.2321844432D+00
      0.9286662960D+01  0.4679413484D+00
      0.3163926960D+01  0.3623119853D+00
 SP   3 1.00       0.000000000000
      0.7868272350D+01 -0.1193324198D+00  0.6899906659D-01
      0.1881288540D+01 -0.1608541517D+00  0.3164239610D+00
      0.5442492580D+00  0.1143456438D+01  0.7443082909D+00
 SP   1 1.00       0.000000000000
      0.1687144782D+00  0.1000000000D+01  0.1000000000D+01
 D   1 1.00       0.000000000000
      0.8000000000D+00  0.1000000000D+01
 ****
     32 0
 S   3 1.00       0.000000000000
      0.1873113696D+02  0.3349460434D-01
      0.2825394365D+01  0.2347269535D+00
      0.6401216923D+00  0.8137573261D+00
 S   1 1.00       0.000000000000
      0.1612777588D+00  0.1000000000D+01
 ****
     33 0
 S   3 1.00       0.000000000000
      0.1873113696D+02  0.3349460434D-01
      0.2825394365D+01  0.2347269535D+00
      0.6401216923D+00  0.8137573261D+00
 S   1 1.00       0.000000000000
      0.1612777588D+00  0.1000000000D+01
 ****
     34 0
 S   6 1.00       0.000000000000
      0.3047524880D+04  0.1834737132D-02
      0.4573695180D+03  0.1403732281D-01
      0.1039486850D+03  0.6884262226D-01
      0.2921015530D+02  0.2321844432D+00
      0.9286662960D+01  0.4679413484D+00
      0.3163926960D+01  0.3623119853D+00
 SP   3 1.00       0.000000000000
      0.7868272350D+01 -0.1193324198D+00  0.6899906659D-01
      0.1881288540D+01 -0.1608541517D+00  0.3164239610D+00
      0.5442492580D+00  0.1143456438D+01  0.7443082909D+00
 SP   1 1.00       0.000000000000
      0.1687144782D+00  0.1000000000D+01  0.1000000000D+01
 D   1 1.00       0.000000000000
      0.8000000000D+00  0.1000000000D+01
 ****
     35 0
 S   3 1.00       0.000000000000
      0.1873113696D+02  0.3349460434D-01
      0.2825394365D+01  0.2347269535D+00
      0.6401216923D+00  0.8137573261D+00
 S   1 1.00       0.000000000000
      0.1612777588D+00  0.1000000000D+01
 ****
     36 0
 S   3 1.00       0.000000000000
      0.1873113696D+02  0.3349460434D-01
      0.2825394365D+01  0.2347269535D+00
      0.6401216923D+00  0.8137573261D+00
 S   1 1.00       0.000000000000
      0.1612777588D+00  0.1000000000D+01
 ****
     37 0
 S   6 1.00       0.000000000000
      0.3047524880D+04  0.1834737132D-02
      0.4573695180D+03  0.1403732281D-01
      0.1039486850D+03  0.6884262226D-01
      0.2921015530D+02  0.2321844432D+00
      0.9286662960D+01  0.4679413484D+00
      0.3163926960D+01  0.3623119853D+00
 SP   3 1.00       0.000000000000
      0.7868272350D+01 -0.1193324198D+00  0.6899906659D-01
      0.1881288540D+01 -0.1608541517D+00  0.3164239610D+00
      0.5442492580D+00  0.1143456438D+01  0.7443082909D+00
 SP   1 1.00       0.000000000000
      0.1687144782D+00  0.1000000000D+01  0.1000000000D+01
 D   1 1.00       0.000000000000
      0.8000000000D+00  0.1000000000D+01
 ****
     38 0
 S   3 1.00       0.000000000000
      0.1873113696D+02  0.3349460434D-01
      0.2825394365D+01  0.2347269535D+00
      0.6401216923D+00  0.8137573261D+00
 S   1 1.00       0.000000000000
      0.1612777588D+00  0.1000000000D+01
 ****
     39 0
 S   6 1.00       0.000000000000
      0.3047524880D+04  0.1834737132D-02
      0.4573695180D+03  0.1403732281D-01
      0.1039486850D+03  0.6884262226D-01
      0.2921015530D+02  0.2321844432D+00
      0.9286662960D+01  0.4679413484D+00
      0.3163926960D+01  0.3623119853D+00
 SP   3 1.00       0.000000000000
      0.7868272350D+01 -0.1193324198D+00  0.6899906659D-01
      0.1881288540D+01 -0.1608541517D+00  0.3164239610D+00
      0.5442492580D+00  0.1143456438D+01  0.7443082909D+00
 SP   1 1.00       0.000000000000
      0.1687144782D+00  0.1000000000D+01  0.1000000000D+01
 D   1 1.00       0.000000000000
      0.8000000000D+00  0.1000000000D+01
 ****
     40 0
 S   3 1.00       0.000000000000
      0.1873113696D+02  0.3349460434D-01
      0.2825394365D+01  0.2347269535D+00
      0.6401216923D+00  0.8137573261D+00
 S   1 1.00       0.000000000000
      0.1612777588D+00  0.1000000000D+01
 ****
     41 0
 S   3 1.00       0.000000000000
      0.1873113696D+02  0.3349460434D-01
      0.2825394365D+01  0.2347269535D+00
      0.6401216923D+00  0.8137573261D+00
 S   1 1.00       0.000000000000
      0.1612777588D+00  0.1000000000D+01
 ****
     42 0
 S   3 1.00       0.000000000000
      0.1873113696D+02  0.3349460434D-01
      0.2825394365D+01  0.2347269535D+00
      0.6401216923D+00  0.8137573261D+00
 S   1 1.00       0.000000000000
      0.1612777588D+00  0.1000000000D+01
 ****
     43 0
 S   6 1.00       0.000000000000
      0.3047524880D+04  0.1834737132D-02
      0.4573695180D+03  0.1403732281D-01
      0.1039486850D+03  0.6884262226D-01
      0.2921015530D+02  0.2321844432D+00
      0.9286662960D+01  0.4679413484D+00
      0.3163926960D+01  0.3623119853D+00
 SP   3 1.00       0.000000000000
      0.7868272350D+01 -0.1193324198D+00  0.6899906659D-01
      0.1881288540D+01 -0.1608541517D+00  0.3164239610D+00
      0.5442492580D+00  0.1143456438D+01  0.7443082909D+00
 SP   1 1.00       0.000000000000
      0.1687144782D+00  0.1000000000D+01  0.1000000000D+01
 D   1 1.00       0.000000000000
      0.8000000000D+00  0.1000000000D+01
 ****
     44 0
 S   3 1.00       0.000000000000
      0.1873113696D+02  0.3349460434D-01
      0.2825394365D+01  0.2347269535D+00
      0.6401216923D+00  0.8137573261D+00
 S   1 1.00       0.000000000000
      0.1612777588D+00  0.1000000000D+01
 ****
     45 0
 S   6 1.00       0.000000000000
      0.3047524880D+04  0.1834737132D-02
      0.4573695180D+03  0.1403732281D-01
      0.1039486850D+03  0.6884262226D-01
      0.2921015530D+02  0.2321844432D+00
      0.9286662960D+01  0.4679413484D+00
      0.3163926960D+01  0.3623119853D+00
 SP   3 1.00       0.000000000000
      0.7868272350D+01 -0.1193324198D+00  0.6899906659D-01
      0.1881288540D+01 -0.1608541517D+00  0.3164239610D+00
      0.5442492580D+00  0.1143456438D+01  0.7443082909D+00
 SP   1 1.00       0.000000000000
      0.1687144782D+00  0.1000000000D+01  0.1000000000D+01
 D   1 1.00       0.000000000000
      0.8000000000D+00  0.1000000000D+01
 ****
     46 0
 S   3 1.00       0.000000000000
      0.1873113696D+02  0.3349460434D-01
      0.2825394365D+01  0.2347269535D+00
      0.6401216923D+00  0.8137573261D+00
 S   1 1.00       0.000000000000
      0.1612777588D+00  0.1000000000D+01
 ****
     47 0
 S   3 1.00       0.000000000000
      0.1873113696D+02  0.3349460434D-01
      0.2825394365D+01  0.2347269535D+00
      0.6401216923D+00  0.8137573261D+00
 S   1 1.00       0.000000000000
      0.1612777588D+00  0.1000000000D+01
 ****
     48 0
 S   3 1.00       0.000000000000
      0.1873113696D+02  0.3349460434D-01
      0.2825394365D+01  0.2347269535D+00
      0.6401216923D+00  0.8137573261D+00
 S   1 1.00       0.000000000000
      0.1612777588D+00  0.1000000000D+01
 ****
     49 0
 S   6 1.00       0.000000000000
      0.3047524880D+04  0.1834737132D-02
      0.4573695180D+03  0.1403732281D-01
      0.1039486850D+03  0.6884262226D-01
      0.2921015530D+02  0.2321844432D+00
      0.9286662960D+01  0.4679413484D+00
      0.3163926960D+01  0.3623119853D+00
 SP   3 1.00       0.000000000000
      0.7868272350D+01 -0.1193324198D+00  0.6899906659D-01
      0.1881288540D+01 -0.1608541517D+00  0.3164239610D+00
      0.5442492580D+00  0.1143456438D+01  0.7443082909D+00
 SP   1 1.00       0.000000000000
      0.1687144782D+00  0.1000000000D+01  0.1000000000D+01
 D   1 1.00       0.000000000000
      0.8000000000D+00  0.1000000000D+01
 ****
     50 0
 S   3 1.00       0.000000000000
      0.1873113696D+02  0.3349460434D-01
      0.2825394365D+01  0.2347269535D+00
      0.6401216923D+00  0.8137573261D+00
 S   1 1.00       0.000000000000
      0.1612777588D+00  0.1000000000D+01
 ****
     51 0
 S   3 1.00       0.000000000000
      0.1873113696D+02  0.3349460434D-01
      0.2825394365D+01  0.2347269535D+00
      0.6401216923D+00  0.8137573261D+00
 S   1 1.00       0.000000000000
      0.1612777588D+00  0.1000000000D+01
 ****
     52 0
 S   3 1.00       0.000000000000
      0.1873113696D+02  0.3349460434D-01
      0.2825394365D+01  0.2347269535D+00
      0.6401216923D+00  0.8137573261D+00
 S   1 1.00       0.000000000000
      0.1612777588D+00  0.1000000000D+01
 ****
     53 0
 S   6 1.00       0.000000000000
      0.5484671660D+04  0.1831074430D-02
      0.8252349460D+03  0.1395017220D-01
      0.1880469580D+03  0.6844507810D-01
      0.5296450000D+02  0.2327143360D+00
      0.1689757040D+02  0.4701928980D+00
      0.5799635340D+01  0.3585208530D+00
 SP   3 1.00       0.000000000000
      0.1553961625D+02 -0.1107775495D+00  0.7087426823D-01
      0.3599933586D+01 -0.1480262627D+00  0.3397528391D+00
      0.1013761750D+01  0.1130767015D+01  0.7271585773D+00
 SP   1 1.00       0.000000000000
      0.2700058226D+00  0.1000000000D+01  0.1000000000D+01
 D   1 1.00       0.000000000000
      0.8000000000D+00  0.1000000000D+01
 ****
     54 0
 S   6 1.00       0.000000000000
      0.5484671660D+04  0.1831074430D-02
      0.8252349460D+03  0.1395017220D-01
      0.1880469580D+03  0.6844507810D-01
      0.5296450000D+02  0.2327143360D+00
      0.1689757040D+02  0.4701928980D+00
      0.5799635340D+01  0.3585208530D+00
 SP   3 1.00       0.000000000000
      0.1553961625D+02 -0.1107775495D+00  0.7087426823D-01
      0.3599933586D+01 -0.1480262627D+00  0.3397528391D+00
      0.1013761750D+01  0.1130767015D+01  0.7271585773D+00
 SP   1 1.00       0.000000000000
      0.2700058226D+00  0.1000000000D+01  0.1000000000D+01
 D   1 1.00       0.000000000000
      0.8000000000D+00  0.1000000000D+01
 ****
     55 0
 S   3 1.00       0.000000000000
      0.1873113696D+02  0.3349460434D-01
      0.2825394365D+01  0.2347269535D+00
      0.6401216923D+00  0.8137573261D+00
 S   1 1.00       0.000000000000
      0.1612777588D+00  0.1000000000D+01
 ****
     56 0
 S   6 1.00       0.000000000000
      0.5484671660D+04  0.1831074430D-02
      0.8252349460D+03  0.1395017220D-01
      0.1880469580D+03  0.6844507810D-01
      0.5296450000D+02  0.2327143360D+00
      0.1689757040D+02  0.4701928980D+00
      0.5799635340D+01  0.3585208530D+00
 SP   3 1.00       0.000000000000
      0.1553961625D+02 -0.1107775495D+00  0.7087426823D-01
      0.3599933586D+01 -0.1480262627D+00  0.3397528391D+00
      0.1013761750D+01  0.1130767015D+01  0.7271585773D+00
 SP   1 1.00       0.000000000000
      0.2700058226D+00  0.1000000000D+01  0.1000000000D+01
 D   1 1.00       0.000000000000
      0.8000000000D+00  0.1000000000D+01
 ****
     57 0
 S   3 1.00       0.000000000000
      0.1873113696D+02  0.3349460434D-01
      0.2825394365D+01  0.2347269535D+00
      0.6401216923D+00  0.8137573261D+00
 S   1 1.00       0.000000000000
      0.1612777588D+00  0.1000000000D+01
 ****
     58 0
 S   6 1.00       0.000000000000
      0.3047524880D+04  0.1834737132D-02
      0.4573695180D+03  0.1403732281D-01
      0.1039486850D+03  0.6884262226D-01
      0.2921015530D+02  0.2321844432D+00
      0.9286662960D+01  0.4679413484D+00
      0.3163926960D+01  0.3623119853D+00
 SP   3 1.00       0.000000000000
      0.7868272350D+01 -0.1193324198D+00  0.6899906659D-01
      0.1881288540D+01 -0.1608541517D+00  0.3164239610D+00
      0.5442492580D+00  0.1143456438D+01  0.7443082909D+00
 SP   1 1.00       0.000000000000
      0.1687144782D+00  0.1000000000D+01  0.1000000000D+01
 D   1 1.00       0.000000000000
      0.8000000000D+00  0.1000000000D+01
 ****
     59 0
 S   3 1.00       0.000000000000
      0.1873113696D+02  0.3349460434D-01
      0.2825394365D+01  0.2347269535D+00
      0.6401216923D+00  0.8137573261D+00
 S   1 1.00       0.000000000000
      0.1612777588D+00  0.1000000000D+01
 ****
     60 0
 S   3 1.00       0.000000000000
      0.1873113696D+02  0.3349460434D-01
      0.2825394365D+01  0.2347269535D+00
      0.6401216923D+00  0.8137573261D+00
 S   1 1.00       0.000000000000
      0.1612777588D+00  0.1000000000D+01
 ****
     61 0
 S   6 1.00       0.000000000000
      0.3047524880D+04  0.1834737132D-02
      0.4573695180D+03  0.1403732281D-01
      0.1039486850D+03  0.6884262226D-01
      0.2921015530D+02  0.2321844432D+00
      0.9286662960D+01  0.4679413484D+00
      0.3163926960D+01  0.3623119853D+00
 SP   3 1.00       0.000000000000
      0.7868272350D+01 -0.1193324198D+00  0.6899906659D-01
      0.1881288540D+01 -0.1608541517D+00  0.3164239610D+00
      0.5442492580D+00  0.1143456438D+01  0.7443082909D+00
 SP   1 1.00       0.000000000000
      0.1687144782D+00  0.1000000000D+01  0.1000000000D+01
 D   1 1.00       0.000000000000
      0.8000000000D+00  0.1000000000D+01
 ****
     62 0
 S   3 1.00       0.000000000000
      0.1873113696D+02  0.3349460434D-01
      0.2825394365D+01  0.2347269535D+00
      0.6401216923D+00  0.8137573261D+00
 S   1 1.00       0.000000000000
      0.1612777588D+00  0.1000000000D+01
 ****
     63 0
 S   3 1.00       0.000000000000
      0.1873113696D+02  0.3349460434D-01
      0.2825394365D+01  0.2347269535D+00
      0.6401216923D+00  0.8137573261D+00
 S   1 1.00       0.000000000000
      0.1612777588D+00  0.1000000000D+01
 ****
     64 0
 S   6 1.00       0.000000000000
      0.3047524880D+04  0.1834737132D-02
      0.4573695180D+03  0.1403732281D-01
      0.1039486850D+03  0.6884262226D-01
      0.2921015530D+02  0.2321844432D+00
      0.9286662960D+01  0.4679413484D+00
      0.3163926960D+01  0.3623119853D+00
 SP   3 1.00       0.000000000000
      0.7868272350D+01 -0.1193324198D+00  0.6899906659D-01
      0.1881288540D+01 -0.1608541517D+00  0.3164239610D+00
      0.5442492580D+00  0.1143456438D+01  0.7443082909D+00
 SP   1 1.00       0.000000000000
      0.1687144782D+00  0.1000000000D+01  0.1000000000D+01
 D   1 1.00       0.000000000000
      0.8000000000D+00  0.1000000000D+01
 ****
     65 0
 S   3 1.00       0.000000000000
      0.1873113696D+02  0.3349460434D-01
      0.2825394365D+01  0.2347269535D+00
      0.6401216923D+00  0.8137573261D+00
 S   1 1.00       0.000000000000
      0.1612777588D+00  0.1000000000D+01
 ****
     66 0
 S   3 1.00       0.000000000000
      0.1873113696D+02  0.3349460434D-01
      0.2825394365D+01  0.2347269535D+00
      0.6401216923D+00  0.8137573261D+00
 S   1 1.00       0.000000000000
      0.1612777588D+00  0.1000000000D+01
 ****
     67 0
 S   6 1.00       0.000000000000
      0.3047524880D+04  0.1834737132D-02
      0.4573695180D+03  0.1403732281D-01
      0.1039486850D+03  0.6884262226D-01
      0.2921015530D+02  0.2321844432D+00
      0.9286662960D+01  0.4679413484D+00
      0.3163926960D+01  0.3623119853D+00
 SP   3 1.00       0.000000000000
      0.7868272350D+01 -0.1193324198D+00  0.6899906659D-01
      0.1881288540D+01 -0.1608541517D+00  0.3164239610D+00
      0.5442492580D+00  0.1143456438D+01  0.7443082909D+00
 SP   1 1.00       0.000000000000
      0.1687144782D+00  0.1000000000D+01  0.1000000000D+01
 D   1 1.00       0.000000000000
      0.8000000000D+00  0.1000000000D+01
 ****
     68 0
 S   3 1.00       0.000000000000
      0.1873113696D+02  0.3349460434D-01
      0.2825394365D+01  0.2347269535D+00
      0.6401216923D+00  0.8137573261D+00
 S   1 1.00       0.000000000000
      0.1612777588D+00  0.1000000000D+01
 ****
     69 0
 S   6 1.00       0.000000000000
      0.3047524880D+04  0.1834737132D-02
      0.4573695180D+03  0.1403732281D-01
      0.1039486850D+03  0.6884262226D-01
      0.2921015530D+02  0.2321844432D+00
      0.9286662960D+01  0.4679413484D+00
      0.3163926960D+01  0.3623119853D+00
 SP   3 1.00       0.000000000000
      0.7868272350D+01 -0.1193324198D+00  0.6899906659D-01
      0.1881288540D+01 -0.1608541517D+00  0.3164239610D+00
      0.5442492580D+00  0.1143456438D+01  0.7443082909D+00
 SP   1 1.00       0.000000000000
      0.1687144782D+00  0.1000000000D+01  0.1000000000D+01
 D   1 1.00       0.000000000000
      0.8000000000D+00  0.1000000000D+01
 ****
     70 0
 S   3 1.00       0.000000000000
      0.1873113696D+02  0.3349460434D-01
      0.2825394365D+01  0.2347269535D+00
      0.6401216923D+00  0.8137573261D+00
 S   1 1.00       0.000000000000
      0.1612777588D+00  0.1000000000D+01
 ****
     71 0
 S   3 1.00       0.000000000000
      0.1873113696D+02  0.3349460434D-01
      0.2825394365D+01  0.2347269535D+00
      0.6401216923D+00  0.8137573261D+00
 S   1 1.00       0.000000000000
      0.1612777588D+00  0.1000000000D+01
 ****
     72 0
 S   3 1.00       0.000000000000
      0.1873113696D+02  0.3349460434D-01
      0.2825394365D+01  0.2347269535D+00
      0.6401216923D+00  0.8137573261D+00
 S   1 1.00       0.000000000000
      0.1612777588D+00  0.1000000000D+01
 ****
     73 0
 S   6 1.00       0.000000000000
      0.3047524880D+04  0.1834737132D-02
      0.4573695180D+03  0.1403732281D-01
      0.1039486850D+03  0.6884262226D-01
      0.2921015530D+02  0.2321844432D+00
      0.9286662960D+01  0.4679413484D+00
      0.3163926960D+01  0.3623119853D+00
 SP   3 1.00       0.000000000000
      0.7868272350D+01 -0.1193324198D+00  0.6899906659D-01
      0.1881288540D+01 -0.1608541517D+00  0.3164239610D+00
      0.5442492580D+00  0.1143456438D+01  0.7443082909D+00
 SP   1 1.00       0.000000000000
      0.1687144782D+00  0.1000000000D+01  0.1000000000D+01
 D   1 1.00       0.000000000000
      0.8000000000D+00  0.1000000000D+01
 ****
     74 0
 S   3 1.00       0.000000000000
      0.1873113696D+02  0.3349460434D-01
      0.2825394365D+01  0.2347269535D+00
      0.6401216923D+00  0.8137573261D+00
 S   1 1.00       0.000000000000
      0.1612777588D+00  0.1000000000D+01
 ****
     75 0
 S   3 1.00       0.000000000000
      0.1873113696D+02  0.3349460434D-01
      0.2825394365D+01  0.2347269535D+00
      0.6401216923D+00  0.8137573261D+00
 S   1 1.00       0.000000000000
      0.1612777588D+00  0.1000000000D+01
 ****
     76 0
 S   3 1.00       0.000000000000
      0.1873113696D+02  0.3349460434D-01
      0.2825394365D+01  0.2347269535D+00
      0.6401216923D+00  0.8137573261D+00
 S   1 1.00       0.000000000000
      0.1612777588D+00  0.1000000000D+01
 ****

 AO basis set (Overlap normalization):
 Atom C1       Shell     1 S   6     bf    1 -     1          3.322921360664         -2.359293427105          0.116847511564
      0.3047524880D+04  0.1834737132D-02
      0.4573695180D+03  0.1403732281D-01
      0.1039486850D+03  0.6884262226D-01
      0.2921015530D+02  0.2321844432D+00
      0.9286662960D+01  0.4679413484D+00
      0.3163926960D+01  0.3623119853D+00
 Atom C1       Shell     2 SP   3    bf    2 -     5          3.322921360664         -2.359293427105          0.116847511564
      0.7868272350D+01 -0.1193324198D+00  0.6899906659D-01
      0.1881288540D+01 -0.1608541517D+00  0.3164239610D+00
      0.5442492580D+00  0.1143456438D+01  0.7443082909D+00
 Atom C1       Shell     3 SP   1    bf    6 -     9          3.322921360664         -2.359293427105          0.116847511564
      0.1687144782D+00  0.1000000000D+01  0.1000000000D+01
 Atom C1       Shell     4 D   1     bf   10 -    15          3.322921360664         -2.359293427105          0.116847511564
      0.8000000000D+00  0.1000000000D+01
 Atom H2       Shell     5 S   3     bf   16 -    16          3.559127470774         -2.294566886649         -1.941505139153
      0.1873113696D+02  0.3349460434D-01
      0.2825394365D+01  0.2347269535D+00
      0.6401216923D+00  0.8137573261D+00
 Atom H2       Shell     6 S   1     bf   17 -    17          3.559127470774         -2.294566886649         -1.941505139153
      0.1612777588D+00  0.1000000000D+01
 Atom C3       Shell     7 S   6     bf   18 -    18          5.946283076673         -2.375245890406          1.363030187793
      0.3047524880D+04  0.1834737132D-02
      0.4573695180D+03  0.1403732281D-01
      0.1039486850D+03  0.6884262226D-01
      0.2921015530D+02  0.2321844432D+00
      0.9286662960D+01  0.4679413484D+00
      0.3163926960D+01  0.3623119853D+00
 Atom C3       Shell     8 SP   3    bf   19 -    22          5.946283076673         -2.375245890406          1.363030187793
      0.7868272350D+01 -0.1193324198D+00  0.6899906659D-01
      0.1881288540D+01 -0.1608541517D+00  0.3164239610D+00
      0.5442492580D+00  0.1143456438D+01  0.7443082909D+00
 Atom C3       Shell     9 SP   1    bf   23 -    26          5.946283076673         -2.375245890406          1.363030187793
      0.1687144782D+00  0.1000000000D+01  0.1000000000D+01
 Atom C3       Shell    10 D   1     bf   27 -    32          5.946283076673         -2.375245890406          1.363030187793
      0.8000000000D+00  0.1000000000D+01
 Atom H4       Shell    11 S   3     bf   33 -    33          7.041195519225         -3.983166764903          0.660787018647
      0.1873113696D+02  0.3349460434D-01
      0.2825394365D+01  0.2347269535D+00
      0.6401216923D+00  0.8137573261D+00
 Atom H4       Shell    12 S   1     bf   34 -    34          7.041195519225         -3.983166764903          0.660787018647
      0.1612777588D+00  0.1000000000D+01
 Atom H5       Shell    13 S   3     bf   35 -    35          5.675200218849         -2.684949156797          3.403246002976
      0.1873113696D+02  0.3349460434D-01
      0.2825394365D+01  0.2347269535D+00
      0.6401216923D+00  0.8137573261D+00
 Atom H5       Shell    14 S   1     bf   36 -    36          5.675200218849         -2.684949156797          3.403246002976
      0.1612777588D+00  0.1000000000D+01
 Atom C6       Shell    15 S   6     bf   37 -    37          7.380324826170          0.069369918818          0.924592900181
      0.3047524880D+04  0.1834737132D-02
      0.4573695180D+03  0.1403732281D-01
      0.1039486850D+03  0.6884262226D-01
      0.2921015530D+02  0.2321844432D+00
      0.9286662960D+01  0.4679413484D+00
      0.3163926960D+01  0.3623119853D+00
 Atom C6       Shell    16 SP   3    bf   38 -    41          7.380324826170          0.069369918818          0.924592900181
      0.7868272350D+01 -0.1193324198D+00  0.6899906659D-01
      0.1881288540D+01 -0.1608541517D+00  0.3164239610D+00
      0.5442492580D+00  0.1143456438D+01  0.7443082909D+00
 Atom C6       Shell    17 SP   1    bf   42 -    45          7.380324826170          0.069369918818          0.924592900181
      0.1687144782D+00  0.1000000000D+01  0.1000000000D+01
 Atom C6       Shell    18 D   1     bf   46 -    51          7.380324826170          0.069369918818          0.924592900181
      0.8000000000D+00  0.1000000000D+01
 Atom C7       Shell    19 S   6     bf   52 -    52          5.997174516370          2.527643761461          1.593003433096
      0.3047524880D+04  0.1834737132D-02
      0.4573695180D+03  0.1403732281D-01
      0.1039486850D+03  0.6884262226D-01
      0.2921015530D+02  0.2321844432D+00
      0.9286662960D+01  0.4679413484D+00
      0.3163926960D+01  0.3623119853D+00
 Atom C7       Shell    20 SP   3    bf   53 -    56          5.997174516370          2.527643761461          1.593003433096
      0.7868272350D+01 -0.1193324198D+00  0.6899906659D-01
      0.1881288540D+01 -0.1608541517D+00  0.3164239610D+00
      0.5442492580D+00  0.1143456438D+01  0.7443082909D+00
 Atom C7       Shell    21 SP   1    bf   57 -    60          5.997174516370          2.527643761461          1.593003433096
      0.1687144782D+00  0.1000000000D+01  0.1000000000D+01
 Atom C7       Shell    22 D   1     bf   61 -    66          5.997174516370          2.527643761461          1.593003433096
      0.8000000000D+00  0.1000000000D+01
 Atom C8       Shell    23 S   6     bf   67 -    67          3.295626968982          2.407743132768          0.418463468202
      0.3047524880D+04  0.1834737132D-02
      0.4573695180D+03  0.1403732281D-01
      0.1039486850D+03  0.6884262226D-01
      0.2921015530D+02  0.2321844432D+00
      0.9286662960D+01  0.4679413484D+00
      0.3163926960D+01  0.3623119853D+00
 Atom C8       Shell    24 SP   3    bf   68 -    71          3.295626968982          2.407743132768          0.418463468202
      0.7868272350D+01 -0.1193324198D+00  0.6899906659D-01
      0.1881288540D+01 -0.1608541517D+00  0.3164239610D+00
      0.5442492580D+00  0.1143456438D+01  0.7443082909D+00
 Atom C8       Shell    25 SP   1    bf   72 -    75          3.295626968982          2.407743132768          0.418463468202
      0.1687144782D+00  0.1000000000D+01  0.1000000000D+01
 Atom C8       Shell    26 D   1     bf   76 -    81          3.295626968982          2.407743132768          0.418463468202
      0.8000000000D+00  0.1000000000D+01
 Atom H9       Shell    27 S   3     bf   82 -    82          3.474997449153          2.613794051496         -1.639395019131
      0.1873113696D+02  0.3349460434D-01
      0.2825394365D+01  0.2347269535D+00
      0.6401216923D+00  0.8137573261D+00
 Atom H9       Shell    28 S   1     bf   83 -    83          3.474997449153          2.613794051496         -1.639395019131
      0.1612777588D+00  0.1000000000D+01
 Atom H10      Shell    29 S   3     bf   84 -    84          2.190214830091          4.029307149643          1.076401856984
      0.1873113696D+02  0.3349460434D-01
      0.2825394365D+01  0.2347269535D+00
      0.6401216923D+00  0.8137573261D+00
 Atom H10      Shell    30 S   1     bf   85 -    85          2.190214830091          4.029307149643          1.076401856984
      0.1612777588D+00  0.1000000000D+01
 Atom C11      Shell    31 S   6     bf   86 -    86          1.829962466789         -0.037638733635          0.968764284777
      0.3047524880D+04  0.1834737132D-02
      0.4573695180D+03  0.1403732281D-01
      0.1039486850D+03  0.6884262226D-01
      0.2921015530D+02  0.2321844432D+00
      0.9286662960D+01  0.4679413484D+00
      0.3163926960D+01  0.3623119853D+00
 Atom C11      Shell    32 SP   3    bf   87 -    90          1.829962466789         -0.037638733635          0.968764284777
      0.7868272350D+01 -0.1193324198D+00  0.6899906659D-01
      0.1881288540D+01 -0.1608541517D+00  0.3164239610D+00
      0.5442492580D+00  0.1143456438D+01  0.7443082909D+00
 Atom C11      Shell    33 SP   1    bf   91 -    94          1.829962466789         -0.037638733635          0.968764284777
      0.1687144782D+00  0.1000000000D+01  0.1000000000D+01
 Atom C11      Shell    34 D   1     bf   95 -   100          1.829962466789         -0.037638733635          0.968764284777
      0.8000000000D+00  0.1000000000D+01
 Atom H12      Shell    35 S   3     bf  101 -   101          1.423452801392         -0.200928797148          3.000920795949
      0.1873113696D+02  0.3349460434D-01
      0.2825394365D+01  0.2347269535D+00
      0.6401216923D+00  0.8137573261D+00
 Atom H12      Shell    36 S   1     bf  102 -   102          1.423452801392         -0.200928797148          3.000920795949
      0.1612777588D+00  0.1000000000D+01
 Atom H13      Shell    37 S   3     bf  103 -   103          0.000000000000          0.000000000000          0.000000000000
      0.1873113696D+02  0.3349460434D-01
      0.2825394365D+01  0.2347269535D+00
      0.6401216923D+00  0.8137573261D+00
 Atom H13      Shell    38 S   1     bf  104 -   104          0.000000000000          0.000000000000          0.000000000000
      0.1612777588D+00  0.1000000000D+01
 Atom C14      Shell    39 S   6     bf  105 -   105          9.740870310221          0.000000000000          0.000000000000
      0.3047524880D+04  0.1834737132D-02
      0.4573695180D+03  0.1403732281D-01
      0.1039486850D+03  0.6884262226D-01
      0.2921015530D+02  0.2321844432D+00
      0.9286662960D+01  0.4679413484D+00
      0.3163926960D+01  0.3623119853D+00
 Atom C14      Shell    40 SP   3    bf  106 -   109          9.740870310221          0.000000000000          0.000000000000
      0.7868272350D+01 -0.1193324198D+00  0.6899906659D-01
      0.1881288540D+01 -0.1608541517D+00  0.3164239610D+00
      0.5442492580D+00  0.1143456438D+01  0.7443082909D+00
 Atom C14      Shell    41 SP   1    bf  110 -   113          9.740870310221          0.000000000000          0.000000000000
      0.1687144782D+00  0.1000000000D+01  0.1000000000D+01
 Atom C14      Shell    42 D   1     bf  114 -   119          9.740870310221          0.000000000000          0.000000000000
      0.8000000000D+00  0.1000000000D+01
 Atom H15      Shell    43 S   3     bf  120 -   120         10.591393221439         -1.822090245665         -0.432705842737
      0.1873113696D+02  0.3349460434D-01
      0.2825394365D+01  0.2347269535D+00
      0.6401216923D+00  0.8137573261D+00
 Atom H15      Shell    44 S   1     bf  121 -   121         10.591393221439         -1.822090245665         -0.432705842737
      0.1612777588D+00  0.1000000000D+01
 Atom C16      Shell    45 S   6     bf  122 -   122         11.346819576752          2.283837607482         -0.505863453026
      0.3047524880D+04  0.1834737132D-02
      0.4573695180D+03  0.1403732281D-01
      0.1039486850D+03  0.6884262226D-01
      0.2921015530D+02  0.2321844432D+00
      0.9286662960D+01  0.4679413484D+00
      0.3163926960D+01  0.3623119853D+00
 Atom C16      Shell    46 SP   3    bf  123 -   126         11.346819576752          2.283837607482         -0.505863453026
      0.7868272350D+01 -0.1193324198D+00  0.6899906659D-01
      0.1881288540D+01 -0.1608541517D+00  0.3164239610D+00
      0.5442492580D+00  0.1143456438D+01  0.7443082909D+00
 Atom C16      Shell    47 SP   1    bf  127 -   130         11.346819576752          2.283837607482         -0.505863453026
      0.1687144782D+00  0.1000000000D+01  0.1000000000D+01
 Atom C16      Shell    48 D   1     bf  131 -   136         11.346819576752          2.283837607482         -0.505863453026
      0.8000000000D+00  0.1000000000D+01
 Atom H17      Shell    49 S   3     bf  137 -   137         13.298043029386          1.933580478128          0.102932796643
      0.1873113696D+02  0.3349460434D-01
      0.2825394365D+01  0.2347269535D+00
      0.6401216923D+00  0.8137573261D+00
 Atom H17      Shell    50 S   1     bf  138 -   138         13.298043029386          1.933580478128          0.102932796643
      0.1612777588D+00  0.1000000000D+01
 Atom C18      Shell    51 S   6     bf  139 -   139         10.328143845353          4.678266882650          0.794923029888
      0.3047524880D+04  0.1834737132D-02
      0.4573695180D+03  0.1403732281D-01
      0.1039486850D+03  0.6884262226D-01
      0.2921015530D+02  0.2321844432D+00
      0.9286662960D+01  0.4679413484D+00
      0.3163926960D+01  0.3623119853D+00
 Atom C18      Shell    52 SP   3    bf  140 -   143         10.328143845353          4.678266882650          0.794923029888
      0.7868272350D+01 -0.1193324198D+00  0.6899906659D-01
      0.1881288540D+01 -0.1608541517D+00  0.3164239610D+00
      0.5442492580D+00  0.1143456438D+01  0.7443082909D+00
 Atom C18      Shell    53 SP   1    bf  144 -   147         10.328143845353          4.678266882650          0.794923029888
      0.1687144782D+00  0.1000000000D+01  0.1000000000D+01
 Atom C18      Shell    54 D   1     bf  148 -   153         10.328143845353          4.678266882650          0.794923029888
      0.8000000000D+00  0.1000000000D+01
 Atom H19      Shell    55 S   3     bf  154 -   154         10.771915376304          4.421335560226          2.807203930718
      0.1873113696D+02  0.3349460434D-01
      0.2825394365D+01  0.2347269535D+00
      0.6401216923D+00  0.8137573261D+00
 Atom H19      Shell    56 S   1     bf  155 -   155         10.771915376304          4.421335560226          2.807203930718
      0.1612777588D+00  0.1000000000D+01
 Atom C20      Shell    57 S   6     bf  156 -   156          7.419719512225          4.870607573723          0.459143564870
      0.3047524880D+04  0.1834737132D-02
      0.4573695180D+03  0.1403732281D-01
      0.1039486850D+03  0.6884262226D-01
      0.2921015530D+02  0.2321844432D+00
      0.9286662960D+01  0.4679413484D+00
      0.3163926960D+01  0.3623119853D+00
 Atom C20      Shell    58 SP   3    bf  157 -   160          7.419719512225          4.870607573723          0.459143564870
      0.7868272350D+01 -0.1193324198D+00  0.6899906659D-01
      0.1881288540D+01 -0.1608541517D+00  0.3164239610D+00
      0.5442492580D+00  0.1143456438D+01  0.7443082909D+00
 Atom C20      Shell    59 SP   1    bf  161 -   164          7.419719512225          4.870607573723          0.459143564870
      0.1687144782D+00  0.1000000000D+01  0.1000000000D+01
 Atom C20      Shell    60 D   1     bf  165 -   170          7.419719512225          4.870607573723          0.459143564870
      0.8000000000D+00  0.1000000000D+01
 Atom H21      Shell    61 S   3     bf  171 -   171          7.085854566547          4.807432725190         -1.591446601119
      0.1873113696D+02  0.3349460434D-01
      0.2825394365D+01  0.2347269535D+00
      0.6401216923D+00  0.8137573261D+00
 Atom H21      Shell    62 S   1     bf  172 -   172          7.085854566547          4.807432725190         -1.591446601119
      0.1612777588D+00  0.1000000000D+01
 Atom C22      Shell    63 S   6     bf  173 -   173          6.367378045207          7.430248423731          1.409827384645
      0.3047524880D+04  0.1834737132D-02
      0.4573695180D+03  0.1403732281D-01
      0.1039486850D+03  0.6884262226D-01
      0.2921015530D+02  0.2321844432D+00
      0.9286662960D+01  0.4679413484D+00
      0.3163926960D+01  0.3623119853D+00
 Atom C22      Shell    64 SP   3    bf  174 -   177          6.367378045207          7.430248423731          1.409827384645
      0.7868272350D+01 -0.1193324198D+00  0.6899906659D-01
      0.1881288540D+01 -0.1608541517D+00  0.3164239610D+00
      0.5442492580D+00  0.1143456438D+01  0.7443082909D+00
 Atom C22      Shell    65 SP   1    bf  178 -   181          6.367378045207          7.430248423731          1.409827384645
      0.1687144782D+00  0.1000000000D+01  0.1000000000D+01
 Atom C22      Shell    66 D   1     bf  182 -   187          6.367378045207          7.430248423731          1.409827384645
      0.8000000000D+00  0.1000000000D+01
 Atom H23      Shell    67 S   3     bf  188 -   188          6.371957834285          7.474223390192          3.477830129729
      0.1873113696D+02  0.3349460434D-01
      0.2825394365D+01  0.2347269535D+00
      0.6401216923D+00  0.8137573261D+00
 Atom H23      Shell    68 S   1     bf  189 -   189          6.371957834285          7.474223390192          3.477830129729
      0.1612777588D+00  0.1000000000D+01
 Atom H24      Shell    69 S   3     bf  190 -   190          4.383650566095          7.610677131638          0.841942496328
      0.1873113696D+02  0.3349460434D-01
      0.2825394365D+01  0.2347269535D+00
      0.6401216923D+00  0.8137573261D+00
 Atom H24      Shell    70 S   1     bf  191 -   191          4.383650566095          7.610677131638          0.841942496328
      0.1612777588D+00  0.1000000000D+01
 Atom C25      Shell    71 S   6     bf  192 -   192          7.825772525303          9.760057361052          0.440170790085
      0.3047524880D+04  0.1834737132D-02
      0.4573695180D+03  0.1403732281D-01
      0.1039486850D+03  0.6884262226D-01
      0.2921015530D+02  0.2321844432D+00
      0.9286662960D+01  0.4679413484D+00
      0.3163926960D+01  0.3623119853D+00
 Atom C25      Shell    72 SP   3    bf  193 -   196          7.825772525303          9.760057361052          0.440170790085
      0.7868272350D+01 -0.1193324198D+00  0.6899906659D-01
      0.1881288540D+01 -0.1608541517D+00  0.3164239610D+00
      0.5442492580D+00  0.1143456438D+01  0.7443082909D+00
 Atom C25      Shell    73 SP   1    bf  197 -   200          7.825772525303          9.760057361052          0.440170790085
      0.1687144782D+00  0.1000000000D+01  0.1000000000D+01
 Atom C25      Shell    74 D   1     bf  201 -   206          7.825772525303          9.760057361052          0.440170790085
      0.8000000000D+00  0.1000000000D+01
 Atom H26      Shell    75 S   3     bf  207 -   207          7.592087328751          9.914786814005         -1.617158007013
      0.1873113696D+02  0.3349460434D-01
      0.2825394365D+01  0.2347269535D+00
      0.6401216923D+00  0.8137573261D+00
 Atom H26      Shell    76 S   1     bf  208 -   208          7.592087328751          9.914786814005         -1.617158007013
      0.1612777588D+00  0.1000000000D+01
 Atom H27      Shell    77 S   3     bf  209 -   209          6.977626171464         11.460668773244          1.265839701949
      0.1873113696D+02  0.3349460434D-01
      0.2825394365D+01  0.2347269535D+00
      0.6401216923D+00  0.8137573261D+00
 Atom H27      Shell    78 S   1     bf  210 -   210          6.977626171464         11.460668773244          1.265839701949
      0.1612777588D+00  0.1000000000D+01
 Atom C28      Shell    79 S   6     bf  211 -   211         10.665714959718          9.580638749557          1.056801579739
      0.3047524880D+04  0.1834737132D-02
      0.4573695180D+03  0.1403732281D-01
      0.1039486850D+03  0.6884262226D-01
      0.2921015530D+02  0.2321844432D+00
      0.9286662960D+01  0.4679413484D+00
      0.3163926960D+01  0.3623119853D+00
 Atom C28      Shell    80 SP   3    bf  212 -   215         10.665714959718          9.580638749557          1.056801579739
      0.7868272350D+01 -0.1193324198D+00  0.6899906659D-01
      0.1881288540D+01 -0.1608541517D+00  0.3164239610D+00
      0.5442492580D+00  0.1143456438D+01  0.7443082909D+00
 Atom C28      Shell    81 SP   1    bf  216 -   219         10.665714959718          9.580638749557          1.056801579739
      0.1687144782D+00  0.1000000000D+01  0.1000000000D+01
 Atom C28      Shell    82 D   1     bf  220 -   225         10.665714959718          9.580638749557          1.056801579739
      0.8000000000D+00  0.1000000000D+01
 Atom C29      Shell    83 S   6     bf  226 -   226         11.634148561319          7.086539252119         -0.164405096417
      0.3047524880D+04  0.1834737132D-02
      0.4573695180D+03  0.1403732281D-01
      0.1039486850D+03  0.6884262226D-01
      0.2921015530D+02  0.2321844432D+00
      0.9286662960D+01  0.4679413484D+00
      0.3163926960D+01  0.3623119853D+00
 Atom C29      Shell    84 SP   3    bf  227 -   230         11.634148561319          7.086539252119         -0.164405096417
      0.7868272350D+01 -0.1193324198D+00  0.6899906659D-01
      0.1881288540D+01 -0.1608541517D+00  0.3164239610D+00
      0.5442492580D+00  0.1143456438D+01  0.7443082909D+00
 Atom C29      Shell    85 SP   1    bf  231 -   234         11.634148561319          7.086539252119         -0.164405096417
      0.1687144782D+00  0.1000000000D+01  0.1000000000D+01
 Atom C29      Shell    86 D   1     bf  235 -   240         11.634148561319          7.086539252119         -0.164405096417
      0.8000000000D+00  0.1000000000D+01
 Atom H30      Shell    87 S   3     bf  241 -   241         11.151842547649          7.237670137391         -2.177047596342
      0.1873113696D+02  0.3349460434D-01
      0.2825394365D+01  0.2347269535D+00
      0.6401216923D+00  0.8137573261D+00
 Atom H30      Shell    88 S   1     bf  242 -   242         11.151842547649          7.237670137391         -2.177047596342
      0.1612777588D+00  0.1000000000D+01
 Atom C31      Shell    89 S   6     bf  243 -   243         14.530357383470          7.270382222717          0.000000000000
      0.3047524880D+04  0.1834737132D-02
      0.4573695180D+03  0.1403732281D-01
      0.1039486850D+03  0.6884262226D-01
      0.2921015530D+02  0.2321844432D+00
      0.9286662960D+01  0.4679413484D+00
      0.3163926960D+01  0.3623119853D+00
 Atom C31      Shell    90 SP   3    bf  244 -   247         14.530357383470          7.270382222717          0.000000000000
      0.7868272350D+01 -0.1193324198D+00  0.6899906659D-01
      0.1881288540D+01 -0.1608541517D+00  0.3164239610D+00
      0.5442492580D+00  0.1143456438D+01  0.7443082909D+00
 Atom C31      Shell    91 SP   1    bf  248 -   251         14.530357383470          7.270382222717          0.000000000000
      0.1687144782D+00  0.1000000000D+01  0.1000000000D+01
 Atom C31      Shell    92 D   1     bf  252 -   257         14.530357383470          7.270382222717          0.000000000000
      0.8000000000D+00  0.1000000000D+01
 Atom H32      Shell    93 S   3     bf  258 -   258         15.456483739717          6.126486396945         -1.450720906982
      0.1873113696D+02  0.3349460434D-01
      0.2825394365D+01  0.2347269535D+00
      0.6401216923D+00  0.8137573261D+00
 Atom H32      Shell    94 S   1     bf  259 -   259         15.456483739717          6.126486396945         -1.450720906982
      0.1612777588D+00  0.1000000000D+01
 Atom H33      Shell    95 S   3     bf  260 -   260         15.211464608327          6.591695094530          1.837700177207
      0.1873113696D+02  0.3349460434D-01
      0.2825394365D+01  0.2347269535D+00
      0.6401216923D+00  0.8137573261D+00
 Atom H33      Shell    96 S   1     bf  261 -   261         15.211464608327          6.591695094530          1.837700177207
      0.1612777588D+00  0.1000000000D+01
 Atom C34      Shell    97 S   6     bf  262 -   262         15.064353435101         10.143409849986         -0.322190406602
      0.3047524880D+04  0.1834737132D-02
      0.4573695180D+03  0.1403732281D-01
      0.1039486850D+03  0.6884262226D-01
      0.2921015530D+02  0.2321844432D+00
      0.9286662960D+01  0.4679413484D+00
      0.3163926960D+01  0.3623119853D+00
 Atom C34      Shell    98 SP   3    bf  263 -   266         15.064353435101         10.143409849986         -0.322190406602
      0.7868272350D+01 -0.1193324198D+00  0.6899906659D-01
      0.1881288540D+01 -0.1608541517D+00  0.3164239610D+00
      0.5442492580D+00  0.1143456438D+01  0.7443082909D+00
 Atom C34      Shell    99 SP   1    bf  267 -   270         15.064353435101         10.143409849986         -0.322190406602
      0.1687144782D+00  0.1000000000D+01  0.1000000000D+01
 Atom C34      Shell   100 D   1     bf  271 -   276         15.064353435101         10.143409849986         -0.322190406602
      0.8000000000D+00  0.1000000000D+01
 Atom H35      Shell   101 S   3     bf  277 -   277         16.248994137354         10.847100114713          1.221013413865
      0.1873113696D+02  0.3349460434D-01
      0.2825394365D+01  0.2347269535D+00
      0.6401216923D+00  0.8137573261D+00
 Atom H35      Shell   102 S   1     bf  278 -   278         16.248994137354         10.847100114713          1.221013413865
      0.1612777588D+00  0.1000000000D+01
 Atom H36      Shell   103 S   3     bf  279 -   279         16.095595089393         10.542367961887         -2.072099198909
      0.1873113696D+02  0.3349460434D-01
      0.2825394365D+01  0.2347269535D+00
      0.6401216923D+00  0.8137573261D+00
 Atom H36      Shell   104 S   1     bf  280 -   280         16.095595089393         10.542367961887         -2.072099198909
      0.1612777588D+00  0.1000000000D+01
 Atom C37      Shell   105 S   6     bf  281 -   281         12.438243055739         11.492274650687         -0.355141485592
      0.3047524880D+04  0.1834737132D-02
      0.4573695180D+03  0.1403732281D-01
      0.1039486850D+03  0.6884262226D-01
      0.2921015530D+02  0.2321844432D+00
      0.9286662960D+01  0.4679413484D+00
      0.3163926960D+01  0.3623119853D+00
 Atom C37      Shell   106 SP   3    bf  282 -   285         12.438243055739         11.492274650687         -0.355141485592
      0.7868272350D+01 -0.1193324198D+00  0.6899906659D-01
      0.1881288540D+01 -0.1608541517D+00  0.3164239610D+00
      0.5442492580D+00  0.1143456438D+01  0.7443082909D+00
[...]
 1592 Fit      -0.001839
 1593 Fit      -0.003126
 1594 Fit      -0.001193
 1595 Fit      -0.000776
 1596 Fit      -0.003668
 1597 Fit      -0.003350
 1598 Fit      -0.000508
 1599 Fit       0.000354
 1600 Fit      -0.002459
 1601 Fit      -0.003085
 1602 Fit      -0.002519
 1603 Fit      -0.003121
 1604 Fit      -0.003087
 1605 Fit      -0.002998
 1606 Fit      -0.002598
 1607 Fit      -0.001531
 1608 Fit      -0.000826
 1609 Fit      -0.000666
 1610 Fit      -0.002231
 1611 Fit      -0.000845
 1612 Fit       0.000312
 1613 Fit       0.000909
 1614 Fit       0.001119
 1615 Fit      -0.000881
 1616 Fit       0.000384
 1617 Fit       0.001641
 1618 Fit       0.002158
 1619 Fit       0.001505
 1620 Fit       0.000234
 1621 Fit      -0.001283
 1622 Fit       0.001822
 1623 Fit       0.001767
 1624 Fit       0.000599
 1625 Fit      -0.001511
 1626 Fit       0.002348
 1627 Fit       0.001540
 1628 Fit      -0.000112
 1629 Fit      -0.002403
 1630 Fit       0.000734
 1631 Fit      -0.000455
 1632 Fit      -0.002565
 1633 Fit      -0.002291
 1634 Fit      -0.000097
 1635 Fit       0.001000
 1636 Fit       0.002375
 1637 Fit      -0.001680
 1638 Fit       0.000091
 1639 Fit       0.001860
 1640 Fit       0.003139
 1641 Fit      -0.001533
 1642 Fit       0.000143
 1643 Fit       0.001798
 1644 Fit       0.010766
 1645 Fit       0.006892
 1646 Fit       0.000351
 1647 Fit      -0.007578
 1648 Fit      -0.013334
 1649 Fit      -0.011107
 1650 Fit      -0.002965
 1651 Fit       0.005518
 1652 Fit       0.007467
 1653 Fit       0.006816
 1654 Fit       0.004867
 1655 Fit       0.000387
 1656 Fit      -0.002342
 1657 Fit       0.001982
 1658 Fit       0.003727
 1659 Fit       0.002347
 1660 Fit       0.006188
 1661 Fit       0.004058
 1662 Fit       0.003713
 1663 Fit       0.001948
 1664 Fit       0.003228
 1665 Fit       0.003542
 1666 Fit      -0.005680
 1667 Fit       0.000753
 1668 Fit       0.003775
 1669 Fit       0.005305
 1670 Fit      -0.010101
 1671 Fit      -0.000237
 1672 Fit       0.004381
 1673 Fit      -0.005684
 1674 Fit       0.002665
 1675 Fit       0.004891
 1676 Fit       0.008976
 1677 Fit       0.016027
 1678 Fit       0.010816
 1679 Fit       0.004355
 1680 Fit       0.013206
 1681 Fit       0.008121
 1682 Fit       0.005934
 1683 Fit       0.005363
 1684 Fit       0.005050
 1685 Fit       0.004112
 1686 Fit       0.004372
 1687 Fit       0.004677
 1688 Fit       0.005033
 1689 Fit       0.002828
 1690 Fit       0.003273
 1691 Fit       0.004413
 1692 Fit       0.004955
 1693 Fit       0.005909
 1694 Fit       0.006289
 1695 Fit       0.004869
 1696 Fit       0.009458
 1697 Fit       0.008873
 1698 Fit       0.008704
 1699 Fit       0.008038
 1700 Fit       0.007391
 1701 Fit       0.007705
 1702 Fit       0.006933
 1703 Fit       0.006703
 1704 Fit       0.005960
 1705 Fit       0.007285
 1706 Fit       0.006147
 1707 Fit       0.006317
 1708 Fit       0.006163
 1709 Fit      -0.001203
 1710 Fit       0.011078
 1711 Fit       0.012658
 1712 Fit       0.017873
 1713 Fit       0.009319
 1714 Fit       0.009208
 1715 Fit       0.011365
 1716 Fit       0.018902
 1717 Fit       0.006435
 1718 Fit       0.008324
 1719 Fit       0.006421
 1720 Fit       0.004895
 1721 Fit       0.003073
 1722 Fit      -0.000390
 1723 Fit       0.005729
 1724 Fit       0.004510
 1725 Fit       0.002308
 1726 Fit      -0.002399
 1727 Fit       0.004879
 1728 Fit       0.003278
 1729 Fit      -0.000433
 1730 Fit      -0.008442
 1731 Fit       0.004456
 1732 Fit       0.001763
 1733 Fit      -0.002780
 1734 Fit       0.003332
 1735 Fit       0.001684
 1736 Fit      -0.000485
 1737 Fit       0.003174
 1738 Fit       0.000029
 1739 Fit       0.000227
 1740 Fit       0.001412
 1741 Fit       0.003378
 1742 Fit       0.001719
 1743 Fit       0.005693
 1744 Fit       0.003389
 1745 Fit       0.000400
 1746 Fit       0.006231
 1747 Fit       0.003027
 1748 Fit      -0.003482
 1749 Fit       0.008849
 1750 Fit       0.006545
 1751 Fit       0.004834
 1752 Fit       0.003972
 1753 Fit       0.001936
 1754 Fit       0.002096
 1755 Fit       0.002048
 1756 Fit      -0.002476
 1757 Fit      -0.001472
 1758 Fit      -0.002140
 1759 Fit      -0.009338
 1760 Fit      -0.010549
 1761 Fit       0.007058
 1762 Fit       0.005419
 1763 Fit       0.006223
 1764 Fit       0.002705
 1765 Fit      -0.007581
 1766 Fit      -0.000612
 1767 Fit       0.001761
 1768 Fit      -0.000074
 1769 Fit      -0.005860
 1770 Fit       0.004977
 1771 Fit       0.006743
 1772 Fit       0.006102
 1773 Fit       0.005625
 1774 Fit       0.007624
 1775 Fit       0.007353
 1776 Fit       0.004733
 1777 Fit       0.006542
 1778 Fit       0.004151
 1779 Fit       0.006032
 1780 Fit       0.003636
 1781 Fit       0.005412
 1782 Fit       0.003015
 1783 Fit       0.004377
 1784 Fit       0.000054
 1785 Fit       0.002233
 1786 Fit       0.001574
 1787 Fit       0.002495
 1788 Fit       0.001579
 1789 Fit       0.000057
 1790 Fit       0.000674
 1791 Fit       0.005787
 1792 Fit       0.005081
 1793 Fit       0.005158
 1794 Fit       0.004794
 1795 Fit       0.004278
 1796 Fit       0.004093
 1797 Fit       0.002562
 1798 Fit      -0.016979
 1799 Fit      -0.007173
 1800 Fit      -0.004409
 1801 Fit      -0.008842
 1802 Fit      -0.013921
 1803 Fit      -0.004505
 1804 Fit      -0.004587
 1805 Fit      -0.004878
 1806 Fit      -0.006082
 1807 Fit      -0.007279
 1808 Fit      -0.006625
 1809 Fit      -0.007041
 1810 Fit      -0.013796
 1811 Fit      -0.008940
 1812 Fit      -0.008850
 1813 Fit      -0.013888
 1814 Fit      -0.012781
 1815 Fit      -0.019447
 1816 Fit       0.002912
 1817 Fit       0.005252
 1818 Fit       0.003580
 1819 Fit       0.000938
 1820 Fit       0.002261
 1821 Fit       0.005838
 1822 Fit       0.002889
 1823 Fit       0.001256
 1824 Fit      -0.001966
 1825 Fit      -0.000452
 1826 Fit      -0.001791
 1827 Fit      -0.004517
 1828 Fit      -0.004397
 1829 Fit      -0.003309
 1830 Fit      -0.002248
 1831 Fit      -0.005726
 1832 Fit      -0.009991
 1833 Fit       0.003777
 1834 Fit       0.001504
 1835 Fit       0.000889
 1836 Fit      -0.000925
 1837 Fit      -0.000145
 1838 Fit      -0.001995
 1839 Fit      -0.003377
 1840 Fit      -0.002364
 1841 Fit      -0.001903
 1842 Fit      -0.003438
 1843 Fit      -0.002131
 1844 Fit      -0.000861
 1845 Fit      -0.005219
 1846 Fit      -0.002809
 1847 Fit      -0.001091
 1848 Fit       0.000660
 1849 Fit      -0.005286
 1850 Fit      -0.002891
 1851 Fit      -0.000872
 1852 Fit      -0.003782
 1853 Fit      -0.008018
 1854 Fit      -0.006313
 1855 Fit      -0.003539
 1856 Fit      -0.003387
 1857 Fit      -0.005404
 1858 Fit      -0.002661
 1859 Fit       0.000851
 1860 Fit       0.000415
 1861 Fit       0.000035
 1862 Fit       0.002019
 1863 Fit       0.001655
 1864 Fit       0.003522
 1865 Fit       0.002723
 1866 Fit       0.004316
 1867 Fit       0.005999
 1868 Fit       0.004520
 1869 Fit       0.007373
 1870 Fit       0.001532
 1871 Fit      -0.000019
 1872 Fit       0.001534
 1873 Fit       0.003014
 1874 Fit       0.002880
 1875 Fit       0.002937
 1876 Fit       0.004175
 1877 Fit       0.001271
 1878 Fit       0.001261
 1879 Fit       0.003010
 1880 Fit       0.002921
 1881 Fit       0.004605
 1882 Fit       0.004457
 1883 Fit       0.004253
 1884 Fit       0.005467
 1885 Fit       0.005544
 1886 Fit      -0.001655
 1887 Fit      -0.000755
 1888 Fit      -0.000684
 1889 Fit       0.000291
 1890 Fit       0.001116
 1891 Fit      -0.001513
 1892 Fit      -0.001863
 1893 Fit      -0.001023
 1894 Fit      -0.001911
 1895 Fit      -0.001726
 1896 Fit      -0.001537
 1897 Fit      -0.001671
 1898 Fit      -0.001096
 1899 Fit      -0.001584
 1900 Fit      -0.001482
 1901 Fit       0.000492
 1902 Fit      -0.001134
 1903 Fit       0.000789
 1904 Fit       0.002730
 1905 Fit      -0.000668
 1906 Fit      -0.000956
 1907 Fit       0.001023
 1908 Fit       0.003435
 1909 Fit      -0.000258
 1910 Fit       0.002215
 1911 Fit      -0.001434
 1912 Fit      -0.000798
 1913 Fit       0.000157
 1914 Fit       0.000106
 1915 Fit      -0.000892
 1916 Fit      -0.000467
 1917 Fit       0.000850
 1918 Fit       0.001499
 1919 Fit       0.001322
 1920 Fit       0.000355
 1921 Fit      -0.000096
 1922 Fit       0.001373
 1923 Fit       0.002292
 1924 Fit       0.002589
 1925 Fit       0.000749
 1926 Fit       0.000160
 1927 Fit       0.001181
 1928 Fit       0.000981
 1929 Fit      -0.000982
 1930 Fit       0.002674
 1931 Fit       0.001022
 1932 Fit      -0.000797
 1933 Fit       0.002880
 1934 Fit       0.000195
 1935 Fit      -0.001317
 1936 Fit       0.005495
 1937 Fit       0.005322
 1938 Fit       0.005588
 1939 Fit       0.006389
 1940 Fit       0.006092
 1941 Fit       0.006038
 1942 Fit       0.008780
 1943 Fit       0.010636
 1944 Fit       0.005029
 1945 Fit       0.005929
 1946 Fit       0.006815
 1947 Fit       0.007031
 1948 Fit       0.007544
 1949 Fit       0.007995
 1950 Fit       0.008209
 1951 Fit       0.008488
 1952 Fit       0.008513
 1953 Fit       0.009170
 1954 Fit       0.009338
 1955 Fit       0.007265
 1956 Fit       0.008944
 1957 Fit       0.010789
 1958 Fit       0.008651
 1959 Fit       0.013019
 1960 Fit       0.016164
 1961 Fit       0.015292
 1962 Fit       0.010955
 1963 Fit       0.005584
 1964 Fit       0.006454
 1965 Fit       0.006256
 1966 Fit       0.005818
 1967 Fit       0.007499
 1968 Fit       0.005466
 1969 Fit       0.006011
 1970 Fit       0.002918
 1971 Fit       0.005735
 1972 Fit       0.000162
 1973 Fit      -0.022545
 1974 Fit      -0.018000
 1975 Fit      -0.014394
 1976 Fit      -0.010332
 1977 Fit      -0.002984
 1978 Fit      -0.021028
 1979 Fit      -0.014366
 1980 Fit      -0.017648
 1981 Fit      -0.004535
 1982 Fit      -0.012069
 1983 Fit      -0.016281
 1984 Fit      -0.021218
 1985 Fit      -0.022010
 1986 Fit       0.002752
 1987 Fit      -0.006218
 1988 Fit      -0.013299
 1989 Fit      -0.018321
 1990 Fit      -0.021445
 1991 Fit      -0.024030
 1992 Fit      -0.025294
 1993 Fit       0.000795
 1994 Fit      -0.008980
 1995 Fit      -0.016444
 1996 Fit      -0.018600
 1997 Fit      -0.022214
 1998 Fit      -0.023063
 1999 Fit      -0.021408
 2000 Fit      -0.001789
 2001 Fit      -0.011716
 2002 Fit      -0.012564
 2003 Fit      -0.015392
 2004 Fit      -0.007859
 2005 Fit      -0.001317
 2006 Fit      -0.003401
 2007 Fit       0.013356
 2008 Fit       0.011604
 2009 Fit       0.015843
 2010 Fit       0.016781
 2011 Fit       0.015180
 2012 Fit       0.010148
 2013 Fit      -0.000965
 2014 Fit       0.009698
 2015 Fit       0.015562
 2016 Fit       0.017045
 2017 Fit       0.014917
 2018 Fit       0.008857
 2019 Fit       0.002457
 2020 Fit       0.011511
 2021 Fit       0.013599
 2022 Fit       0.007915
 2023 Fit       0.006309
 2024 Fit       0.001573
 2025 Fit      -0.000147
 2026 Fit      -0.001198
 2027 Fit      -0.002588
 2028 Fit      -0.004425
 2029 Fit      -0.005549
 2030 Fit      -0.004170
 2031 Fit      -0.009104
 2032 Fit      -0.012178
 2033 Fit      -0.013566
 2034 Fit      -0.014478
 2035 Fit      -0.015423
 2036 Fit      -0.015971
 2037 Fit      -0.014858
 2038 Fit      -0.014321
 2039 Fit      -0.019145
 2040 Fit      -0.021190
 2041 Fit      -0.022052
 2042 Fit      -0.022156
 2043 Fit      -0.020624
 2044 Fit      -0.015597
 2045 Fit      -0.018699
 2046 Fit      -0.022629
 2047 Fit      -0.023823
 2048 Fit      -0.022848
 2049 Fit      -0.018764
 2050 Fit      -0.016061
 2051 Fit      -0.019865
 2052 Fit      -0.015534
 2053 Fit       0.023491
 2054 Fit       0.024380
 2055 Fit       0.020943
 2056 Fit       0.019311
 2057 Fit       0.019498
 2058 Fit       0.016253
 2059 Fit       0.014436
 2060 Fit       0.013228
 2061 Fit       0.012230
 2062 Fit       0.011929
 2063 Fit       0.013652
 2064 Fit       0.005560
 2065 Fit       0.004334
 2066 Fit       0.003271
 2067 Fit       0.001889
 2068 Fit       0.000504
 2069 Fit      -0.000407
 2070 Fit       0.000197
 2071 Fit       0.001054
 2072 Fit       0.001827
 2073 Fit       0.004738
 2074 Fit       0.001021
 2075 Fit       0.003351
 2076 Fit       0.001969
 2077 Fit       0.003747
 2078 Fit       0.001638
 2079 Fit      -0.000672
 2080 Fit       0.000908
 2081 Fit       0.000210
 2082 Fit       0.001631
 2083 Fit       0.001122
 2084 Fit       0.001273
 2085 Fit      -0.001140
 2086 Fit      -0.000999
 2087 Fit       0.000700
 2088 Fit      -0.000311
 2089 Fit       0.000840
 2090 Fit       0.000305
 2091 Fit      -0.000647
 2092 Fit       0.002179
 2093 Fit       0.001690
 2094 Fit       0.001362
 2095 Fit       0.001908
 2096 Fit       0.001289
 2097 Fit       0.000181
 2098 Fit       0.001151
 2099 Fit       0.000706
 2100 Fit      -0.000445
 2101 Fit       0.000149
 2102 Fit      -0.000589
 2103 Fit      -0.000578
 2104 Fit      -0.002943
 2105 Fit      -0.003928
 2106 Fit      -0.003903
 2107 Fit      -0.000288
 2108 Fit      -0.000700
 2109 Fit      -0.000827
 2110 Fit       0.000980
 2111 Fit       0.000312
 2112 Fit      -0.000532
 2113 Fit      -0.001955
 2114 Fit      -0.003367
 2115 Fit       0.001488
 2116 Fit       0.000770
 2117 Fit      -0.000396
 2118 Fit      -0.001693
 2119 Fit       0.000153
 2120 Fit       0.000340
 2121 Fit      -0.003707
 2122 Fit      -0.003023
 2123 Fit      -0.001734
 2124 Fit      -0.003785
 2125 Fit       0.002748
 2126 Fit       0.001380
 2127 Fit       0.001430
 2128 Fit       0.001301
 2129 Fit       0.000629
 2130 Fit      -0.000070
 2131 Fit      -0.000090
 2132 Fit       0.000567
 2133 Fit      -0.000701
 2134 Fit      -0.000459
 2135 Fit      -0.002537
 2136 Fit      -0.003057
 2137 Fit      -0.003065
 2138 Fit      -0.002697
 2139 Fit      -0.003477
 2140 Fit      -0.003290
 2141 Fit      -0.002842
 2142 Fit      -0.003387
 2143 Fit      -0.003360
 2144 Fit      -0.002586
 2145 Fit      -0.001697
 2146 Fit      -0.000430
 2147 Fit       0.001082
 2148 Fit       0.001400
 2149 Fit       0.000282
 2150 Fit      -0.001763
 2151 Fit      -0.002919
 2152 Fit      -0.001928
 2153 Fit      -0.001397
 2154 Fit      -0.000232
 2155 Fit       0.000624
 2156 Fit      -0.000133
 2157 Fit      -0.001471
 2158 Fit      -0.000425
 2159 Fit       0.000703
 2160 Fit       0.000172
 2161 Fit       0.001342
 2162 Fit      -0.001985
 2163 Fit      -0.000383
 2164 Fit       0.000909
 2165 Fit       0.001591
 2166 Fit      -0.001007
 2167 Fit       0.000210
 2168 Fit       0.000675
 2169 Fit       0.000359
 2170 Fit      -0.001793
 2171 Fit      -0.000950
 2172 Fit      -0.001246
 2173 Fit      -0.000566
 2174 Fit       0.000565
 2175 Fit      -0.000753
 2176 Fit      -0.002064
 2177 Fit       0.000751
 2178 Fit       0.000211
 2179 Fit      -0.001270
 2180 Fit      -0.000727
 2181 Fit      -0.000305
 2182 Fit      -0.000437
 2183 Fit      -0.002254
 2184 Fit      -0.003415
 2185 Fit      -0.002029
 2186 Fit      -0.001618
 2187 Fit       0.000204
 2188 Fit      -0.000923
 2189 Fit      -0.001495
 2190 Fit      -0.002033
 2191 Fit      -0.001689
 2192 Fit      -0.002342
 2193 Fit      -0.002144
 2194 Fit      -0.001499
 2195 Fit      -0.000732
 2196 Fit      -0.002255
 2197 Fit      -0.002624
 2198 Fit      -0.001803
 2199 Fit      -0.000942
 2200 Fit      -0.000289
 2201 Fit       0.000005
 2202 Fit      -0.001447
 2203 Fit      -0.000449
 2204 Fit       0.000414
 2205 Fit       0.000908
 2206 Fit       0.001195
 2207 Fit      -0.000539
 2208 Fit       0.000262
 2209 Fit       0.001175
 2210 Fit       0.001649
 2211 Fit       0.001093
 2212 Fit       0.000087
 2213 Fit       0.001189
 2214 Fit       0.001070
 2215 Fit       0.000209
 2216 Fit      -0.001180
 2217 Fit       0.001844
 2218 Fit       0.001335
 2219 Fit       0.000296
 2220 Fit      -0.001197
 2221 Fit       0.001617
 2222 Fit       0.000950
 2223 Fit      -0.000099
 2224 Fit      -0.001606
 2225 Fit      -0.000183
 2226 Fit      -0.000979
 2227 Fit       0.000407
 2228 Fit       0.000916
 2229 Fit       0.001688
 2230 Fit      -0.000783
 2231 Fit       0.000406
 2232 Fit       0.001651
 2233 Fit       0.002401
 2234 Fit      -0.000994
 2235 Fit       0.000300
 2236 Fit       0.001500
 2237 Fit      -0.000138
 -----------------------------------------------------------------
 Leave Link  602 at Wed Apr 26 13:41:59 2017, MaxMem=    33554432 cpu:         6.0
 (Enter /home/michal/g09/l9999.exe)

 Test job not archived.
 1\1\GINC-LINUX\SP\RHF\6-31G(d)\C27H46O3\MICHAL\26-Apr-2017\0\\#P HF/6-
 31G* SCF(Conver=6) NoSymm Test Pop=mk IOp(6/33=2) GFInput GFPrint\\MEP
  - Input generated by R.E.D.-III.x MOLECULE\\0,1\C,0,1.75841425,-1.248
 48431,0.06183304\H,0,1.88340914,-1.2142325,-1.02740027\C,0,3.14663748,
 -1.25692599,0.72128451\H,0,3.72604019,-2.10780107,0.34967343\H,0,3.003
 18661,-1.4208139,1.80092022\C,0,3.90549969,0.03670898,0.48927349\C,0,3
 .17356807,1.33757147,0.84298111\C,0,1.74397068,1.27412279,0.22144133\H
 ,0,1.83888945,1.38316024,-0.86753048\H,0,1.15901177,2.13221751,0.56960
 733\C,0,0.96837443,-0.01991756,0.51264798\H,0,0.75325878,-0.10632694,1
 .58801889\H,0,0.,0.,0.\C,0,5.15464656,0.,0.\H,0,5.6047239,-0.96420863,
 -0.22897807\C,0,6.00447831,1.20855481,-0.26769141\H,0,7.03702129,1.023
 20672,0.05446969\C,0,5.46541833,2.47563221,0.42065515\H,0,5.70025211,2
 .33967001,1.48550834\C,0,3.92634646,2.57741452,0.24296831\H,0,3.749672
 74,2.54398383,-0.84215727\C,0,3.36947134,3.93191812,0.74604852\H,0,3.3
 7189486,3.95518867,1.84038844\H,0,2.31972797,4.02739688,0.44553678\C,0
 ,4.14122046,5.16479991,0.23292835\H,0,4.01755958,5.24667921,-0.8557631
 6\H,0,3.69240074,6.06472471,0.66985352\C,0,5.64405327,5.06985567,0.559
 23531\C,0,6.15652626,3.75003506,-0.08699943\H,0,5.90130091,3.83001008,
 -1.15204397\C,0,7.68913396,3.84732057,0.\H,0,8.17921892,3.24199697,-0.
 76768844\H,0,8.04956038,3.48817481,0.97246905\C,0,7.9717125,5.36766131
 ,-0.17049582\H,0,8.59859736,5.74003816,0.64613247\H,0,8.51742208,5.578
 78085,-1.09650767\C,0,6.58203474,6.08144982,-0.18793278\H,0,6.23986907
 ,6.04583997,-1.23126871\C,0,5.86151908,5.09150383,2.08996213\H,0,5.466
 40814,4.1951173,2.57503895\H,0,6.91937629,5.16003537,2.35601892\H,0,5.
 35238134,5.94780328,2.5417008\C,0,6.67627356,7.5979728,0.14684804\H,0,
 7.46521221,7.96066029,-0.53007198\C,0,7.14889747,7.97096234,1.56681558
 \H,0,6.35474428,7.85316038,2.30993607\H,0,7.45515419,9.02312666,1.5868
 5545\H,0,8.00667399,7.37778985,1.89692494\C,0,3.06533769,1.4285604,2.3
 9000782\H,0,2.38466643,2.22901142,2.69465025\H,0,2.68436762,0.50100906
 ,2.82390763\H,0,4.04231025,1.61845039,2.84521314\O,0,6.06429007,1.4996
 3944,-1.69140792\O,0,6.80045251,0.41990206,-2.33162041\H,0,6.0847745,-
 0.03576534,-2.80504795\O,0,1.05398437,-2.47095563,0.2938195\H,0,0.8841
 8022,-2.555961,1.2425582\C,0,5.40170388,8.41258964,-0.18381316\H,0,4.5
 8199857,8.07666852,0.46415408\H,0,5.59269326,9.45371782,0.10985056\C,0
 ,4.9087105,8.39679071,-1.64395339\H,0,4.60219241,7.38143711,-1.9218229
 1\H,0,3.99266644,8.99920768,-1.69637922\C,0,5.91024689,8.89914317,-2.7
 0177683\H,0,5.43596339,8.81459945,-3.69079185\H,0,6.77645271,8.2244737
 5,-2.73067342\C,0,6.42537993,10.34468552,-2.53673135\H,0,6.91464544,10
 .42665008,-1.55527917\C,0,7.48545308,10.65558067,-3.60567519\H,0,7.053
 79833,10.59609705,-4.6131052\H,0,7.8950474,11.66427247,-3.47910425\H,0
 ,8.31988439,9.94635606,-3.55953588\C,0,5.29170933,11.38148361,-2.58481
 467\H,0,4.75322113,11.32468128,-3.53985357\H,0,5.68753489,12.39883452,
 -2.48753465\H,0,4.56212372,11.2342769,-1.78195941\\Version=EM64L-G09Re
 vD.01\HF=-1273.6756227\RMSD=5.609e-07\Dipole=-0.5295057,0.1656721,0.83
 78797\Quadrupole=-8.7932229,1.6036303,7.1895926,-4.1603652,6.5044394,0
 .8566081\PG=C01 [X(C27H46O3)]\\@


 THE MORE ACCURATE THE CALCULATIONS BECOME, THE MORE THE CONCEPTS
 TEND TO VANISH INTO THIN AIR.
     -- R.S. MULLIKEN, J.C.P. 43,S2(1965)
 Job cpu time:       0 days  0 hours 12 minutes 49.1 seconds.
 File lengths (MBytes):  RWF=    159 Int=      0 D2E=      0 Chk=     11 Scr=      1
 Normal termination of Gaussian 09 at Wed Apr 26 13:41:59 2017.
