 Entering Gaussian System, Link 0=/home/michal/g09/g09
 Input=JOB2-gau_m1-11-4.com
 Output=JOB2-gau_m1-11-4.log
 Initial command:
 /home/michal/g09/l1.exe "/home/michal/gauss_scratch/Gau-10287.inp" -scrdir="/home/michal/gauss_scratch/"
 Entering Link 1 = /home/michal/g09/l1.exe PID=     10288.
  
 Copyright (c) 1988,1990,1992,1993,1995,1998,2003,2009,2013,
            Gaussian, Inc.  All Rights Reserved.
  
 This is part of the Gaussian(R) 09 program.  It is based on
 the Gaussian(R) 03 system (copyright 2003, Gaussian, Inc.),
 the Gaussian(R) 98 system (copyright 1998, Gaussian, Inc.),
 the Gaussian(R) 94 system (copyright 1995, Gaussian, Inc.),
 the Gaussian 92(TM) system (copyright 1992, Gaussian, Inc.),
 the Gaussian 90(TM) system (copyright 1990, Gaussian, Inc.),
 the Gaussian 88(TM) system (copyright 1988, Gaussian, Inc.),
 the Gaussian 86(TM) system (copyright 1986, Carnegie Mellon
 University), and the Gaussian 82(TM) system (copyright 1983,
 Carnegie Mellon University). Gaussian is a federally registered
 trademark of Gaussian, Inc.
  
 This software contains proprietary and confidential information,
 including trade secrets, belonging to Gaussian, Inc.
  
 This software is provided under written license and may be
 used, copied, transmitted, or stored only in accord with that
 written license.
  
 The following legend is applicable only to US Government
 contracts under FAR:
  
                    RESTRICTED RIGHTS LEGEND
  
 Use, reproduction and disclosure by the US Government is
 subject to restrictions as set forth in subparagraphs (a)
 and (c) of the Commercial Computer Software - Restricted
 Rights clause in FAR 52.227-19.
  
 Gaussian, Inc.
 340 Quinnipiac St., Bldg. 40, Wallingford CT 06492
  
  
 ---------------------------------------------------------------
 Warning -- This program may not be used in any manner that
 competes with the business of Gaussian, Inc. or will provide
 assistance to any competitor of Gaussian, Inc.  The licensee
 of this program is prohibited from giving any competitor of
 Gaussian, Inc. access to this program.  By using this program,
 the user acknowledges that Gaussian, Inc. is engaged in the
 business of creating and licensing software in the field of
 computational chemistry and represents and warrants to the
 licensee that it is not a competitor of Gaussian, Inc. and that
 it will not use this program in any manner prohibited above.
 ---------------------------------------------------------------
  

 Cite this work as:
 Gaussian 09, Revision D.01,
 M. J. Frisch, G. W. Trucks, H. B. Schlegel, G. E. Scuseria, 
 M. A. Robb, J. R. Cheeseman, G. Scalmani, V. Barone, B. Mennucci, 
 G. A. Petersson, H. Nakatsuji, M. Caricato, X. Li, H. P. Hratchian, 
 A. F. Izmaylov, J. Bloino, G. Zheng, J. L. Sonnenberg, M. Hada, 
 M. Ehara, K. Toyota, R. Fukuda, J. Hasegawa, M. Ishida, T. Nakajima, 
 Y. Honda, O. Kitao, H. Nakai, T. Vreven, J. A. Montgomery, Jr., 
 J. E. Peralta, F. Ogliaro, M. Bearpark, J. J. Heyd, E. Brothers, 
 K. N. Kudin, V. N. Staroverov, T. Keith, R. Kobayashi, J. Normand, 
 K. Raghavachari, A. Rendell, J. C. Burant, S. S. Iyengar, J. Tomasi, 
 M. Cossi, N. Rega, J. M. Millam, M. Klene, J. E. Knox, J. B. Cross, 
 V. Bakken, C. Adamo, J. Jaramillo, R. Gomperts, R. E. Stratmann, 
 O. Yazyev, A. J. Austin, R. Cammi, C. Pomelli, J. W. Ochterski, 
 R. L. Martin, K. Morokuma, V. G. Zakrzewski, G. A. Voth, 
 P. Salvador, J. J. Dannenberg, S. Dapprich, A. D. Daniels, 
 O. Farkas, J. B. Foresman, J. V. Ortiz, J. Cioslowski, 
 and D. J. Fox, Gaussian, Inc., Wallingford CT, 2013.
 
 ******************************************
 Gaussian 09:  EM64L-G09RevD.01 24-Apr-2013
                26-Apr-2017 
 ******************************************
 %Mem=256MB
 %NProc=12
 Will use up to   12 processors via shared memory.
 ----------------------------------------------------------------------
 #P HF/6-31G* SCF(Conver=6) NoSymm Test Pop=mk IOp(6/33=2) GFInput GFPr
 int
 ----------------------------------------------------------------------
 1/38=1/1;
 2/12=2,15=1,17=6,18=5,40=1/2;
 3/5=1,6=6,7=1,11=9,16=1,24=110,25=1,30=1/1,2,3;
 4//1;
 5/5=2,6=6,38=5/2;
 6/7=2,8=2,9=2,10=2,15=8,20=1,28=1,33=2/1,2;
 99/5=1,9=1/99;
 Leave Link    1 at Wed Apr 26 14:02:40 2017, MaxMem=    33554432 cpu:         0.9
 (Enter /home/michal/g09/l101.exe)
 ----------------------------------------------
 MEP - Input generated by R.E.D.-III.x MOLECULE
 ----------------------------------------------
 Symbolic Z-matrix:
 Charge =  0 Multiplicity = 1
 C                     1.01427  -0.88233  -1.68741 
 H                     1.14511   0.0883   -2.18137 
 C                     2.24987  -1.7527   -1.96682 
 H                     2.38847  -1.85983  -3.04715 
 H                     2.04447  -2.76087  -1.57381 
 C                     3.50798  -1.19331  -1.32852 
 C                     3.43386  -0.86628   0.16818 
 C                     2.12913  -0.04964   0.42247 
 H                     2.26626   0.95508   0. 
 H                     1.98909   0.08331   1.50069 
 C                     0.85569  -0.65964  -0.18336 
 H                     0.6215   -1.62016   0.29904 
 H                     0.        0.        0. 
 C                     4.61054  -1.01133  -2.07173 
 H                     4.58313  -1.26581  -3.12965 
 C                     5.91109  -0.46781  -1.55431 
 H                     6.75161  -1.0306   -1.97982 
 C                     5.99419  -0.49138  -0.01723 
 H                     6.14645  -1.5482    0.24342 
 C                     4.66335   0.00533   0.60656 
 H                     4.49227   1.00636   0.18414 
 C                     4.77466   0.17705   2.14017 
 H                     4.78557  -0.80394   2.62606 
 H                     3.88058   0.68795   2.51585 
 C                     6.01851   0.96051   2.60707 
 H                     5.95135   2.00114   2.25904 
 H                     6.01093   0.99685   3.70093 
 C                     7.32236   0.34262   2.06067 
 C                     7.181     0.32773   0.51287 
 H                     6.98527   1.37144   0.23081 
 C                     8.58931   0.        0. 
 H                     8.74436   0.35056  -1.02415 
 H                     8.76446  -1.08345   0.00005 
 C                     9.52008   0.71518   1.0173 
 H                     10.29558   0.03326   1.38647 
 H                     10.04357   1.55228   0.54648 
 C                     8.62134   1.21197   2.20194 
 H                     8.31796   2.24854   1.98529 
 C                     7.556    -1.06645   2.6524 
 H                     6.76065  -1.76864   2.38905 
 H                     8.49798  -1.5029    2.30674 
 H                     7.59884  -1.02578   3.74577 
 C                     9.37936   1.24193   3.55463 
 H                     9.75048   0.2248    3.75339 
 C                     8.48957   1.66505   4.73747 
 H                     7.99727   2.62373   4.53171 
 H                     9.07656   1.78556   5.65302 
 H                     7.71082   0.93023   4.95428 
 C                     3.37238  -2.20463   0.95462 
 H                     3.11936  -2.03716   2.00569 
 H                     2.61624  -2.87928   0.54615 
 H                     4.32996  -2.73284   0.91291 
 O                     6.09602   0.91659  -1.95996 
 O                     6.2723    0.93338  -3.40431 
 H                     5.42875   1.32288  -3.68835 
 O                    -0.16332  -1.42472  -2.29035 
 H                    -0.35641  -2.27943  -1.88005 
 C                     10.61781   2.1704    3.46141 
 H                     11.11926   2.00911   2.50245 
 H                     10.27323   3.21626   3.45188 
 C                     11.65054   1.98492   4.5854 
 H                     11.16287   2.08846   5.56224 
 H                     12.03471   0.95624   4.55239 
 C                     12.82122   2.98512   4.54539 
 H                     13.44676   2.82734   5.43663 
 H                     12.41303   4.00191   4.63926 
 C                     13.73743   2.9417    3.30372 
 H                     13.11995   3.12054   2.41195 
 C                     14.77837   4.07055   3.37476 
 H                     15.43312   3.94447   4.24674 
 H                     15.41365   4.08338   2.48174 
 H                     14.29805   5.05221   3.45891 
 C                     14.43004   1.5804    3.13299 
 H                     15.04448   1.34344   4.01146 
 H                     15.08989   1.58412   2.25796 
 H                     13.7118   0.76495   2.99952 
 
 NAtoms=     76 NQM=       76 NQMF=       0 NMMI=      0 NMMIF=      0
                NMic=       0 NMicF=      0.
                    Isotopes and Nuclear Properties:
 (Nuclear quadrupole moments (NQMom) in fm**2, nuclear magnetic moments (NMagM)
  in nuclear magnetons)

  Atom         1           2           3           4           5           6           7           8           9          10
 IAtWgt=          12           1          12           1           1          12          12          12           1           1
 AtmWgt=  12.0000000   1.0078250  12.0000000   1.0078250   1.0078250  12.0000000  12.0000000  12.0000000   1.0078250   1.0078250
 NucSpn=           0           1           0           1           1           0           0           0           1           1
 AtZEff=   0.0000000   0.0000000   0.0000000   0.0000000   0.0000000   0.0000000   0.0000000   0.0000000   0.0000000   0.0000000
 NQMom=    0.0000000   0.0000000   0.0000000   0.0000000   0.0000000   0.0000000   0.0000000   0.0000000   0.0000000   0.0000000
 NMagM=    0.0000000   2.7928460   0.0000000   2.7928460   2.7928460   0.0000000   0.0000000   0.0000000   2.7928460   2.7928460
 AtZNuc=   6.0000000   1.0000000   6.0000000   1.0000000   1.0000000   6.0000000   6.0000000   6.0000000   1.0000000   1.0000000

  Atom        11          12          13          14          15          16          17          18          19          20
 IAtWgt=          12           1           1          12           1          12           1          12           1          12
 AtmWgt=  12.0000000   1.0078250   1.0078250  12.0000000   1.0078250  12.0000000   1.0078250  12.0000000   1.0078250  12.0000000
 NucSpn=           0           1           1           0           1           0           1           0           1           0
 AtZEff=   0.0000000   0.0000000   0.0000000   0.0000000   0.0000000   0.0000000   0.0000000   0.0000000   0.0000000   0.0000000
 NQMom=    0.0000000   0.0000000   0.0000000   0.0000000   0.0000000   0.0000000   0.0000000   0.0000000   0.0000000   0.0000000
 NMagM=    0.0000000   2.7928460   2.7928460   0.0000000   2.7928460   0.0000000   2.7928460   0.0000000   2.7928460   0.0000000
 AtZNuc=   6.0000000   1.0000000   1.0000000   6.0000000   1.0000000   6.0000000   1.0000000   6.0000000   1.0000000   6.0000000

  Atom        21          22          23          24          25          26          27          28          29          30
 IAtWgt=           1          12           1           1          12           1           1          12          12           1
 AtmWgt=   1.0078250  12.0000000   1.0078250   1.0078250  12.0000000   1.0078250   1.0078250  12.0000000  12.0000000   1.0078250
 NucSpn=           1           0           1           1           0           1           1           0           0           1
 AtZEff=   0.0000000   0.0000000   0.0000000   0.0000000   0.0000000   0.0000000   0.0000000   0.0000000   0.0000000   0.0000000
 NQMom=    0.0000000   0.0000000   0.0000000   0.0000000   0.0000000   0.0000000   0.0000000   0.0000000   0.0000000   0.0000000
 NMagM=    2.7928460   0.0000000   2.7928460   2.7928460   0.0000000   2.7928460   2.7928460   0.0000000   0.0000000   2.7928460
 AtZNuc=   1.0000000   6.0000000   1.0000000   1.0000000   6.0000000   1.0000000   1.0000000   6.0000000   6.0000000   1.0000000

  Atom        31          32          33          34          35          36          37          38          39          40
 IAtWgt=          12           1           1          12           1           1          12           1          12           1
 AtmWgt=  12.0000000   1.0078250   1.0078250  12.0000000   1.0078250   1.0078250  12.0000000   1.0078250  12.0000000   1.0078250
 NucSpn=           0           1           1           0           1           1           0           1           0           1
 AtZEff=   0.0000000   0.0000000   0.0000000   0.0000000   0.0000000   0.0000000   0.0000000   0.0000000   0.0000000   0.0000000
 NQMom=    0.0000000   0.0000000   0.0000000   0.0000000   0.0000000   0.0000000   0.0000000   0.0000000   0.0000000   0.0000000
 NMagM=    0.0000000   2.7928460   2.7928460   0.0000000   2.7928460   2.7928460   0.0000000   2.7928460   0.0000000   2.7928460
 AtZNuc=   6.0000000   1.0000000   1.0000000   6.0000000   1.0000000   1.0000000   6.0000000   1.0000000   6.0000000   1.0000000

  Atom        41          42          43          44          45          46          47          48          49          50
 IAtWgt=           1           1          12           1          12           1           1           1          12           1
 AtmWgt=   1.0078250   1.0078250  12.0000000   1.0078250  12.0000000   1.0078250   1.0078250   1.0078250  12.0000000   1.0078250
 NucSpn=           1           1           0           1           0           1           1           1           0           1
 AtZEff=   0.0000000   0.0000000   0.0000000   0.0000000   0.0000000   0.0000000   0.0000000   0.0000000   0.0000000   0.0000000
 NQMom=    0.0000000   0.0000000   0.0000000   0.0000000   0.0000000   0.0000000   0.0000000   0.0000000   0.0000000   0.0000000
 NMagM=    2.7928460   2.7928460   0.0000000   2.7928460   0.0000000   2.7928460   2.7928460   2.7928460   0.0000000   2.7928460
 AtZNuc=   1.0000000   1.0000000   6.0000000   1.0000000   6.0000000   1.0000000   1.0000000   1.0000000   6.0000000   1.0000000

  Atom        51          52          53          54          55          56          57          58          59          60
 IAtWgt=           1           1          16          16           1          16           1          12           1           1
 AtmWgt=   1.0078250   1.0078250  15.9949146  15.9949146   1.0078250  15.9949146   1.0078250  12.0000000   1.0078250   1.0078250
 NucSpn=           1           1           0           0           1           0           1           0           1           1
 AtZEff=   0.0000000   0.0000000   0.0000000   0.0000000   0.0000000   0.0000000   0.0000000   0.0000000   0.0000000   0.0000000
 NQMom=    0.0000000   0.0000000   0.0000000   0.0000000   0.0000000   0.0000000   0.0000000   0.0000000   0.0000000   0.0000000
 NMagM=    2.7928460   2.7928460   0.0000000   0.0000000   2.7928460   0.0000000   2.7928460   0.0000000   2.7928460   2.7928460
 AtZNuc=   1.0000000   1.0000000   8.0000000   8.0000000   1.0000000   8.0000000   1.0000000   6.0000000   1.0000000   1.0000000

  Atom        61          62          63          64          65          66          67          68          69          70
 IAtWgt=          12           1           1          12           1           1          12           1          12           1
 AtmWgt=  12.0000000   1.0078250   1.0078250  12.0000000   1.0078250   1.0078250  12.0000000   1.0078250  12.0000000   1.0078250
 NucSpn=           0           1           1           0           1           1           0           1           0           1
 AtZEff=   0.0000000   0.0000000   0.0000000   0.0000000   0.0000000   0.0000000   0.0000000   0.0000000   0.0000000   0.0000000
 NQMom=    0.0000000   0.0000000   0.0000000   0.0000000   0.0000000   0.0000000   0.0000000   0.0000000   0.0000000   0.0000000
 NMagM=    0.0000000   2.7928460   2.7928460   0.0000000   2.7928460   2.7928460   0.0000000   2.7928460   0.0000000   2.7928460
 AtZNuc=   6.0000000   1.0000000   1.0000000   6.0000000   1.0000000   1.0000000   6.0000000   1.0000000   6.0000000   1.0000000

  Atom        71          72          73          74          75          76
 IAtWgt=           1           1          12           1           1           1
 AtmWgt=   1.0078250   1.0078250  12.0000000   1.0078250   1.0078250   1.0078250
 NucSpn=           1           1           0           1           1           1
 AtZEff=   0.0000000   0.0000000   0.0000000   0.0000000   0.0000000   0.0000000
 NQMom=    0.0000000   0.0000000   0.0000000   0.0000000   0.0000000   0.0000000
 NMagM=    2.7928460   2.7928460   0.0000000   2.7928460   2.7928460   2.7928460
 AtZNuc=   1.0000000   1.0000000   6.0000000   1.0000000   1.0000000   1.0000000
 Leave Link  101 at Wed Apr 26 14:02:40 2017, MaxMem=    33554432 cpu:         1.0
 (Enter /home/michal/g09/l202.exe)
 Symmetry turned off by external request.
 Stoichiometry    C27H46O3
 Framework group  C1[X(C27H46O3)]
 Deg. of freedom   222
 Full point group                 C1      NOp   1
                          Input orientation:                          
 ---------------------------------------------------------------------
 Center     Atomic      Atomic             Coordinates (Angstroms)
 Number     Number       Type             X           Y           Z
 ---------------------------------------------------------------------
      1          6           0        1.014267   -0.882334   -1.687413
      2          1           0        1.145107    0.088300   -2.181368
      3          6           0        2.249873   -1.752697   -1.966818
      4          1           0        2.388471   -1.859834   -3.047148
      5          1           0        2.044469   -2.760867   -1.573809
      6          6           0        3.507980   -1.193305   -1.328525
      7          6           0        3.433863   -0.866277    0.168182
      8          6           0        2.129132   -0.049640    0.422468
      9          1           0        2.266259    0.955081    0.000000
     10          1           0        1.989090    0.083314    1.500689
     11          6           0        0.855686   -0.659644   -0.183364
     12          1           0        0.621498   -1.620159    0.299045
     13          1           0        0.000000    0.000000    0.000000
     14          6           0        4.610545   -1.011332   -2.071733
     15          1           0        4.583130   -1.265813   -3.129651
     16          6           0        5.911090   -0.467808   -1.554315
     17          1           0        6.751606   -1.030600   -1.979818
     18          6           0        5.994190   -0.491379   -0.017235
     19          1           0        6.146451   -1.548197    0.243424
     20          6           0        4.663350    0.005325    0.606561
     21          1           0        4.492270    1.006357    0.184137
     22          6           0        4.774659    0.177052    2.140175
     23          1           0        4.785566   -0.803936    2.626056
     24          1           0        3.880580    0.687954    2.515846
     25          6           0        6.018509    0.960506    2.607067
     26          1           0        5.951352    2.001143    2.259041
     27          1           0        6.010932    0.996846    3.700933
     28          6           0        7.322363    0.342623    2.060667
     29          6           0        7.181003    0.327729    0.512871
     30          1           0        6.985274    1.371444    0.230806
     31          6           0        8.589309    0.000000    0.000000
     32          1           0        8.744356    0.350558   -1.024149
     33          1           0        8.764456   -1.083451    0.000048
     34          6           0        9.520078    0.715180    1.017298
     35          1           0       10.295579    0.033259    1.386465
     36          1           0       10.043565    1.552282    0.546484
     37          6           0        8.621336    1.211972    2.201939
     38          1           0        8.317963    2.248544    1.985289
     39          6           0        7.556003   -1.066449    2.652396
     40          1           0        6.760652   -1.768635    2.389051
     41          1           0        8.497975   -1.502896    2.306745
     42          1           0        7.598845   -1.025778    3.745766
     43          6           0        9.379357    1.241929    3.554629
     44          1           0        9.750485    0.224802    3.753387
     45          6           0        8.489565    1.665048    4.737466
     46          1           0        7.997272    2.623731    4.531709
     47          1           0        9.076563    1.785559    5.653024
     48          1           0        7.710825    0.930227    4.954283
     49          6           0        3.372381   -2.204631    0.954617
     50          1           0        3.119361   -2.037156    2.005691
     51          1           0        2.616238   -2.879283    0.546154
     52          1           0        4.329962   -2.732838    0.912908
     53          8           0        6.096022    0.916589   -1.959957
     54          8           0        6.272303    0.933379   -3.404315
     55          1           0        5.428751    1.322878   -3.688352
     56          8           0       -0.163322   -1.424720   -2.290353
     57          1           0       -0.356411   -2.279431   -1.880053
     58          6           0       10.617815    2.170395    3.461408
     59          1           0       11.119265    2.009112    2.502446
     60          1           0       10.273225    3.216264    3.451884
     61          6           0       11.650535    1.984920    4.585404
     62          1           0       11.162869    2.088459    5.562240
     63          1           0       12.034715    0.956236    4.552388
     64          6           0       12.821218    2.985119    4.545386
     65          1           0       13.446762    2.827337    5.436631
     66          1           0       12.413031    4.001908    4.639257
     67          6           0       13.737429    2.941698    3.303719
     68          1           0       13.119947    3.120536    2.411953
     69          6           0       14.778372    4.070548    3.374757
     70          1           0       15.433124    3.944468    4.246740
     71          1           0       15.413650    4.083385    2.481743
     72          1           0       14.298048    5.052210    3.458911
     73          6           0       14.430045    1.580399    3.132994
     74          1           0       15.044482    1.343436    4.011460
     75          1           0       15.089891    1.584120    2.257956
     76          1           0       13.711800    0.764952    2.999519
 ---------------------------------------------------------------------
 Rotational constants (GHZ):      0.3963121      0.0547471      0.0507446
 Leave Link  202 at Wed Apr 26 14:02:40 2017, MaxMem=    33554432 cpu:         0.6
 (Enter /home/michal/g09/l301.exe)
 Standard basis: 6-31G(d) (6D, 7F)
 Ernie: Thresh=  0.10000D-02 Tol=  0.10000D-05 Strict=F.
 AO basis set in the form of general basis input (Overlap normalization):
      1 0
 S   6 1.00       0.000000000000
      0.3047524880D+04  0.1834737132D-02
      0.4573695180D+03  0.1403732281D-01
      0.1039486850D+03  0.6884262226D-01
      0.2921015530D+02  0.2321844432D+00
      0.9286662960D+01  0.4679413484D+00
      0.3163926960D+01  0.3623119853D+00
 SP   3 1.00       0.000000000000
      0.7868272350D+01 -0.1193324198D+00  0.6899906659D-01
      0.1881288540D+01 -0.1608541517D+00  0.3164239610D+00
      0.5442492580D+00  0.1143456438D+01  0.7443082909D+00
 SP   1 1.00       0.000000000000
      0.1687144782D+00  0.1000000000D+01  0.1000000000D+01
 D   1 1.00       0.000000000000
      0.8000000000D+00  0.1000000000D+01
 ****
      2 0
 S   3 1.00       0.000000000000
      0.1873113696D+02  0.3349460434D-01
      0.2825394365D+01  0.2347269535D+00
      0.6401216923D+00  0.8137573261D+00
 S   1 1.00       0.000000000000
      0.1612777588D+00  0.1000000000D+01
 ****
      3 0
 S   6 1.00       0.000000000000
      0.3047524880D+04  0.1834737132D-02
      0.4573695180D+03  0.1403732281D-01
      0.1039486850D+03  0.6884262226D-01
      0.2921015530D+02  0.2321844432D+00
      0.9286662960D+01  0.4679413484D+00
      0.3163926960D+01  0.3623119853D+00
 SP   3 1.00       0.000000000000
      0.7868272350D+01 -0.1193324198D+00  0.6899906659D-01
      0.1881288540D+01 -0.1608541517D+00  0.3164239610D+00
      0.5442492580D+00  0.1143456438D+01  0.7443082909D+00
 SP   1 1.00       0.000000000000
      0.1687144782D+00  0.1000000000D+01  0.1000000000D+01
 D   1 1.00       0.000000000000
      0.8000000000D+00  0.1000000000D+01
 ****
      4 0
 S   3 1.00       0.000000000000
      0.1873113696D+02  0.3349460434D-01
      0.2825394365D+01  0.2347269535D+00
      0.6401216923D+00  0.8137573261D+00
 S   1 1.00       0.000000000000
      0.1612777588D+00  0.1000000000D+01
 ****
      5 0
 S   3 1.00       0.000000000000
      0.1873113696D+02  0.3349460434D-01
      0.2825394365D+01  0.2347269535D+00
      0.6401216923D+00  0.8137573261D+00
 S   1 1.00       0.000000000000
      0.1612777588D+00  0.1000000000D+01
 ****
      6 0
 S   6 1.00       0.000000000000
      0.3047524880D+04  0.1834737132D-02
      0.4573695180D+03  0.1403732281D-01
      0.1039486850D+03  0.6884262226D-01
      0.2921015530D+02  0.2321844432D+00
      0.9286662960D+01  0.4679413484D+00
      0.3163926960D+01  0.3623119853D+00
 SP   3 1.00       0.000000000000
      0.7868272350D+01 -0.1193324198D+00  0.6899906659D-01
      0.1881288540D+01 -0.1608541517D+00  0.3164239610D+00
      0.5442492580D+00  0.1143456438D+01  0.7443082909D+00
 SP   1 1.00       0.000000000000
      0.1687144782D+00  0.1000000000D+01  0.1000000000D+01
 D   1 1.00       0.000000000000
      0.8000000000D+00  0.1000000000D+01
 ****
      7 0
 S   6 1.00       0.000000000000
      0.3047524880D+04  0.1834737132D-02
      0.4573695180D+03  0.1403732281D-01
      0.1039486850D+03  0.6884262226D-01
      0.2921015530D+02  0.2321844432D+00
      0.9286662960D+01  0.4679413484D+00
      0.3163926960D+01  0.3623119853D+00
 SP   3 1.00       0.000000000000
      0.7868272350D+01 -0.1193324198D+00  0.6899906659D-01
      0.1881288540D+01 -0.1608541517D+00  0.3164239610D+00
      0.5442492580D+00  0.1143456438D+01  0.7443082909D+00
 SP   1 1.00       0.000000000000
      0.1687144782D+00  0.1000000000D+01  0.1000000000D+01
 D   1 1.00       0.000000000000
      0.8000000000D+00  0.1000000000D+01
 ****
      8 0
 S   6 1.00       0.000000000000
      0.3047524880D+04  0.1834737132D-02
      0.4573695180D+03  0.1403732281D-01
      0.1039486850D+03  0.6884262226D-01
      0.2921015530D+02  0.2321844432D+00
      0.9286662960D+01  0.4679413484D+00
      0.3163926960D+01  0.3623119853D+00
 SP   3 1.00       0.000000000000
      0.7868272350D+01 -0.1193324198D+00  0.6899906659D-01
      0.1881288540D+01 -0.1608541517D+00  0.3164239610D+00
      0.5442492580D+00  0.1143456438D+01  0.7443082909D+00
 SP   1 1.00       0.000000000000
      0.1687144782D+00  0.1000000000D+01  0.1000000000D+01
 D   1 1.00       0.000000000000
      0.8000000000D+00  0.1000000000D+01
 ****
      9 0
 S   3 1.00       0.000000000000
      0.1873113696D+02  0.3349460434D-01
      0.2825394365D+01  0.2347269535D+00
      0.6401216923D+00  0.8137573261D+00
 S   1 1.00       0.000000000000
      0.1612777588D+00  0.1000000000D+01
 ****
     10 0
 S   3 1.00       0.000000000000
      0.1873113696D+02  0.3349460434D-01
      0.2825394365D+01  0.2347269535D+00
      0.6401216923D+00  0.8137573261D+00
 S   1 1.00       0.000000000000
      0.1612777588D+00  0.1000000000D+01
 ****
     11 0
 S   6 1.00       0.000000000000
      0.3047524880D+04  0.1834737132D-02
      0.4573695180D+03  0.1403732281D-01
      0.1039486850D+03  0.6884262226D-01
      0.2921015530D+02  0.2321844432D+00
      0.9286662960D+01  0.4679413484D+00
      0.3163926960D+01  0.3623119853D+00
 SP   3 1.00       0.000000000000
      0.7868272350D+01 -0.1193324198D+00  0.6899906659D-01
      0.1881288540D+01 -0.1608541517D+00  0.3164239610D+00
      0.5442492580D+00  0.1143456438D+01  0.7443082909D+00
 SP   1 1.00       0.000000000000
      0.1687144782D+00  0.1000000000D+01  0.1000000000D+01
 D   1 1.00       0.000000000000
      0.8000000000D+00  0.1000000000D+01
 ****
     12 0
 S   3 1.00       0.000000000000
      0.1873113696D+02  0.3349460434D-01
      0.2825394365D+01  0.2347269535D+00
      0.6401216923D+00  0.8137573261D+00
 S   1 1.00       0.000000000000
      0.1612777588D+00  0.1000000000D+01
 ****
     13 0
 S   3 1.00       0.000000000000
      0.1873113696D+02  0.3349460434D-01
      0.2825394365D+01  0.2347269535D+00
      0.6401216923D+00  0.8137573261D+00
 S   1 1.00       0.000000000000
      0.1612777588D+00  0.1000000000D+01
 ****
     14 0
 S   6 1.00       0.000000000000
      0.3047524880D+04  0.1834737132D-02
      0.4573695180D+03  0.1403732281D-01
      0.1039486850D+03  0.6884262226D-01
      0.2921015530D+02  0.2321844432D+00
      0.9286662960D+01  0.4679413484D+00
      0.3163926960D+01  0.3623119853D+00
 SP   3 1.00       0.000000000000
      0.7868272350D+01 -0.1193324198D+00  0.6899906659D-01
      0.1881288540D+01 -0.1608541517D+00  0.3164239610D+00
      0.5442492580D+00  0.1143456438D+01  0.7443082909D+00
 SP   1 1.00       0.000000000000
      0.1687144782D+00  0.1000000000D+01  0.1000000000D+01
 D   1 1.00       0.000000000000
      0.8000000000D+00  0.1000000000D+01
 ****
     15 0
 S   3 1.00       0.000000000000
      0.1873113696D+02  0.3349460434D-01
      0.2825394365D+01  0.2347269535D+00
      0.6401216923D+00  0.8137573261D+00
 S   1 1.00       0.000000000000
      0.1612777588D+00  0.1000000000D+01
 ****
     16 0
 S   6 1.00       0.000000000000
      0.3047524880D+04  0.1834737132D-02
      0.4573695180D+03  0.1403732281D-01
      0.1039486850D+03  0.6884262226D-01
      0.2921015530D+02  0.2321844432D+00
      0.9286662960D+01  0.4679413484D+00
      0.3163926960D+01  0.3623119853D+00
 SP   3 1.00       0.000000000000
      0.7868272350D+01 -0.1193324198D+00  0.6899906659D-01
      0.1881288540D+01 -0.1608541517D+00  0.3164239610D+00
      0.5442492580D+00  0.1143456438D+01  0.7443082909D+00
 SP   1 1.00       0.000000000000
      0.1687144782D+00  0.1000000000D+01  0.1000000000D+01
 D   1 1.00       0.000000000000
      0.8000000000D+00  0.1000000000D+01
 ****
     17 0
 S   3 1.00       0.000000000000
      0.1873113696D+02  0.3349460434D-01
      0.2825394365D+01  0.2347269535D+00
      0.6401216923D+00  0.8137573261D+00
 S   1 1.00       0.000000000000
      0.1612777588D+00  0.1000000000D+01
 ****
     18 0
 S   6 1.00       0.000000000000
      0.3047524880D+04  0.1834737132D-02
      0.4573695180D+03  0.1403732281D-01
      0.1039486850D+03  0.6884262226D-01
      0.2921015530D+02  0.2321844432D+00
      0.9286662960D+01  0.4679413484D+00
      0.3163926960D+01  0.3623119853D+00
 SP   3 1.00       0.000000000000
      0.7868272350D+01 -0.1193324198D+00  0.6899906659D-01
      0.1881288540D+01 -0.1608541517D+00  0.3164239610D+00
      0.5442492580D+00  0.1143456438D+01  0.7443082909D+00
 SP   1 1.00       0.000000000000
      0.1687144782D+00  0.1000000000D+01  0.1000000000D+01
 D   1 1.00       0.000000000000
      0.8000000000D+00  0.1000000000D+01
 ****
     19 0
 S   3 1.00       0.000000000000
      0.1873113696D+02  0.3349460434D-01
      0.2825394365D+01  0.2347269535D+00
      0.6401216923D+00  0.8137573261D+00
 S   1 1.00       0.000000000000
      0.1612777588D+00  0.1000000000D+01
 ****
     20 0
 S   6 1.00       0.000000000000
      0.3047524880D+04  0.1834737132D-02
      0.4573695180D+03  0.1403732281D-01
      0.1039486850D+03  0.6884262226D-01
      0.2921015530D+02  0.2321844432D+00
      0.9286662960D+01  0.4679413484D+00
      0.3163926960D+01  0.3623119853D+00
 SP   3 1.00       0.000000000000
      0.7868272350D+01 -0.1193324198D+00  0.6899906659D-01
      0.1881288540D+01 -0.1608541517D+00  0.3164239610D+00
      0.5442492580D+00  0.1143456438D+01  0.7443082909D+00
 SP   1 1.00       0.000000000000
      0.1687144782D+00  0.1000000000D+01  0.1000000000D+01
 D   1 1.00       0.000000000000
      0.8000000000D+00  0.1000000000D+01
 ****
     21 0
 S   3 1.00       0.000000000000
      0.1873113696D+02  0.3349460434D-01
      0.2825394365D+01  0.2347269535D+00
      0.6401216923D+00  0.8137573261D+00
 S   1 1.00       0.000000000000
      0.1612777588D+00  0.1000000000D+01
 ****
     22 0
 S   6 1.00       0.000000000000
      0.3047524880D+04  0.1834737132D-02
      0.4573695180D+03  0.1403732281D-01
      0.1039486850D+03  0.6884262226D-01
      0.2921015530D+02  0.2321844432D+00
      0.9286662960D+01  0.4679413484D+00
      0.3163926960D+01  0.3623119853D+00
 SP   3 1.00       0.000000000000
      0.7868272350D+01 -0.1193324198D+00  0.6899906659D-01
      0.1881288540D+01 -0.1608541517D+00  0.3164239610D+00
      0.5442492580D+00  0.1143456438D+01  0.7443082909D+00
 SP   1 1.00       0.000000000000
      0.1687144782D+00  0.1000000000D+01  0.1000000000D+01
 D   1 1.00       0.000000000000
      0.8000000000D+00  0.1000000000D+01
 ****
     23 0
 S   3 1.00       0.000000000000
      0.1873113696D+02  0.3349460434D-01
      0.2825394365D+01  0.2347269535D+00
      0.6401216923D+00  0.8137573261D+00
 S   1 1.00       0.000000000000
      0.1612777588D+00  0.1000000000D+01
 ****
     24 0
 S   3 1.00       0.000000000000
      0.1873113696D+02  0.3349460434D-01
      0.2825394365D+01  0.2347269535D+00
      0.6401216923D+00  0.8137573261D+00
 S   1 1.00       0.000000000000
      0.1612777588D+00  0.1000000000D+01
 ****
     25 0
 S   6 1.00       0.000000000000
      0.3047524880D+04  0.1834737132D-02
      0.4573695180D+03  0.1403732281D-01
      0.1039486850D+03  0.6884262226D-01
      0.2921015530D+02  0.2321844432D+00
      0.9286662960D+01  0.4679413484D+00
      0.3163926960D+01  0.3623119853D+00
 SP   3 1.00       0.000000000000
      0.7868272350D+01 -0.1193324198D+00  0.6899906659D-01
      0.1881288540D+01 -0.1608541517D+00  0.3164239610D+00
      0.5442492580D+00  0.1143456438D+01  0.7443082909D+00
 SP   1 1.00       0.000000000000
      0.1687144782D+00  0.1000000000D+01  0.1000000000D+01
 D   1 1.00       0.000000000000
      0.8000000000D+00  0.1000000000D+01
 ****
     26 0
 S   3 1.00       0.000000000000
      0.1873113696D+02  0.3349460434D-01
      0.2825394365D+01  0.2347269535D+00
      0.6401216923D+00  0.8137573261D+00
 S   1 1.00       0.000000000000
      0.1612777588D+00  0.1000000000D+01
 ****
     27 0
 S   3 1.00       0.000000000000
      0.1873113696D+02  0.3349460434D-01
      0.2825394365D+01  0.2347269535D+00
      0.6401216923D+00  0.8137573261D+00
 S   1 1.00       0.000000000000
      0.1612777588D+00  0.1000000000D+01
 ****
     28 0
 S   6 1.00       0.000000000000
      0.3047524880D+04  0.1834737132D-02
      0.4573695180D+03  0.1403732281D-01
      0.1039486850D+03  0.6884262226D-01
      0.2921015530D+02  0.2321844432D+00
      0.9286662960D+01  0.4679413484D+00
      0.3163926960D+01  0.3623119853D+00
 SP   3 1.00       0.000000000000
      0.7868272350D+01 -0.1193324198D+00  0.6899906659D-01
      0.1881288540D+01 -0.1608541517D+00  0.3164239610D+00
      0.5442492580D+00  0.1143456438D+01  0.7443082909D+00
 SP   1 1.00       0.000000000000
      0.1687144782D+00  0.1000000000D+01  0.1000000000D+01
 D   1 1.00       0.000000000000
      0.8000000000D+00  0.1000000000D+01
 ****
     29 0
 S   6 1.00       0.000000000000
      0.3047524880D+04  0.1834737132D-02
      0.4573695180D+03  0.1403732281D-01
      0.1039486850D+03  0.6884262226D-01
      0.2921015530D+02  0.2321844432D+00
      0.9286662960D+01  0.4679413484D+00
      0.3163926960D+01  0.3623119853D+00
 SP   3 1.00       0.000000000000
      0.7868272350D+01 -0.1193324198D+00  0.6899906659D-01
      0.1881288540D+01 -0.1608541517D+00  0.3164239610D+00
      0.5442492580D+00  0.1143456438D+01  0.7443082909D+00
 SP   1 1.00       0.000000000000
      0.1687144782D+00  0.1000000000D+01  0.1000000000D+01
 D   1 1.00       0.000000000000
      0.8000000000D+00  0.1000000000D+01
 ****
     30 0
 S   3 1.00       0.000000000000
      0.1873113696D+02  0.3349460434D-01
      0.2825394365D+01  0.2347269535D+00
      0.6401216923D+00  0.8137573261D+00
 S   1 1.00       0.000000000000
      0.1612777588D+00  0.1000000000D+01
 ****
     31 0
 S   6 1.00       0.000000000000
      0.3047524880D+04  0.1834737132D-02
      0.4573695180D+03  0.1403732281D-01
      0.1039486850D+03  0.6884262226D-01
      0.2921015530D+02  0.2321844432D+00
      0.9286662960D+01  0.4679413484D+00
      0.3163926960D+01  0.3623119853D+00
 SP   3 1.00       0.000000000000
      0.7868272350D+01 -0.1193324198D+00  0.6899906659D-01
      0.1881288540D+01 -0.1608541517D+00  0.3164239610D+00
      0.5442492580D+00  0.1143456438D+01  0.7443082909D+00
 SP   1 1.00       0.000000000000
      0.1687144782D+00  0.1000000000D+01  0.1000000000D+01
 D   1 1.00       0.000000000000
      0.8000000000D+00  0.1000000000D+01
 ****
     32 0
 S   3 1.00       0.000000000000
      0.1873113696D+02  0.3349460434D-01
      0.2825394365D+01  0.2347269535D+00
      0.6401216923D+00  0.8137573261D+00
 S   1 1.00       0.000000000000
      0.1612777588D+00  0.1000000000D+01
 ****
     33 0
 S   3 1.00       0.000000000000
      0.1873113696D+02  0.3349460434D-01
      0.2825394365D+01  0.2347269535D+00
      0.6401216923D+00  0.8137573261D+00
 S   1 1.00       0.000000000000
      0.1612777588D+00  0.1000000000D+01
 ****
     34 0
 S   6 1.00       0.000000000000
      0.3047524880D+04  0.1834737132D-02
      0.4573695180D+03  0.1403732281D-01
      0.1039486850D+03  0.6884262226D-01
      0.2921015530D+02  0.2321844432D+00
      0.9286662960D+01  0.4679413484D+00
      0.3163926960D+01  0.3623119853D+00
 SP   3 1.00       0.000000000000
      0.7868272350D+01 -0.1193324198D+00  0.6899906659D-01
      0.1881288540D+01 -0.1608541517D+00  0.3164239610D+00
      0.5442492580D+00  0.1143456438D+01  0.7443082909D+00
 SP   1 1.00       0.000000000000
      0.1687144782D+00  0.1000000000D+01  0.1000000000D+01
 D   1 1.00       0.000000000000
      0.8000000000D+00  0.1000000000D+01
 ****
     35 0
 S   3 1.00       0.000000000000
      0.1873113696D+02  0.3349460434D-01
      0.2825394365D+01  0.2347269535D+00
      0.6401216923D+00  0.8137573261D+00
 S   1 1.00       0.000000000000
      0.1612777588D+00  0.1000000000D+01
 ****
     36 0
 S   3 1.00       0.000000000000
      0.1873113696D+02  0.3349460434D-01
      0.2825394365D+01  0.2347269535D+00
      0.6401216923D+00  0.8137573261D+00
 S   1 1.00       0.000000000000
      0.1612777588D+00  0.1000000000D+01
 ****
     37 0
 S   6 1.00       0.000000000000
      0.3047524880D+04  0.1834737132D-02
      0.4573695180D+03  0.1403732281D-01
      0.1039486850D+03  0.6884262226D-01
      0.2921015530D+02  0.2321844432D+00
      0.9286662960D+01  0.4679413484D+00
      0.3163926960D+01  0.3623119853D+00
 SP   3 1.00       0.000000000000
      0.7868272350D+01 -0.1193324198D+00  0.6899906659D-01
      0.1881288540D+01 -0.1608541517D+00  0.3164239610D+00
      0.5442492580D+00  0.1143456438D+01  0.7443082909D+00
 SP   1 1.00       0.000000000000
      0.1687144782D+00  0.1000000000D+01  0.1000000000D+01
 D   1 1.00       0.000000000000
      0.8000000000D+00  0.1000000000D+01
 ****
     38 0
 S   3 1.00       0.000000000000
      0.1873113696D+02  0.3349460434D-01
      0.2825394365D+01  0.2347269535D+00
      0.6401216923D+00  0.8137573261D+00
 S   1 1.00       0.000000000000
      0.1612777588D+00  0.1000000000D+01
 ****
     39 0
 S   6 1.00       0.000000000000
      0.3047524880D+04  0.1834737132D-02
      0.4573695180D+03  0.1403732281D-01
      0.1039486850D+03  0.6884262226D-01
      0.2921015530D+02  0.2321844432D+00
      0.9286662960D+01  0.4679413484D+00
      0.3163926960D+01  0.3623119853D+00
 SP   3 1.00       0.000000000000
      0.7868272350D+01 -0.1193324198D+00  0.6899906659D-01
      0.1881288540D+01 -0.1608541517D+00  0.3164239610D+00
      0.5442492580D+00  0.1143456438D+01  0.7443082909D+00
 SP   1 1.00       0.000000000000
      0.1687144782D+00  0.1000000000D+01  0.1000000000D+01
 D   1 1.00       0.000000000000
      0.8000000000D+00  0.1000000000D+01
 ****
     40 0
 S   3 1.00       0.000000000000
      0.1873113696D+02  0.3349460434D-01
      0.2825394365D+01  0.2347269535D+00
      0.6401216923D+00  0.8137573261D+00
 S   1 1.00       0.000000000000
      0.1612777588D+00  0.1000000000D+01
 ****
     41 0
 S   3 1.00       0.000000000000
      0.1873113696D+02  0.3349460434D-01
      0.2825394365D+01  0.2347269535D+00
      0.6401216923D+00  0.8137573261D+00
 S   1 1.00       0.000000000000
      0.1612777588D+00  0.1000000000D+01
 ****
     42 0
 S   3 1.00       0.000000000000
      0.1873113696D+02  0.3349460434D-01
      0.2825394365D+01  0.2347269535D+00
      0.6401216923D+00  0.8137573261D+00
 S   1 1.00       0.000000000000
      0.1612777588D+00  0.1000000000D+01
 ****
     43 0
 S   6 1.00       0.000000000000
      0.3047524880D+04  0.1834737132D-02
      0.4573695180D+03  0.1403732281D-01
      0.1039486850D+03  0.6884262226D-01
      0.2921015530D+02  0.2321844432D+00
      0.9286662960D+01  0.4679413484D+00
      0.3163926960D+01  0.3623119853D+00
 SP   3 1.00       0.000000000000
      0.7868272350D+01 -0.1193324198D+00  0.6899906659D-01
      0.1881288540D+01 -0.1608541517D+00  0.3164239610D+00
      0.5442492580D+00  0.1143456438D+01  0.7443082909D+00
 SP   1 1.00       0.000000000000
      0.1687144782D+00  0.1000000000D+01  0.1000000000D+01
 D   1 1.00       0.000000000000
      0.8000000000D+00  0.1000000000D+01
 ****
     44 0
 S   3 1.00       0.000000000000
      0.1873113696D+02  0.3349460434D-01
      0.2825394365D+01  0.2347269535D+00
      0.6401216923D+00  0.8137573261D+00
 S   1 1.00       0.000000000000
      0.1612777588D+00  0.1000000000D+01
 ****
     45 0
 S   6 1.00       0.000000000000
      0.3047524880D+04  0.1834737132D-02
      0.4573695180D+03  0.1403732281D-01
      0.1039486850D+03  0.6884262226D-01
      0.2921015530D+02  0.2321844432D+00
      0.9286662960D+01  0.4679413484D+00
      0.3163926960D+01  0.3623119853D+00
 SP   3 1.00       0.000000000000
      0.7868272350D+01 -0.1193324198D+00  0.6899906659D-01
      0.1881288540D+01 -0.1608541517D+00  0.3164239610D+00
      0.5442492580D+00  0.1143456438D+01  0.7443082909D+00
 SP   1 1.00       0.000000000000
      0.1687144782D+00  0.1000000000D+01  0.1000000000D+01
 D   1 1.00       0.000000000000
      0.8000000000D+00  0.1000000000D+01
 ****
     46 0
 S   3 1.00       0.000000000000
      0.1873113696D+02  0.3349460434D-01
      0.2825394365D+01  0.2347269535D+00
      0.6401216923D+00  0.8137573261D+00
 S   1 1.00       0.000000000000
      0.1612777588D+00  0.1000000000D+01
 ****
     47 0
 S   3 1.00       0.000000000000
      0.1873113696D+02  0.3349460434D-01
      0.2825394365D+01  0.2347269535D+00
      0.6401216923D+00  0.8137573261D+00
 S   1 1.00       0.000000000000
      0.1612777588D+00  0.1000000000D+01
 ****
     48 0
 S   3 1.00       0.000000000000
      0.1873113696D+02  0.3349460434D-01
      0.2825394365D+01  0.2347269535D+00
      0.6401216923D+00  0.8137573261D+00
 S   1 1.00       0.000000000000
      0.1612777588D+00  0.1000000000D+01
 ****
     49 0
 S   6 1.00       0.000000000000
      0.3047524880D+04  0.1834737132D-02
      0.4573695180D+03  0.1403732281D-01
      0.1039486850D+03  0.6884262226D-01
      0.2921015530D+02  0.2321844432D+00
      0.9286662960D+01  0.4679413484D+00
      0.3163926960D+01  0.3623119853D+00
 SP   3 1.00       0.000000000000
      0.7868272350D+01 -0.1193324198D+00  0.6899906659D-01
      0.1881288540D+01 -0.1608541517D+00  0.3164239610D+00
      0.5442492580D+00  0.1143456438D+01  0.7443082909D+00
 SP   1 1.00       0.000000000000
      0.1687144782D+00  0.1000000000D+01  0.1000000000D+01
 D   1 1.00       0.000000000000
      0.8000000000D+00  0.1000000000D+01
 ****
     50 0
 S   3 1.00       0.000000000000
      0.1873113696D+02  0.3349460434D-01
      0.2825394365D+01  0.2347269535D+00
      0.6401216923D+00  0.8137573261D+00
 S   1 1.00       0.000000000000
      0.1612777588D+00  0.1000000000D+01
 ****
     51 0
 S   3 1.00       0.000000000000
      0.1873113696D+02  0.3349460434D-01
      0.2825394365D+01  0.2347269535D+00
      0.6401216923D+00  0.8137573261D+00
 S   1 1.00       0.000000000000
      0.1612777588D+00  0.1000000000D+01
 ****
     52 0
 S   3 1.00       0.000000000000
      0.1873113696D+02  0.3349460434D-01
      0.2825394365D+01  0.2347269535D+00
      0.6401216923D+00  0.8137573261D+00
 S   1 1.00       0.000000000000
      0.1612777588D+00  0.1000000000D+01
 ****
     53 0
 S   6 1.00       0.000000000000
      0.5484671660D+04  0.1831074430D-02
      0.8252349460D+03  0.1395017220D-01
      0.1880469580D+03  0.6844507810D-01
      0.5296450000D+02  0.2327143360D+00
      0.1689757040D+02  0.4701928980D+00
      0.5799635340D+01  0.3585208530D+00
 SP   3 1.00       0.000000000000
      0.1553961625D+02 -0.1107775495D+00  0.7087426823D-01
      0.3599933586D+01 -0.1480262627D+00  0.3397528391D+00
      0.1013761750D+01  0.1130767015D+01  0.7271585773D+00
 SP   1 1.00       0.000000000000
      0.2700058226D+00  0.1000000000D+01  0.1000000000D+01
 D   1 1.00       0.000000000000
      0.8000000000D+00  0.1000000000D+01
 ****
     54 0
 S   6 1.00       0.000000000000
      0.5484671660D+04  0.1831074430D-02
      0.8252349460D+03  0.1395017220D-01
      0.1880469580D+03  0.6844507810D-01
      0.5296450000D+02  0.2327143360D+00
      0.1689757040D+02  0.4701928980D+00
      0.5799635340D+01  0.3585208530D+00
 SP   3 1.00       0.000000000000
      0.1553961625D+02 -0.1107775495D+00  0.7087426823D-01
      0.3599933586D+01 -0.1480262627D+00  0.3397528391D+00
      0.1013761750D+01  0.1130767015D+01  0.7271585773D+00
 SP   1 1.00       0.000000000000
      0.2700058226D+00  0.1000000000D+01  0.1000000000D+01
 D   1 1.00       0.000000000000
      0.8000000000D+00  0.1000000000D+01
 ****
     55 0
 S   3 1.00       0.000000000000
      0.1873113696D+02  0.3349460434D-01
      0.2825394365D+01  0.2347269535D+00
      0.6401216923D+00  0.8137573261D+00
 S   1 1.00       0.000000000000
      0.1612777588D+00  0.1000000000D+01
 ****
     56 0
 S   6 1.00       0.000000000000
      0.5484671660D+04  0.1831074430D-02
      0.8252349460D+03  0.1395017220D-01
      0.1880469580D+03  0.6844507810D-01
      0.5296450000D+02  0.2327143360D+00
      0.1689757040D+02  0.4701928980D+00
      0.5799635340D+01  0.3585208530D+00
 SP   3 1.00       0.000000000000
      0.1553961625D+02 -0.1107775495D+00  0.7087426823D-01
      0.3599933586D+01 -0.1480262627D+00  0.3397528391D+00
      0.1013761750D+01  0.1130767015D+01  0.7271585773D+00
 SP   1 1.00       0.000000000000
      0.2700058226D+00  0.1000000000D+01  0.1000000000D+01
 D   1 1.00       0.000000000000
      0.8000000000D+00  0.1000000000D+01
 ****
     57 0
 S   3 1.00       0.000000000000
      0.1873113696D+02  0.3349460434D-01
      0.2825394365D+01  0.2347269535D+00
      0.6401216923D+00  0.8137573261D+00
 S   1 1.00       0.000000000000
      0.1612777588D+00  0.1000000000D+01
 ****
     58 0
 S   6 1.00       0.000000000000
      0.3047524880D+04  0.1834737132D-02
      0.4573695180D+03  0.1403732281D-01
      0.1039486850D+03  0.6884262226D-01
      0.2921015530D+02  0.2321844432D+00
      0.9286662960D+01  0.4679413484D+00
      0.3163926960D+01  0.3623119853D+00
 SP   3 1.00       0.000000000000
      0.7868272350D+01 -0.1193324198D+00  0.6899906659D-01
      0.1881288540D+01 -0.1608541517D+00  0.3164239610D+00
      0.5442492580D+00  0.1143456438D+01  0.7443082909D+00
 SP   1 1.00       0.000000000000
      0.1687144782D+00  0.1000000000D+01  0.1000000000D+01
 D   1 1.00       0.000000000000
      0.8000000000D+00  0.1000000000D+01
 ****
     59 0
 S   3 1.00       0.000000000000
      0.1873113696D+02  0.3349460434D-01
      0.2825394365D+01  0.2347269535D+00
      0.6401216923D+00  0.8137573261D+00
 S   1 1.00       0.000000000000
      0.1612777588D+00  0.1000000000D+01
 ****
     60 0
 S   3 1.00       0.000000000000
      0.1873113696D+02  0.3349460434D-01
      0.2825394365D+01  0.2347269535D+00
      0.6401216923D+00  0.8137573261D+00
 S   1 1.00       0.000000000000
      0.1612777588D+00  0.1000000000D+01
 ****
     61 0
 S   6 1.00       0.000000000000
      0.3047524880D+04  0.1834737132D-02
      0.4573695180D+03  0.1403732281D-01
      0.1039486850D+03  0.6884262226D-01
      0.2921015530D+02  0.2321844432D+00
      0.9286662960D+01  0.4679413484D+00
      0.3163926960D+01  0.3623119853D+00
 SP   3 1.00       0.000000000000
      0.7868272350D+01 -0.1193324198D+00  0.6899906659D-01
      0.1881288540D+01 -0.1608541517D+00  0.3164239610D+00
      0.5442492580D+00  0.1143456438D+01  0.7443082909D+00
 SP   1 1.00       0.000000000000
      0.1687144782D+00  0.1000000000D+01  0.1000000000D+01
 D   1 1.00       0.000000000000
      0.8000000000D+00  0.1000000000D+01
 ****
     62 0
 S   3 1.00       0.000000000000
      0.1873113696D+02  0.3349460434D-01
      0.2825394365D+01  0.2347269535D+00
      0.6401216923D+00  0.8137573261D+00
 S   1 1.00       0.000000000000
      0.1612777588D+00  0.1000000000D+01
 ****
     63 0
 S   3 1.00       0.000000000000
      0.1873113696D+02  0.3349460434D-01
      0.2825394365D+01  0.2347269535D+00
      0.6401216923D+00  0.8137573261D+00
 S   1 1.00       0.000000000000
      0.1612777588D+00  0.1000000000D+01
 ****
     64 0
 S   6 1.00       0.000000000000
      0.3047524880D+04  0.1834737132D-02
      0.4573695180D+03  0.1403732281D-01
      0.1039486850D+03  0.6884262226D-01
      0.2921015530D+02  0.2321844432D+00
      0.9286662960D+01  0.4679413484D+00
      0.3163926960D+01  0.3623119853D+00
 SP   3 1.00       0.000000000000
      0.7868272350D+01 -0.1193324198D+00  0.6899906659D-01
      0.1881288540D+01 -0.1608541517D+00  0.3164239610D+00
      0.5442492580D+00  0.1143456438D+01  0.7443082909D+00
 SP   1 1.00       0.000000000000
      0.1687144782D+00  0.1000000000D+01  0.1000000000D+01
 D   1 1.00       0.000000000000
      0.8000000000D+00  0.1000000000D+01
 ****
     65 0
 S   3 1.00       0.000000000000
      0.1873113696D+02  0.3349460434D-01
      0.2825394365D+01  0.2347269535D+00
      0.6401216923D+00  0.8137573261D+00
 S   1 1.00       0.000000000000
      0.1612777588D+00  0.1000000000D+01
 ****
     66 0
 S   3 1.00       0.000000000000
      0.1873113696D+02  0.3349460434D-01
      0.2825394365D+01  0.2347269535D+00
      0.6401216923D+00  0.8137573261D+00
 S   1 1.00       0.000000000000
      0.1612777588D+00  0.1000000000D+01
 ****
     67 0
 S   6 1.00       0.000000000000
      0.3047524880D+04  0.1834737132D-02
      0.4573695180D+03  0.1403732281D-01
      0.1039486850D+03  0.6884262226D-01
      0.2921015530D+02  0.2321844432D+00
      0.9286662960D+01  0.4679413484D+00
      0.3163926960D+01  0.3623119853D+00
 SP   3 1.00       0.000000000000
      0.7868272350D+01 -0.1193324198D+00  0.6899906659D-01
      0.1881288540D+01 -0.1608541517D+00  0.3164239610D+00
      0.5442492580D+00  0.1143456438D+01  0.7443082909D+00
 SP   1 1.00       0.000000000000
      0.1687144782D+00  0.1000000000D+01  0.1000000000D+01
 D   1 1.00       0.000000000000
      0.8000000000D+00  0.1000000000D+01
 ****
     68 0
 S   3 1.00       0.000000000000
      0.1873113696D+02  0.3349460434D-01
      0.2825394365D+01  0.2347269535D+00
      0.6401216923D+00  0.8137573261D+00
 S   1 1.00       0.000000000000
      0.1612777588D+00  0.1000000000D+01
 ****
     69 0
 S   6 1.00       0.000000000000
      0.3047524880D+04  0.1834737132D-02
      0.4573695180D+03  0.1403732281D-01
      0.1039486850D+03  0.6884262226D-01
      0.2921015530D+02  0.2321844432D+00
      0.9286662960D+01  0.4679413484D+00
      0.3163926960D+01  0.3623119853D+00
 SP   3 1.00       0.000000000000
      0.7868272350D+01 -0.1193324198D+00  0.6899906659D-01
      0.1881288540D+01 -0.1608541517D+00  0.3164239610D+00
      0.5442492580D+00  0.1143456438D+01  0.7443082909D+00
 SP   1 1.00       0.000000000000
      0.1687144782D+00  0.1000000000D+01  0.1000000000D+01
 D   1 1.00       0.000000000000
      0.8000000000D+00  0.1000000000D+01
 ****
     70 0
 S   3 1.00       0.000000000000
      0.1873113696D+02  0.3349460434D-01
      0.2825394365D+01  0.2347269535D+00
      0.6401216923D+00  0.8137573261D+00
 S   1 1.00       0.000000000000
      0.1612777588D+00  0.1000000000D+01
 ****
     71 0
 S   3 1.00       0.000000000000
      0.1873113696D+02  0.3349460434D-01
      0.2825394365D+01  0.2347269535D+00
      0.6401216923D+00  0.8137573261D+00
 S   1 1.00       0.000000000000
      0.1612777588D+00  0.1000000000D+01
 ****
     72 0
 S   3 1.00       0.000000000000
      0.1873113696D+02  0.3349460434D-01
      0.2825394365D+01  0.2347269535D+00
      0.6401216923D+00  0.8137573261D+00
 S   1 1.00       0.000000000000
      0.1612777588D+00  0.1000000000D+01
 ****
     73 0
 S   6 1.00       0.000000000000
      0.3047524880D+04  0.1834737132D-02
      0.4573695180D+03  0.1403732281D-01
      0.1039486850D+03  0.6884262226D-01
      0.2921015530D+02  0.2321844432D+00
      0.9286662960D+01  0.4679413484D+00
      0.3163926960D+01  0.3623119853D+00
 SP   3 1.00       0.000000000000
      0.7868272350D+01 -0.1193324198D+00  0.6899906659D-01
      0.1881288540D+01 -0.1608541517D+00  0.3164239610D+00
      0.5442492580D+00  0.1143456438D+01  0.7443082909D+00
 SP   1 1.00       0.000000000000
      0.1687144782D+00  0.1000000000D+01  0.1000000000D+01
 D   1 1.00       0.000000000000
      0.8000000000D+00  0.1000000000D+01
 ****
     74 0
 S   3 1.00       0.000000000000
      0.1873113696D+02  0.3349460434D-01
      0.2825394365D+01  0.2347269535D+00
      0.6401216923D+00  0.8137573261D+00
 S   1 1.00       0.000000000000
      0.1612777588D+00  0.1000000000D+01
 ****
     75 0
 S   3 1.00       0.000000000000
      0.1873113696D+02  0.3349460434D-01
      0.2825394365D+01  0.2347269535D+00
      0.6401216923D+00  0.8137573261D+00
 S   1 1.00       0.000000000000
      0.1612777588D+00  0.1000000000D+01
 ****
     76 0
 S   3 1.00       0.000000000000
      0.1873113696D+02  0.3349460434D-01
      0.2825394365D+01  0.2347269535D+00
      0.6401216923D+00  0.8137573261D+00
 S   1 1.00       0.000000000000
      0.1612777588D+00  0.1000000000D+01
 ****

 AO basis set (Overlap normalization):
 Atom C1       Shell     1 S   6     bf    1 -     1          1.916686080836         -1.667369976781         -3.188748934400
      0.3047524880D+04  0.1834737132D-02
      0.4573695180D+03  0.1403732281D-01
      0.1039486850D+03  0.6884262226D-01
      0.2921015530D+02  0.2321844432D+00
      0.9286662960D+01  0.4679413484D+00
      0.3163926960D+01  0.3623119853D+00
 Atom C1       Shell     2 SP   3    bf    2 -     5          1.916686080836         -1.667369976781         -3.188748934400
      0.7868272350D+01 -0.1193324198D+00  0.6899906659D-01
      0.1881288540D+01 -0.1608541517D+00  0.3164239610D+00
      0.5442492580D+00  0.1143456438D+01  0.7443082909D+00
 Atom C1       Shell     3 SP   1    bf    6 -     9          1.916686080836         -1.667369976781         -3.188748934400
      0.1687144782D+00  0.1000000000D+01  0.1000000000D+01
 Atom C1       Shell     4 D   1     bf   10 -    15          1.916686080836         -1.667369976781         -3.188748934400
      0.8000000000D+00  0.1000000000D+01
 Atom H2       Shell     5 S   3     bf   16 -    16          2.163939492124          0.166862930917         -4.122187472534
      0.1873113696D+02  0.3349460434D-01
      0.2825394365D+01  0.2347269535D+00
      0.6401216923D+00  0.8137573261D+00
 Atom H2       Shell     6 S   1     bf   17 -    17          2.163939492124          0.166862930917         -4.122187472534
      0.1612777588D+00  0.1000000000D+01
 Atom C3       Shell     7 S   6     bf   18 -    18          4.251643558109         -3.312117191649         -3.716746692928
      0.3047524880D+04  0.1834737132D-02
      0.4573695180D+03  0.1403732281D-01
      0.1039486850D+03  0.6884262226D-01
      0.2921015530D+02  0.2321844432D+00
      0.9286662960D+01  0.4679413484D+00
      0.3163926960D+01  0.3623119853D+00
 Atom C3       Shell     8 SP   3    bf   19 -    22          4.251643558109         -3.312117191649         -3.716746692928
      0.7868272350D+01 -0.1193324198D+00  0.6899906659D-01
      0.1881288540D+01 -0.1608541517D+00  0.3164239610D+00
      0.5442492580D+00  0.1143456438D+01  0.7443082909D+00
 Atom C3       Shell     9 SP   1    bf   23 -    26          4.251643558109         -3.312117191649         -3.716746692928
      0.1687144782D+00  0.1000000000D+01  0.1000000000D+01
 Atom C3       Shell    10 D   1     bf   27 -    32          4.251643558109         -3.312117191649         -3.716746692928
      0.8000000000D+00  0.1000000000D+01
 Atom H4       Shell    11 S   3     bf   33 -    33          4.513556293107         -3.514576553581         -5.758274355993
      0.1873113696D+02  0.3349460434D-01
      0.2825394365D+01  0.2347269535D+00
      0.6401216923D+00  0.8137573261D+00
 Atom H4       Shell    12 S   1     bf   34 -    34          4.513556293107         -3.514576553581         -5.758274355993
      0.1612777588D+00  0.1000000000D+01
 Atom H5       Shell    13 S   3     bf   35 -    35          3.863486837325         -5.217281952404         -2.974067730909
      0.1873113696D+02  0.3349460434D-01
      0.2825394365D+01  0.2347269535D+00
      0.6401216923D+00  0.8137573261D+00
 Atom H5       Shell    14 S   1     bf   36 -    36          3.863486837325         -5.217281952404         -2.974067730909
      0.1612777588D+00  0.1000000000D+01
 Atom C6       Shell    15 S   6     bf   37 -    37          6.629122348914         -2.255020550072         -2.510547805980
      0.3047524880D+04  0.1834737132D-02
      0.4573695180D+03  0.1403732281D-01
      0.1039486850D+03  0.6884262226D-01
      0.2921015530D+02  0.2321844432D+00
      0.9286662960D+01  0.4679413484D+00
      0.3163926960D+01  0.3623119853D+00
 Atom C6       Shell    16 SP   3    bf   38 -    41          6.629122348914         -2.255020550072         -2.510547805980
      0.7868272350D+01 -0.1193324198D+00  0.6899906659D-01
      0.1881288540D+01 -0.1608541517D+00  0.3164239610D+00
      0.5442492580D+00  0.1143456438D+01  0.7443082909D+00
 Atom C6       Shell    17 SP   1    bf   42 -    45          6.629122348914         -2.255020550072         -2.510547805980
      0.1687144782D+00  0.1000000000D+01  0.1000000000D+01
 Atom C6       Shell    18 D   1     bf   46 -    51          6.629122348914         -2.255020550072         -2.510547805980
      0.8000000000D+00  0.1000000000D+01
 Atom C7       Shell    19 S   6     bf   52 -    52          6.489060496671         -1.637025756094          0.317817183488
      0.3047524880D+04  0.1834737132D-02
      0.4573695180D+03  0.1403732281D-01
      0.1039486850D+03  0.6884262226D-01
      0.2921015530D+02  0.2321844432D+00
      0.9286662960D+01  0.4679413484D+00
      0.3163926960D+01  0.3623119853D+00
 Atom C7       Shell    20 SP   3    bf   53 -    56          6.489060496671         -1.637025756094          0.317817183488
      0.7868272350D+01 -0.1193324198D+00  0.6899906659D-01
      0.1881288540D+01 -0.1608541517D+00  0.3164239610D+00
      0.5442492580D+00  0.1143456438D+01  0.7443082909D+00
 Atom C7       Shell    21 SP   1    bf   57 -    60          6.489060496671         -1.637025756094          0.317817183488
      0.1687144782D+00  0.1000000000D+01  0.1000000000D+01
 Atom C7       Shell    22 D   1     bf   61 -    66          6.489060496671         -1.637025756094          0.317817183488
      0.8000000000D+00  0.1000000000D+01
 Atom C8       Shell    23 S   6     bf   67 -    67          4.023475719359         -0.093805759572          0.798349651387
      0.3047524880D+04  0.1834737132D-02
      0.4573695180D+03  0.1403732281D-01
      0.1039486850D+03  0.6884262226D-01
      0.2921015530D+02  0.2321844432D+00
      0.9286662960D+01  0.4679413484D+00
      0.3163926960D+01  0.3623119853D+00
 Atom C8       Shell    24 SP   3    bf   68 -    71          4.023475719359         -0.093805759572          0.798349651387
      0.7868272350D+01 -0.1193324198D+00  0.6899906659D-01
      0.1881288540D+01 -0.1608541517D+00  0.3164239610D+00
      0.5442492580D+00  0.1143456438D+01  0.7443082909D+00
 Atom C8       Shell    25 SP   1    bf   72 -    75          4.023475719359         -0.093805759572          0.798349651387
      0.1687144782D+00  0.1000000000D+01  0.1000000000D+01
 Atom C8       Shell    26 D   1     bf   76 -    81          4.023475719359         -0.093805759572          0.798349651387
      0.8000000000D+00  0.1000000000D+01
 Atom H9       Shell    27 S   3     bf   82 -    82          4.282608478242          1.804842393997          0.000000000000
      0.1873113696D+02  0.3349460434D-01
      0.2825394365D+01  0.2347269535D+00
      0.6401216923D+00  0.8137573261D+00
 Atom H9       Shell    28 S   1     bf   83 -    83          4.282608478242          1.804842393997          0.000000000000
      0.1612777588D+00  0.1000000000D+01
 Atom H10      Shell    29 S   3     bf   84 -    84          3.758835996168          0.157440265090          2.835891504093
      0.1873113696D+02  0.3349460434D-01
      0.2825394365D+01  0.2347269535D+00
      0.6401216923D+00  0.8137573261D+00
 Atom H10      Shell    30 S   1     bf   85 -    85          3.758835996168          0.157440265090          2.835891504093
      0.1612777588D+00  0.1000000000D+01
 Atom C11      Shell    31 S   6     bf   86 -    86          1.617013008327         -1.246545900489         -0.346507024535
      0.3047524880D+04  0.1834737132D-02
      0.4573695180D+03  0.1403732281D-01
      0.1039486850D+03  0.6884262226D-01
      0.2921015530D+02  0.2321844432D+00
      0.9286662960D+01  0.4679413484D+00
      0.3163926960D+01  0.3623119853D+00
 Atom C11      Shell    32 SP   3    bf   87 -    90          1.617013008327         -1.246545900489         -0.346507024535
      0.7868272350D+01 -0.1193324198D+00  0.6899906659D-01
      0.1881288540D+01 -0.1608541517D+00  0.3164239610D+00
      0.5442492580D+00  0.1143456438D+01  0.7443082909D+00
 Atom C11      Shell    33 SP   1    bf   91 -    94          1.617013008327         -1.246545900489         -0.346507024535
      0.1687144782D+00  0.1000000000D+01  0.1000000000D+01
 Atom C11      Shell    34 D   1     bf   95 -   100          1.617013008327         -1.246545900489         -0.346507024535
      0.8000000000D+00  0.1000000000D+01
 Atom H12      Shell    35 S   3     bf  101 -   101          1.174461579054         -3.061656707244          0.565113075820
      0.1873113696D+02  0.3349460434D-01
      0.2825394365D+01  0.2347269535D+00
      0.6401216923D+00  0.8137573261D+00
 Atom H12      Shell    36 S   1     bf  102 -   102          1.174461579054         -3.061656707244          0.565113075820
      0.1612777588D+00  0.1000000000D+01
 Atom H13      Shell    37 S   3     bf  103 -   103          0.000000000000          0.000000000000          0.000000000000
      0.1873113696D+02  0.3349460434D-01
      0.2825394365D+01  0.2347269535D+00
      0.6401216923D+00  0.8137573261D+00
 Atom H13      Shell    38 S   1     bf  104 -   104          0.000000000000          0.000000000000          0.000000000000
      0.1612777588D+00  0.1000000000D+01
 Atom C14      Shell    39 S   6     bf  105 -   105          8.712666938708         -1.911140414937         -3.915008500688
      0.3047524880D+04  0.1834737132D-02
      0.4573695180D+03  0.1403732281D-01
      0.1039486850D+03  0.6884262226D-01
      0.2921015530D+02  0.2321844432D+00
      0.9286662960D+01  0.4679413484D+00
      0.3163926960D+01  0.3623119853D+00
 Atom C14      Shell    40 SP   3    bf  106 -   109          8.712666938708         -1.911140414937         -3.915008500688
      0.7868272350D+01 -0.1193324198D+00  0.6899906659D-01
      0.1881288540D+01 -0.1608541517D+00  0.3164239610D+00
      0.5442492580D+00  0.1143456438D+01  0.7443082909D+00
 Atom C14      Shell    41 SP   1    bf  110 -   113          8.712666938708         -1.911140414937         -3.915008500688
      0.1687144782D+00  0.1000000000D+01  0.1000000000D+01
 Atom C14      Shell    42 D   1     bf  114 -   119          8.712666938708         -1.911140414937         -3.915008500688
      0.8000000000D+00  0.1000000000D+01
 Atom H15      Shell    43 S   3     bf  120 -   120          8.660860569207         -2.392039905446         -5.914182809080
      0.1873113696D+02  0.3349460434D-01
      0.2825394365D+01  0.2347269535D+00
      0.6401216923D+00  0.8137573261D+00
 Atom H15      Shell    44 S   1     bf  121 -   121          8.660860569207         -2.392039905446         -5.914182809080
      0.1612777588D+00  0.1000000000D+01
 Atom C16      Shell    45 S   6     bf  122 -   122         11.170341568092         -0.884029059465         -2.937229541955
      0.3047524880D+04  0.1834737132D-02
      0.4573695180D+03  0.1403732281D-01
      0.1039486850D+03  0.6884262226D-01
      0.2921015530D+02  0.2321844432D+00
      0.9286662960D+01  0.4679413484D+00
      0.3163926960D+01  0.3623119853D+00
 Atom C16      Shell    46 SP   3    bf  123 -   126         11.170341568092         -0.884029059465         -2.937229541955
      0.7868272350D+01 -0.1193324198D+00  0.6899906659D-01
      0.1881288540D+01 -0.1608541517D+00  0.3164239610D+00
      0.5442492580D+00  0.1143456438D+01  0.7443082909D+00
 Atom C16      Shell    47 SP   1    bf  127 -   130         11.170341568092         -0.884029059465         -2.937229541955
      0.1687144782D+00  0.1000000000D+01  0.1000000000D+01
 Atom C16      Shell    48 D   1     bf  131 -   136         11.170341568092         -0.884029059465         -2.937229541955
      0.8000000000D+00  0.1000000000D+01
 Atom H17      Shell    49 S   3     bf  137 -   137         12.758685692435         -1.947552168292         -3.741313340526
      0.1873113696D+02  0.3349460434D-01
      0.2825394365D+01  0.2347269535D+00
      0.6401216923D+00  0.8137573261D+00
 Atom H17      Shell    50 S   1     bf  138 -   138         12.758685692435         -1.947552168292         -3.741313340526
      0.1612777588D+00  0.1000000000D+01
 Atom C18      Shell    51 S   6     bf  139 -   139         11.327377034948         -0.928572058705         -0.032568919674
      0.3047524880D+04  0.1834737132D-02
      0.4573695180D+03  0.1403732281D-01
      0.1039486850D+03  0.6884262226D-01
      0.2921015530D+02  0.2321844432D+00
      0.9286662960D+01  0.4679413484D+00
      0.3163926960D+01  0.3623119853D+00
 Atom C18      Shell    52 SP   3    bf  140 -   143         11.327377034948         -0.928572058705         -0.032568919674
      0.7868272350D+01 -0.1193324198D+00  0.6899906659D-01
      0.1881288540D+01 -0.1608541517D+00  0.3164239610D+00
      0.5442492580D+00  0.1143456438D+01  0.7443082909D+00
 Atom C18      Shell    53 SP   1    bf  144 -   147         11.327377034948         -0.928572058705         -0.032568919674
      0.1687144782D+00  0.1000000000D+01  0.1000000000D+01
 Atom C18      Shell    54 D   1     bf  148 -   153         11.327377034948         -0.928572058705         -0.032568919674
      0.8000000000D+00  0.1000000000D+01
 Atom H19      Shell    55 S   3     bf  154 -   154         11.615109721708         -2.925667876221          0.460005431165
      0.1873113696D+02  0.3349460434D-01
      0.2825394365D+01  0.2347269535D+00
      0.6401216923D+00  0.8137573261D+00
 Atom H19      Shell    56 S   1     bf  155 -   155         11.615109721708         -2.925667876221          0.460005431165
      0.1612777588D+00  0.1000000000D+01
 Atom C20      Shell    57 S   6     bf  156 -   156          8.812455042094          0.010062810555          1.146234342965
      0.3047524880D+04  0.1834737132D-02
      0.4573695180D+03  0.1403732281D-01
      0.1039486850D+03  0.6884262226D-01
      0.2921015530D+02  0.2321844432D+00
      0.9286662960D+01  0.4679413484D+00
      0.3163926960D+01  0.3623119853D+00
 Atom C20      Shell    58 SP   3    bf  157 -   160          8.812455042094          0.010062810555          1.146234342965
      0.7868272350D+01 -0.1193324198D+00  0.6899906659D-01
      0.1881288540D+01 -0.1608541517D+00  0.3164239610D+00
      0.5442492580D+00  0.1143456438D+01  0.7443082909D+00
 Atom C20      Shell    59 SP   1    bf  161 -   164          8.812455042094          0.010062810555          1.146234342965
      0.1687144782D+00  0.1000000000D+01  0.1000000000D+01
 Atom C20      Shell    60 D   1     bf  165 -   170          8.812455042094          0.010062810555          1.146234342965
      0.8000000000D+00  0.1000000000D+01
 Atom H21      Shell    61 S   3     bf  171 -   171          8.489160260643          1.901740028981          0.347968293061
      0.1873113696D+02  0.3349460434D-01
      0.2825394365D+01  0.2347269535D+00
      0.6401216923D+00  0.8137573261D+00
 Atom H21      Shell    62 S   1     bf  172 -   172          8.489160260643          1.901740028981          0.347968293061
      0.1612777588D+00  0.1000000000D+01
 Atom C22      Shell    63 S   6     bf  173 -   173          9.022796980849          0.334579205465          4.044344588654
      0.3047524880D+04  0.1834737132D-02
      0.4573695180D+03  0.1403732281D-01
      0.1039486850D+03  0.6884262226D-01
      0.2921015530D+02  0.2321844432D+00
      0.9286662960D+01  0.4679413484D+00
      0.3163926960D+01  0.3623119853D+00
 Atom C22      Shell    64 SP   3    bf  174 -   177          9.022796980849          0.334579205465          4.044344588654
      0.7868272350D+01 -0.1193324198D+00  0.6899906659D-01
      0.1881288540D+01 -0.1608541517D+00  0.3164239610D+00
      0.5442492580D+00  0.1143456438D+01  0.7443082909D+00
 Atom C22      Shell    65 SP   1    bf  178 -   181          9.022796980849          0.334579205465          4.044344588654
      0.1687144782D+00  0.1000000000D+01  0.1000000000D+01
 Atom C22      Shell    66 D   1     bf  182 -   187          9.022796980849          0.334579205465          4.044344588654
      0.8000000000D+00  0.1000000000D+01
 Atom H23      Shell    67 S   3     bf  188 -   188          9.043408639520         -1.519217961299          4.962526592929
      0.1873113696D+02  0.3349460434D-01
      0.2825394365D+01  0.2347269535D+00
      0.6401216923D+00  0.8137573261D+00
 Atom H23      Shell    68 S   1     bf  189 -   189          9.043408639520         -1.519217961299          4.962526592929
      0.1612777588D+00  0.1000000000D+01
 Atom H24      Shell    69 S   3     bf  190 -   190          7.333234117055          1.300044444153          4.754260045899
      0.1873113696D+02  0.3349460434D-01
      0.2825394365D+01  0.2347269535D+00
      0.6401216923D+00  0.8137573261D+00
 Atom H24      Shell    70 S   1     bf  191 -   191          7.333234117055          1.300044444153          4.754260045899
      0.1612777588D+00  0.1000000000D+01
 Atom C25      Shell    71 S   6     bf  192 -   192         11.373333133595          1.815093855911          4.926643263693
      0.3047524880D+04  0.1834737132D-02
      0.4573695180D+03  0.1403732281D-01
      0.1039486850D+03  0.6884262226D-01
      0.2921015530D+02  0.2321844432D+00
      0.9286662960D+01  0.4679413484D+00
      0.3163926960D+01  0.3623119853D+00
 Atom C25      Shell    72 SP   3    bf  193 -   196         11.373333133595          1.815093855911          4.926643263693
      0.7868272350D+01 -0.1193324198D+00  0.6899906659D-01
      0.1881288540D+01 -0.1608541517D+00  0.3164239610D+00
      0.5442492580D+00  0.1143456438D+01  0.7443082909D+00
 Atom C25      Shell    73 SP   1    bf  197 -   200         11.373333133595          1.815093855911          4.926643263693
      0.1687144782D+00  0.1000000000D+01  0.1000000000D+01
 Atom C25      Shell    74 D   1     bf  201 -   206         11.373333133595          1.815093855911          4.926643263693
      0.8000000000D+00  0.1000000000D+01
 Atom H26      Shell    75 S   3     bf  207 -   207         11.246425438196          3.781612600686          4.268969625542
      0.1873113696D+02  0.3349460434D-01
      0.2825394365D+01  0.2347269535D+00
      0.6401216923D+00  0.8137573261D+00
 Atom H26      Shell    76 S   1     bf  208 -   208         11.246425438196          3.781612600686          4.268969625542
      0.1612777588D+00  0.1000000000D+01
 Atom H27      Shell    77 S   3     bf  209 -   209         11.359015170015          1.883766843731          6.993750127412
      0.1873113696D+02  0.3349460434D-01
      0.2825394365D+01  0.2347269535D+00
      0.6401216923D+00  0.8137573261D+00
 Atom H27      Shell    78 S   1     bf  210 -   210         11.359015170015          1.883766843731          6.993750127412
      0.1612777588D+00  0.1000000000D+01
 Atom C28      Shell    79 S   6     bf  211 -   211         13.837261206904          0.647464468307          3.894096488945
      0.3047524880D+04  0.1834737132D-02
      0.4573695180D+03  0.1403732281D-01
      0.1039486850D+03  0.6884262226D-01
      0.2921015530D+02  0.2321844432D+00
      0.9286662960D+01  0.4679413484D+00
      0.3163926960D+01  0.3623119853D+00
 Atom C28      Shell    80 SP   3    bf  212 -   215         13.837261206904          0.647464468307          3.894096488945
      0.7868272350D+01 -0.1193324198D+00  0.6899906659D-01
      0.1881288540D+01 -0.1608541517D+00  0.3164239610D+00
      0.5442492580D+00  0.1143456438D+01  0.7443082909D+00
 Atom C28      Shell    81 SP   1    bf  216 -   219         13.837261206904          0.647464468307          3.894096488945
      0.1687144782D+00  0.1000000000D+01  0.1000000000D+01
 Atom C28      Shell    82 D   1     bf  220 -   225         13.837261206904          0.647464468307          3.894096488945
      0.8000000000D+00  0.1000000000D+01
 Atom C29      Shell    83 S   6     bf  226 -   226         13.570129804218          0.619317526681          0.969186033855
      0.3047524880D+04  0.1834737132D-02
      0.4573695180D+03  0.1403732281D-01
      0.1039486850D+03  0.6884262226D-01
      0.2921015530D+02  0.2321844432D+00
      0.9286662960D+01  0.4679413484D+00
      0.3163926960D+01  0.3623119853D+00
 Atom C29      Shell    84 SP   3    bf  227 -   230         13.570129804218          0.619317526681          0.969186033855
      0.7868272350D+01 -0.1193324198D+00  0.6899906659D-01
      0.1881288540D+01 -0.1608541517D+00  0.3164239610D+00
      0.5442492580D+00  0.1143456438D+01  0.7443082909D+00
 Atom C29      Shell    85 SP   1    bf  231 -   234         13.570129804218          0.619317526681          0.969186033855
      0.1687144782D+00  0.1000000000D+01  0.1000000000D+01
 Atom C29      Shell    86 D   1     bf  235 -   240         13.570129804218          0.619317526681          0.969186033855
      0.8000000000D+00  0.1000000000D+01
 Atom H30      Shell    87 S   3     bf  241 -   241         13.200253897201          2.591654114610          0.436160035340
      0.1873113696D+02  0.3349460434D-01
      0.2825394365D+01  0.2347269535D+00
      0.6401216923D+00  0.8137573261D+00
 Atom H30      Shell    88 S   1     bf  242 -   242         13.200253897201          2.591654114610          0.436160035340
      0.1612777588D+00  0.1000000000D+01
 Atom C31      Shell    89 S   6     bf  243 -   243         16.231440868148          0.000000000000          0.000000000000
      0.3047524880D+04  0.1834737132D-02
      0.4573695180D+03  0.1403732281D-01
      0.1039486850D+03  0.6884262226D-01
      0.2921015530D+02  0.2321844432D+00
      0.9286662960D+01  0.4679413484D+00
      0.3163926960D+01  0.3623119853D+00
 Atom C31      Shell    90 SP   3    bf  244 -   247         16.231440868148          0.000000000000          0.000000000000
      0.7868272350D+01 -0.1193324198D+00  0.6899906659D-01
      0.1881288540D+01 -0.1608541517D+00  0.3164239610D+00
      0.5442492580D+00  0.1143456438D+01  0.7443082909D+00
 Atom C31      Shell    91 SP   1    bf  248 -   251         16.231440868148          0.000000000000          0.000000000000
      0.1687144782D+00  0.1000000000D+01  0.1000000000D+01
 Atom C31      Shell    92 D   1     bf  252 -   257         16.231440868148          0.000000000000          0.000000000000
      0.8000000000D+00  0.1000000000D+01
 Atom H32      Shell    93 S   3     bf  258 -   258         16.524438539784          0.662457782213         -1.935362055235
      0.1873113696D+02  0.3349460434D-01
      0.2825394365D+01  0.2347269535D+00
      0.6401216923D+00  0.8137573261D+00
 Atom H32      Shell    94 S   1     bf  259 -   259         16.524438539784          0.662457782213         -1.935362055235
      0.1612777588D+00  0.1000000000D+01
 Atom H33      Shell    95 S   3     bf  260 -   260         16.562420939014         -2.047425800682          0.000091028108
      0.1873113696D+02  0.3349460434D-01
      0.2825394365D+01  0.2347269535D+00
      0.6401216923D+00  0.8137573261D+00
 Atom H33      Shell    96 S   1     bf  261 -   261         16.562420939014         -2.047425800682          0.000091028108
      0.1612777588D+00  0.1000000000D+01
 Atom C34      Shell    97 S   6     bf  262 -   262         17.990340240401          1.351494165642          1.922414955683
      0.3047524880D+04  0.1834737132D-02
      0.4573695180D+03  0.1403732281D-01
      0.1039486850D+03  0.6884262226D-01
      0.2921015530D+02  0.2321844432D+00
      0.9286662960D+01  0.4679413484D+00
      0.3163926960D+01  0.3623119853D+00
 Atom C34      Shell    98 SP   3    bf  263 -   266         17.990340240401          1.351494165642          1.922414955683
      0.7868272350D+01 -0.1193324198D+00  0.6899906659D-01
      0.1881288540D+01 -0.1608541517D+00  0.3164239610D+00
      0.5442492580D+00  0.1143456438D+01  0.7443082909D+00
 Atom C34      Shell    99 SP   1    bf  267 -   270         17.990340240401          1.351494165642          1.922414955683
      0.1687144782D+00  0.1000000000D+01  0.1000000000D+01
 Atom C34      Shell   100 D   1     bf  271 -   276         17.990340240401          1.351494165642          1.922414955683
      0.8000000000D+00  0.1000000000D+01
 Atom H35      Shell   101 S   3     bf  277 -   277         19.455825010742          0.062849626666          2.620040031003
      0.1873113696D+02  0.3349460434D-01
      0.2825394365D+01  0.2347269535D+00
      0.6401216923D+00  0.8137573261D+00
 Atom H35      Shell   102 S   1     bf  278 -   278         19.455825010742          0.062849626666          2.620040031003
      0.1612777588D+00  0.1000000000D+01
 Atom H36      Shell   103 S   3     bf  279 -   279         18.979588173801          2.933388049981          1.032704415702
      0.1873113696D+02  0.3349460434D-01
      0.2825394365D+01  0.2347269535D+00
      0.6401216923D+00  0.8137573261D+00
 Atom H36      Shell   104 S   1     bf  280 -   280         18.979588173801          2.933388049981          1.032704415702
      0.1612777588D+00  0.1000000000D+01
 Atom C37      Shell   105 S   6     bf  281 -   281         16.291964676581          2.290294971753          4.161062597286
      0.3047524880D+04  0.1834737132D-02
      0.4573695180D+03  0.1403732281D-01
      0.1039486850D+03  0.6884262226D-01
      0.2921015530D+02  0.2321844432D+00
      0.9286662960D+01  0.4679413484D+00
      0.3163926960D+01  0.3623119853D+00
 Atom C37      Shell   106 SP   3    bf  282 -   285         16.291964676581          2.290294971753          4.161062597286
      0.7868272350D+01 -0.1193324198D+00  0.6899906659D-01
      0.1881288540D+01 -0.1608541517D+00  0.3164239610D+00
      0.5442492580D+00  0.1143456438D+01  0.7443082909D+00
[...]
 1643 Fit      -0.000004
 1644 Fit      -0.000503
 1645 Fit      -0.002383
 1646 Fit      -0.002625
 1647 Fit      -0.003481
 1648 Fit      -0.003426
 1649 Fit      -0.003623
 1650 Fit      -0.003484
 1651 Fit      -0.003118
 1652 Fit      -0.002169
 1653 Fit      -0.002987
 1654 Fit       0.001720
 1655 Fit       0.001898
 1656 Fit       0.002515
 1657 Fit      -0.000061
 1658 Fit       0.001185
 1659 Fit       0.000644
 1660 Fit      -0.001183
 1661 Fit      -0.000223
 1662 Fit       0.000486
 1663 Fit      -0.001882
 1664 Fit      -0.002630
 1665 Fit      -0.002163
 1666 Fit      -0.001733
 1667 Fit      -0.001645
 1668 Fit      -0.001579
 1669 Fit      -0.003145
 1670 Fit      -0.002155
 1671 Fit       0.000530
 1672 Fit       0.001276
 1673 Fit      -0.002964
 1674 Fit      -0.001619
 1675 Fit      -0.000295
 1676 Fit       0.001056
 1677 Fit       0.001178
 1678 Fit      -0.000409
 1679 Fit      -0.001934
 1680 Fit      -0.001932
 1681 Fit      -0.000258
 1682 Fit      -0.000093
 1683 Fit       0.001067
 1684 Fit       0.004370
 1685 Fit       0.002679
 1686 Fit       0.000013
 1687 Fit       0.002671
 1688 Fit       0.000648
 1689 Fit      -0.002132
 1690 Fit      -0.001186
 1691 Fit      -0.000990
 1692 Fit       0.004295
 1693 Fit      -0.000223
 1694 Fit       0.007928
 1695 Fit       0.005888
 1696 Fit       0.002310
 1697 Fit      -0.003648
 1698 Fit       0.010508
 1699 Fit       0.006591
 1700 Fit       0.001381
 1701 Fit      -0.006321
 1702 Fit       0.002983
 1703 Fit      -0.004754
 1704 Fit      -0.005213
 1705 Fit       0.003462
 1706 Fit       0.004386
 1707 Fit       0.004672
 1708 Fit       0.003644
 1709 Fit       0.002316
 1710 Fit       0.003564
 1711 Fit      -0.002805
 1712 Fit       0.002272
 1713 Fit       0.004014
 1714 Fit       0.006992
 1715 Fit       0.006214
 1716 Fit      -0.000208
 1717 Fit      -0.004722
 1718 Fit       0.000232
 1719 Fit       0.004186
 1720 Fit       0.002668
 1721 Fit       0.021333
 1722 Fit       0.014490
 1723 Fit       0.010497
 1724 Fit       0.006608
 1725 Fit       0.017422
 1726 Fit       0.011324
 1727 Fit       0.007942
 1728 Fit       0.004593
 1729 Fit       0.008760
 1730 Fit       0.006742
 1731 Fit       0.004761
 1732 Fit       0.005106
 1733 Fit       0.006132
 1734 Fit       0.004975
 1735 Fit       0.004300
 1736 Fit       0.003819
 1737 Fit       0.004314
 1738 Fit       0.004607
 1739 Fit       0.003745
 1740 Fit       0.004751
 1741 Fit       0.004886
 1742 Fit       0.003524
 1743 Fit       0.005625
 1744 Fit       0.006011
 1745 Fit       0.009031
 1746 Fit       0.008244
 1747 Fit       0.008547
 1748 Fit       0.009702
 1749 Fit       0.006957
 1750 Fit       0.006828
 1751 Fit       0.007320
 1752 Fit       0.008079
 1753 Fit       0.009469
 1754 Fit       0.005589
 1755 Fit       0.007393
 1756 Fit       0.006249
 1757 Fit       0.004755
 1758 Fit       0.009518
 1759 Fit       0.007840
 1760 Fit       0.009747
 1761 Fit       0.008241
 1762 Fit       0.011295
 1763 Fit       0.012597
 1764 Fit       0.011382
 1765 Fit       0.015795
 1766 Fit       0.017386
 1767 Fit       0.006068
 1768 Fit       0.005500
 1769 Fit       0.005394
 1770 Fit       0.004710
 1771 Fit       0.004004
 1772 Fit       0.004055
 1773 Fit       0.004291
 1774 Fit       0.003136
 1775 Fit       0.001791
 1776 Fit       0.000834
 1777 Fit       0.001974
 1778 Fit       0.002665
 1779 Fit       0.000069
 1780 Fit      -0.003041
 1781 Fit      -0.006248
 1782 Fit      -0.006185
 1783 Fit      -0.000266
 1784 Fit       0.002208
 1785 Fit      -0.000401
 1786 Fit       0.000899
 1787 Fit       0.001195
 1788 Fit       0.001179
 1789 Fit       0.002856
 1790 Fit       0.001512
 1791 Fit       0.012321
 1792 Fit       0.004583
 1793 Fit       0.002575
 1794 Fit      -0.000940
 1795 Fit      -0.001407
 1796 Fit       0.009708
 1797 Fit       0.007437
 1798 Fit       0.005948
 1799 Fit       0.003132
 1800 Fit       0.005107
 1801 Fit       0.005289
 1802 Fit       0.003116
 1803 Fit       0.001751
 1804 Fit      -0.001711
 1805 Fit      -0.010852
 1806 Fit       0.001308
 1807 Fit      -0.000063
 1808 Fit      -0.003642
 1809 Fit      -0.006016
 1810 Fit       0.008207
 1811 Fit       0.006805
 1812 Fit       0.006006
 1813 Fit       0.001675
 1814 Fit      -0.006652
 1815 Fit      -0.000567
 1816 Fit       0.004444
 1817 Fit       0.004933
 1818 Fit       0.005338
 1819 Fit       0.006051
 1820 Fit       0.004948
 1821 Fit       0.007011
 1822 Fit       0.004318
 1823 Fit       0.005626
 1824 Fit       0.003192
 1825 Fit       0.005364
 1826 Fit       0.007290
 1827 Fit       0.008508
 1828 Fit       0.003481
 1829 Fit       0.005461
 1830 Fit       0.003485
 1831 Fit       0.004956
 1832 Fit      -0.000131
 1833 Fit       0.000496
 1834 Fit       0.002531
 1835 Fit       0.000351
 1836 Fit       0.000581
 1837 Fit       0.001005
 1838 Fit       0.001030
 1839 Fit       0.001464
 1840 Fit       0.000336
 1841 Fit       0.000720
 1842 Fit       0.001494
 1843 Fit       0.002817
 1844 Fit      -0.002141
 1845 Fit      -0.001507
 1846 Fit       0.000083
 1847 Fit       0.001863
 1848 Fit       0.003804
 1849 Fit       0.005077
 1850 Fit       0.001637
 1851 Fit       0.003295
 1852 Fit       0.004229
 1853 Fit       0.004821
 1854 Fit      -0.008158
 1855 Fit      -0.008716
 1856 Fit      -0.009189
 1857 Fit      -0.009490
 1858 Fit      -0.019784
 1859 Fit      -0.005934
 1860 Fit      -0.004911
 1861 Fit      -0.003869
 1862 Fit      -0.012104
 1863 Fit      -0.007563
 1864 Fit      -0.009332
 1865 Fit      -0.014468
 1866 Fit      -0.005704
 1867 Fit      -0.006820
 1868 Fit      -0.011908
 1869 Fit      -0.019133
 1870 Fit      -0.010977
 1871 Fit       0.004607
 1872 Fit       0.003640
 1873 Fit       0.002594
 1874 Fit       0.004471
 1875 Fit       0.002637
 1876 Fit       0.000901
 1877 Fit      -0.001209
 1878 Fit       0.002820
 1879 Fit       0.000106
 1880 Fit      -0.002549
 1881 Fit      -0.002651
 1882 Fit      -0.002398
 1883 Fit      -0.003872
 1884 Fit      -0.003821
 1885 Fit      -0.005420
 1886 Fit       0.003674
 1887 Fit       0.003772
 1888 Fit       0.003765
 1889 Fit       0.002663
 1890 Fit       0.002439
 1891 Fit      -0.001244
 1892 Fit       0.002109
 1893 Fit       0.000919
 1894 Fit      -0.000025
 1895 Fit      -0.002239
 1896 Fit      -0.002004
 1897 Fit      -0.000586
 1898 Fit      -0.000873
 1899 Fit      -0.002194
 1900 Fit      -0.003873
 1901 Fit      -0.003492
 1902 Fit      -0.002650
 1903 Fit      -0.003425
 1904 Fit      -0.006026
 1905 Fit      -0.011098
 1906 Fit      -0.005642
 1907 Fit      -0.006189
 1908 Fit       0.000729
 1909 Fit      -0.001322
 1910 Fit      -0.000799
 1911 Fit      -0.000077
 1912 Fit      -0.003347
 1913 Fit      -0.003555
 1914 Fit       0.001434
 1915 Fit       0.000617
 1916 Fit       0.000666
 1917 Fit       0.001507
 1918 Fit       0.001182
 1919 Fit       0.002680
 1920 Fit       0.005214
 1921 Fit       0.002963
 1922 Fit       0.005176
 1923 Fit       0.002645
 1924 Fit       0.007599
 1925 Fit       0.004347
 1926 Fit       0.001765
 1927 Fit       0.001689
 1928 Fit       0.002495
 1929 Fit       0.003224
 1930 Fit       0.002845
 1931 Fit       0.003346
 1932 Fit       0.003738
 1933 Fit       0.004264
 1934 Fit       0.005207
 1935 Fit       0.003778
 1936 Fit       0.002836
 1937 Fit       0.004554
 1938 Fit       0.003325
 1939 Fit       0.002254
 1940 Fit       0.001647
 1941 Fit       0.001473
 1942 Fit      -0.000154
 1943 Fit       0.001371
 1944 Fit       0.001199
 1945 Fit       0.001820
 1946 Fit       0.002301
 1947 Fit       0.003310
 1948 Fit      -0.000534
 1949 Fit      -0.000045
 1950 Fit      -0.001088
 1951 Fit      -0.001321
 1952 Fit      -0.000701
 1953 Fit       0.000514
 1954 Fit      -0.000907
 1955 Fit      -0.000815
 1956 Fit       0.000240
 1957 Fit       0.000331
 1958 Fit      -0.000556
 1959 Fit      -0.000469
 1960 Fit      -0.000261
 1961 Fit      -0.000566
 1962 Fit       0.000202
 1963 Fit       0.000745
 1964 Fit       0.000811
 1965 Fit       0.000292
 1966 Fit       0.001092
 1967 Fit       0.001296
 1968 Fit       0.001202
 1969 Fit       0.001269
 1970 Fit       0.001424
 1971 Fit       0.002561
 1972 Fit       0.001882
 1973 Fit       0.000468
 1974 Fit       0.000022
 1975 Fit       0.000552
 1976 Fit       0.001502
 1977 Fit       0.001253
 1978 Fit      -0.000279
 1979 Fit       0.000552
 1980 Fit      -0.000646
 1981 Fit       0.000970
 1982 Fit       0.001629
 1983 Fit       0.001676
 1984 Fit       0.003715
 1985 Fit       0.004167
 1986 Fit       0.003296
 1987 Fit       0.005974
 1988 Fit       0.005731
 1989 Fit       0.007066
 1990 Fit       0.010014
 1991 Fit       0.008845
 1992 Fit       0.007120
 1993 Fit       0.005669
 1994 Fit       0.005427
 1995 Fit       0.005752
 1996 Fit       0.006304
 1997 Fit       0.004967
 1998 Fit       0.008035
 1999 Fit       0.008507
 2000 Fit       0.008608
 2001 Fit       0.007710
 2002 Fit       0.007292
 2003 Fit       0.009624
 2004 Fit       0.008629
 2005 Fit       0.007550
 2006 Fit       0.006458
 2007 Fit       0.006089
 2008 Fit       0.011172
 2009 Fit       0.009388
 2010 Fit       0.016165
 2011 Fit       0.012626
 2012 Fit       0.009421
 2013 Fit       0.016872
 2014 Fit       0.011719
 2015 Fit       0.007909
 2016 Fit       0.006346
 2017 Fit       0.006136
 2018 Fit       0.007258
 2019 Fit       0.005896
 2020 Fit       0.006947
 2021 Fit       0.004551
 2022 Fit      -0.013812
 2023 Fit      -0.009239
 2024 Fit      -0.023966
 2025 Fit      -0.021698
 2026 Fit      -0.016722
 2027 Fit      -0.010426
 2028 Fit      -0.004167
 2029 Fit       0.000314
 2030 Fit      -0.021726
 2031 Fit      -0.024443
 2032 Fit      -0.024297
 2033 Fit      -0.020286
 2034 Fit      -0.012151
 2035 Fit      -0.017867
 2036 Fit      -0.022241
 2037 Fit      -0.022741
 2038 Fit      -0.019959
 2039 Fit      -0.012693
 2040 Fit      -0.010666
 2041 Fit      -0.015815
 2042 Fit      -0.019749
 2043 Fit      -0.018819
 2044 Fit      -0.017319
 2045 Fit      -0.011531
 2046 Fit      -0.000730
 2047 Fit       0.001085
 2048 Fit      -0.007676
 2049 Fit      -0.013777
 2050 Fit      -0.017391
 2051 Fit      -0.011966
 2052 Fit      -0.006170
 2053 Fit      -0.000839
 2054 Fit      -0.009560
 2055 Fit      -0.002491
 2056 Fit       0.003313
 2057 Fit       0.009953
 2058 Fit       0.012715
 2059 Fit      -0.001070
 2060 Fit       0.008740
 2061 Fit       0.014442
 2062 Fit       0.016678
 2063 Fit       0.015812
 2064 Fit       0.009758
 2065 Fit       0.015456
 2066 Fit       0.017052
 2067 Fit       0.015493
 2068 Fit       0.012219
 2069 Fit       0.013928
 2070 Fit       0.008682
 2071 Fit       0.007396
 2072 Fit      -0.000580
 2073 Fit      -0.013948
 2074 Fit      -0.011251
 2075 Fit      -0.001694
 2076 Fit      -0.018082
 2077 Fit      -0.019995
 2078 Fit      -0.016714
 2079 Fit      -0.008737
 2080 Fit      -0.020045
 2081 Fit      -0.023093
 2082 Fit      -0.020880
 2083 Fit      -0.014186
 2084 Fit      -0.005077
 2085 Fit      -0.015412
 2086 Fit      -0.021842
 2087 Fit      -0.023943
 2088 Fit      -0.021157
 2089 Fit      -0.015284
 2090 Fit      -0.009672
 2091 Fit      -0.007069
 2092 Fit      -0.016006
 2093 Fit      -0.021891
 2094 Fit      -0.022075
 2095 Fit      -0.017571
 2096 Fit      -0.014411
 2097 Fit      -0.019647
 2098 Fit       0.012107
 2099 Fit       0.019166
 2100 Fit       0.023566
 2101 Fit       0.001174
 2102 Fit       0.010835
 2103 Fit       0.017083
 2104 Fit       0.020727
 2105 Fit       0.022702
 2106 Fit       0.005084
 2107 Fit       0.011891
 2108 Fit       0.015393
 2109 Fit       0.016349
 2110 Fit       0.002673
 2111 Fit       0.006531
 2112 Fit       0.005614
 2113 Fit      -0.002499
 2114 Fit       0.000419
 2115 Fit       0.000758
 2116 Fit       0.000945
 2117 Fit      -0.000078
 2118 Fit       0.000222
 2119 Fit       0.000557
 2120 Fit      -0.001550
 2121 Fit      -0.001119
 2122 Fit      -0.000695
 2123 Fit      -0.002417
 2124 Fit      -0.000910
 2125 Fit      -0.001212
 2126 Fit      -0.000774
 2127 Fit       0.001427
 2128 Fit       0.000173
 2129 Fit       0.000430
 2130 Fit       0.001680
 2131 Fit       0.001709
 2132 Fit       0.000340
 2133 Fit       0.000197
 2134 Fit      -0.000090
 2135 Fit      -0.001139
 2136 Fit       0.000000
 2137 Fit       0.000010
 2138 Fit      -0.000605
 2139 Fit       0.001371
 2140 Fit       0.001291
 2141 Fit       0.000220
 2142 Fit       0.002455
 2143 Fit       0.003839
 2144 Fit      -0.001388
 2145 Fit      -0.001100
 2146 Fit       0.000085
 2147 Fit       0.000701
 2148 Fit      -0.000412
 2149 Fit      -0.001064
 2150 Fit      -0.000287
 2151 Fit      -0.000048
 2152 Fit       0.000619
 2153 Fit       0.001234
 2154 Fit       0.000055
 2155 Fit      -0.001667
 2156 Fit       0.000454
 2157 Fit       0.001303
 2158 Fit      -0.001280
 2159 Fit      -0.001771
 2160 Fit      -0.000455
 2161 Fit      -0.000050
 2162 Fit      -0.000240
 2163 Fit       0.000008
 2164 Fit       0.000610
 2165 Fit       0.000716
 2166 Fit       0.000388
 2167 Fit       0.001034
 2168 Fit       0.000884
 2169 Fit       0.000115
 2170 Fit      -0.001344
 2171 Fit      -0.001602
 2172 Fit      -0.001172
 2173 Fit      -0.000889
 2174 Fit      -0.001300
 2175 Fit      -0.000983
 2176 Fit      -0.000151
 2177 Fit      -0.000710
 2178 Fit      -0.001389
 2179 Fit      -0.000966
 2180 Fit      -0.002614
 2181 Fit      -0.002928
 2182 Fit      -0.002803
 2183 Fit      -0.003016
 2184 Fit      -0.003383
 2185 Fit      -0.003108
 2186 Fit      -0.003244
 2187 Fit      -0.003144
 2188 Fit      -0.002588
 2189 Fit      -0.002921
 2190 Fit      -0.002730
 2191 Fit      -0.002366
 2192 Fit      -0.002112
 2193 Fit       0.000260
 2194 Fit       0.000640
 2195 Fit      -0.000595
 2196 Fit      -0.001820
 2197 Fit       0.001433
 2198 Fit       0.000196
 2199 Fit      -0.000690
 2200 Fit      -0.001831
 2201 Fit       0.000820
 2202 Fit      -0.001043
 2203 Fit      -0.001719
 2204 Fit      -0.002664
 2205 Fit      -0.000687
 2206 Fit      -0.002650
 2207 Fit      -0.002610
 2208 Fit      -0.001035
 2209 Fit      -0.001459
 2210 Fit      -0.002223
 2211 Fit      -0.000924
 2212 Fit       0.000179
 2213 Fit      -0.000448
 2214 Fit      -0.001430
 2215 Fit      -0.002418
 2216 Fit       0.000641
 2217 Fit       0.000480
 2218 Fit      -0.000457
 2219 Fit      -0.001425
 2220 Fit      -0.001187
 2221 Fit      -0.000062
 2222 Fit       0.000864
 2223 Fit      -0.000149
 2224 Fit      -0.001951
 2225 Fit      -0.002029
 2226 Fit      -0.000611
 2227 Fit       0.000213
 2228 Fit      -0.002655
 2229 Fit      -0.000981
 2230 Fit       0.000235
 2231 Fit       0.000899
 2232 Fit      -0.002810
 2233 Fit      -0.001205
 2234 Fit      -0.000056
 2235 Fit       0.000446
 2236 Fit       0.000380
 2237 Fit      -0.002509
 2238 Fit      -0.001289
 2239 Fit      -0.000813
 2240 Fit      -0.001076
 2241 Fit      -0.000950
 2242 Fit      -0.001635
 2243 Fit      -0.002452
 2244 Fit      -0.002753
 2245 Fit      -0.002787
 2246 Fit      -0.002511
 2247 Fit      -0.001595
 2248 Fit      -0.002298
 2249 Fit      -0.001985
 2250 Fit      -0.002439
 2251 Fit       0.001470
 2252 Fit       0.000098
 2253 Fit       0.000910
 2254 Fit       0.000757
 2255 Fit      -0.000563
 2256 Fit       0.000055
 2257 Fit       0.000552
 2258 Fit      -0.000781
 2259 Fit      -0.001484
 2260 Fit      -0.001014
 2261 Fit      -0.000733
 2262 Fit      -0.002442
 2263 Fit      -0.002444
 2264 Fit      -0.000745
 2265 Fit      -0.000367
 2266 Fit      -0.001908
 2267 Fit      -0.001183
 2268 Fit       0.000362
 2269 Fit       0.000970
 2270 Fit      -0.002224
 2271 Fit      -0.001265
 2272 Fit      -0.000298
 2273 Fit       0.000413
 2274 Fit       0.000502
 2275 Fit      -0.000625
 2276 Fit      -0.001720
 2277 Fit      -0.001699
 2278 Fit      -0.000540
 2279 Fit      -0.000488
 2280 Fit       0.000684
 2281 Fit       0.001595
 2282 Fit      -0.000617
 2283 Fit       0.003299
 2284 Fit       0.001416
 2285 Fit      -0.000689
 2286 Fit      -0.000073
 2287 Fit      -0.001996
 2288 Fit      -0.001795
 2289 Fit      -0.001508
 -----------------------------------------------------------------
 Leave Link  602 at Wed Apr 26 14:03:49 2017, MaxMem=    33554432 cpu:         4.3
 (Enter /home/michal/g09/l9999.exe)

 Test job not archived.
 1\1\GINC-LINUX\SP\RHF\6-31G(d)\C27H46O3\MICHAL\26-Apr-2017\0\\#P HF/6-
 31G* SCF(Conver=6) NoSymm Test Pop=mk IOp(6/33=2) GFInput GFPrint\\MEP
  - Input generated by R.E.D.-III.x MOLECULE\\0,1\C,0,1.01426659,-0.882
 33419,-1.68741326\H,0,1.14510746,0.08830006,-2.18136766\C,0,2.24987287
 ,-1.75269693,-1.96681764\H,0,2.38847112,-1.85983381,-3.04714755\H,0,2.
 04446918,-2.7608667,-1.57380886\C,0,3.50798046,-1.19330548,-1.32852468
 \C,0,3.43386292,-0.86627672,0.16818161\C,0,2.12913165,-0.04963987,0.42
 246844\H,0,2.2662588,0.95508146,0.\H,0,1.98909034,0.0833138,1.50068915
 \C,0,0.85568643,-0.65964368,-0.18336362\H,0,0.6214983,-1.62015895,0.29
 904496\H,0,0.,0.,0.\C,0,4.61054477,-1.01133195,-2.07173327\H,0,4.58313
 002,-1.265813,-3.12965075\C,0,5.91109017,-0.46780803,-1.55431493\H,0,6
 .75160568,-1.03060022,-1.97981775\C,0,5.99418976,-0.49137917,-0.017234
 73\H,0,6.14645134,-1.54819676,0.24342439\C,0,4.66335036,0.00532501,0.6
 0656109\H,0,4.49227013,1.00635748,0.18413689\C,0,4.77465852,0.17705169
 ,2.14017498\H,0,4.78556574,-0.80393552,2.62605597\H,0,3.88058036,0.687
 95389,2.51584606\C,0,6.01850868,0.9605063,2.60706733\H,0,5.95135202,2.
 0011432,2.25904143\H,0,6.01093194,0.99684648,3.70093317\C,0,7.32236326
 ,0.34262344,2.06066711\C,0,7.18100341,0.32772872,0.51287116\H,0,6.9852
 7351,1.37144429,0.23080595\C,0,8.58930857,0.,0.\H,0,8.74435626,0.35055
 756,-1.02414949\H,0,8.76445568,-1.08345107,0.00004817\C,0,9.52007803,0
 .71517991,1.01729818\H,0,10.29557917,0.03325859,1.38646547\H,0,10.0435
 6549,1.5522821,0.54648364\C,0,8.62133639,1.2119719,2.20193949\H,0,8.31
 796311,2.24854398,1.98528862\C,0,7.55600328,-1.06644884,2.65239606\H,0
 ,6.76065172,-1.76863535,2.38905136\H,0,8.49797504,-1.50289634,2.306744
 63\H,0,7.5988447,-1.02577829,3.74576648\C,0,9.37935707,1.24192949,3.55
 462906\H,0,9.75048477,0.22480216,3.75338665\C,0,8.48956516,1.66504821,
 4.7374662\H,0,7.99727205,2.62373059,4.53170885\H,0,9.07656273,1.785558
 84,5.65302398\H,0,7.71082496,0.93022685,4.9542831\C,0,3.37238082,-2.20
 463141,0.95461709\H,0,3.11936128,-2.03715561,2.00569099\H,0,2.61623793
 ,-2.87928318,0.54615428\H,0,4.3299618,-2.7328382,0.91290843\O,0,6.0960
 2176,0.91658916,-1.95995681\O,0,6.27230265,0.93337938,-3.40431495\H,0,
 5.42875138,1.322878,-3.68835203\O,0,-0.1633221,-1.42472004,-2.29035261
 \H,0,-0.35641112,-2.27943061,-1.88005255\C,0,10.61781472,2.17039507,3.
 46140808\H,0,11.11926494,2.00911175,2.50244612\H,0,10.27322518,3.21626
 439,3.45188422\C,0,11.65053513,1.98492038,4.58540446\H,0,11.16286915,2
 .08845888,5.56224039\H,0,12.03471489,0.95623588,4.55238828\C,0,12.8212
 1813,2.98511897,4.54538557\H,0,13.4467622,2.82733721,5.43663146\H,0,12
 .41303103,4.00190817,4.63925696\C,0,13.73742883,2.94169778,3.30371943\
 H,0,13.11994721,3.12053612,2.41195281\C,0,14.77837168,4.07054818,3.374
 75746\H,0,15.43312401,3.94446759,4.24673995\H,0,15.41364979,4.08338498
 ,2.48174331\H,0,14.29804773,5.05220983,3.45891138\C,0,14.4300448,1.580
 39853,3.13299406\H,0,15.04448192,1.34343597,4.01146046\H,0,15.08989125
 ,1.58411977,2.25795568\H,0,13.71179998,0.76495242,2.99951872\\Version=
 EM64L-G09RevD.01\HF=-1273.6830921\RMSD=5.530e-07\Dipole=-0.4128453,-0.
 5964688,0.697276\Quadrupole=-11.1768881,8.8311044,2.3457837,-5.1877452
 ,3.6035264,-0.5909484\PG=C01 [X(C27H46O3)]\\@


 HO!  SUCH BUGS AND GOBLINS IN MY LIFE!

                            -- HAMLET, ACT 5, SCENE 2
 Job cpu time:       0 days  0 hours 12 minutes 34.1 seconds.
 File lengths (MBytes):  RWF=    159 Int=      0 D2E=      0 Chk=     11 Scr=      1
 Normal termination of Gaussian 09 at Wed Apr 26 14:03:49 2017.
