 Entering Gaussian System, Link 0=/home/michal/g09/g09
 Input=JOB2-gau_m1-19-4.com
 Output=JOB2-gau_m1-19-4.log
 Initial command:
 /home/michal/g09/l1.exe "/home/michal/gauss_scratch/Gau-14448.inp" -scrdir="/home/michal/gauss_scratch/"
 Entering Link 1 = /home/michal/g09/l1.exe PID=     14449.
  
 Copyright (c) 1988,1990,1992,1993,1995,1998,2003,2009,2013,
            Gaussian, Inc.  All Rights Reserved.
  
 This is part of the Gaussian(R) 09 program.  It is based on
 the Gaussian(R) 03 system (copyright 2003, Gaussian, Inc.),
 the Gaussian(R) 98 system (copyright 1998, Gaussian, Inc.),
 the Gaussian(R) 94 system (copyright 1995, Gaussian, Inc.),
 the Gaussian 92(TM) system (copyright 1992, Gaussian, Inc.),
 the Gaussian 90(TM) system (copyright 1990, Gaussian, Inc.),
 the Gaussian 88(TM) system (copyright 1988, Gaussian, Inc.),
 the Gaussian 86(TM) system (copyright 1986, Carnegie Mellon
 University), and the Gaussian 82(TM) system (copyright 1983,
 Carnegie Mellon University). Gaussian is a federally registered
 trademark of Gaussian, Inc.
  
 This software contains proprietary and confidential information,
 including trade secrets, belonging to Gaussian, Inc.
  
 This software is provided under written license and may be
 used, copied, transmitted, or stored only in accord with that
 written license.
  
 The following legend is applicable only to US Government
 contracts under FAR:
  
                    RESTRICTED RIGHTS LEGEND
  
 Use, reproduction and disclosure by the US Government is
 subject to restrictions as set forth in subparagraphs (a)
 and (c) of the Commercial Computer Software - Restricted
 Rights clause in FAR 52.227-19.
  
 Gaussian, Inc.
 340 Quinnipiac St., Bldg. 40, Wallingford CT 06492
  
  
 ---------------------------------------------------------------
 Warning -- This program may not be used in any manner that
 competes with the business of Gaussian, Inc. or will provide
 assistance to any competitor of Gaussian, Inc.  The licensee
 of this program is prohibited from giving any competitor of
 Gaussian, Inc. access to this program.  By using this program,
 the user acknowledges that Gaussian, Inc. is engaged in the
 business of creating and licensing software in the field of
 computational chemistry and represents and warrants to the
 licensee that it is not a competitor of Gaussian, Inc. and that
 it will not use this program in any manner prohibited above.
 ---------------------------------------------------------------
  

 Cite this work as:
 Gaussian 09, Revision D.01,
 M. J. Frisch, G. W. Trucks, H. B. Schlegel, G. E. Scuseria, 
 M. A. Robb, J. R. Cheeseman, G. Scalmani, V. Barone, B. Mennucci, 
 G. A. Petersson, H. Nakatsuji, M. Caricato, X. Li, H. P. Hratchian, 
 A. F. Izmaylov, J. Bloino, G. Zheng, J. L. Sonnenberg, M. Hada, 
 M. Ehara, K. Toyota, R. Fukuda, J. Hasegawa, M. Ishida, T. Nakajima, 
 Y. Honda, O. Kitao, H. Nakai, T. Vreven, J. A. Montgomery, Jr., 
 J. E. Peralta, F. Ogliaro, M. Bearpark, J. J. Heyd, E. Brothers, 
 K. N. Kudin, V. N. Staroverov, T. Keith, R. Kobayashi, J. Normand, 
 K. Raghavachari, A. Rendell, J. C. Burant, S. S. Iyengar, J. Tomasi, 
 M. Cossi, N. Rega, J. M. Millam, M. Klene, J. E. Knox, J. B. Cross, 
 V. Bakken, C. Adamo, J. Jaramillo, R. Gomperts, R. E. Stratmann, 
 O. Yazyev, A. J. Austin, R. Cammi, C. Pomelli, J. W. Ochterski, 
 R. L. Martin, K. Morokuma, V. G. Zakrzewski, G. A. Voth, 
 P. Salvador, J. J. Dannenberg, S. Dapprich, A. D. Daniels, 
 O. Farkas, J. B. Foresman, J. V. Ortiz, J. Cioslowski, 
 and D. J. Fox, Gaussian, Inc., Wallingford CT, 2013.
 
 ******************************************
 Gaussian 09:  EM64L-G09RevD.01 24-Apr-2013
                26-Apr-2017 
 ******************************************
 %Mem=256MB
 %NProc=12
 Will use up to   12 processors via shared memory.
 ----------------------------------------------------------------------
 #P HF/6-31G* SCF(Conver=6) NoSymm Test Pop=mk IOp(6/33=2) GFInput GFPr
 int
 ----------------------------------------------------------------------
 1/38=1/1;
 2/12=2,15=1,17=6,18=5,40=1/2;
 3/5=1,6=6,7=1,11=9,16=1,24=110,25=1,30=1/1,2,3;
 4//1;
 5/5=2,6=6,38=5/2;
 6/7=2,8=2,9=2,10=2,15=8,20=1,28=1,33=2/1,2;
 99/5=1,9=1/99;
 Leave Link    1 at Wed Apr 26 14:39:13 2017, MaxMem=    33554432 cpu:         0.6
 (Enter /home/michal/g09/l101.exe)
 ----------------------------------------------
 MEP - Input generated by R.E.D.-III.x MOLECULE
 ----------------------------------------------
 Symbolic Z-matrix:
 Charge =  0 Multiplicity = 1
 C                     1.01398  -0.8841   -1.68673 
 H                     1.14507   0.08606  -2.18154 
 C                     2.24936  -1.75501  -1.96526 
 H                     2.38828  -1.86284  -3.04548 
 H                     2.04343  -2.76292  -1.57179 
 C                     3.50764  -1.19596  -1.32696 
 C                     3.43341  -0.86848   0.16969 
 C                     2.12904  -0.05088   0.42299 
 H                     2.26718   0.95348   0. 
 H                     1.98866   0.0828    1.50105 
 C                     0.8553   -0.66028  -0.18285 
 H                     0.62047  -1.62041   0.30005 
 H                     0.        0.        0. 
 C                     4.61036  -1.01474  -2.07009 
 H                     4.58286  -1.2692   -3.12802 
 C                     5.91137  -0.47259  -1.55239 
 H                     6.75154  -1.03657  -1.97695 
 C                     5.99392  -0.49565  -0.01542 
 H                     6.14513  -1.55263   0.24548 
 C                     4.66316   0.00272   0.60801 
 H                     4.49315   1.00341   0.18434 
 C                     4.77258   0.17665   2.14201 
 H                     4.77921  -0.80356   2.62939 
 H                     3.87937   0.69104   2.51496 
 C                     6.01832   0.95665   2.60995 
 H                     5.95368   1.9979    2.26335 
 H                     6.01193   0.99111   3.70415 
 C                     7.31979   0.33534   2.06328 
 C                     7.18048   0.32313   0.51538 
 H                     6.98239   1.36703   0.23601 
 C                     8.59017   0.        0. 
 H                     8.74754   0.37131  -1.01644 
 H                     8.76127  -1.08391  -0.02317 
 C                     9.5241    0.68711   1.03496 
 H                     10.26941  -0.02133   1.41563 
 H                     10.08586   1.51054   0.58305 
 C                     8.61944   1.20251   2.20278 
 H                     8.31383   2.23202   1.96599 
 C                     7.54779  -1.07333   2.65672 
 H                     6.74952  -1.77253   2.39466 
 H                     8.48791  -1.5147    2.31221 
 H                     7.58961  -1.03005   3.75033 
 C                     9.36743   1.24069   3.55859 
 H                     9.67718   0.21087   3.78927 
 C                     8.49998   1.72994   4.73373 
 H                     8.01322   2.68634   4.51231 
 H                     9.1148    1.87023   5.63078 
 H                     7.71496   1.01363   4.98905 
 C                     3.37131  -2.20641   0.95681 
 H                     3.11593  -2.03854   2.00727 
 H                     2.61666  -2.882     0.54719 
 H                     4.3295   -2.73378   0.91754 
 O                     6.09832   0.91119  -1.95926 
 O                     6.28206   0.92504  -3.40282 
 H                     5.44175   1.3178   -3.69185 
 O                    -0.16368  -1.4267   -2.28936 
 H                    -0.357    -2.28107  -1.87844 
 C                     10.68498   2.06007   3.484 
 H                     11.19784   1.93544   4.44679 
 H                     11.34931   1.61346   2.73317 
 C                     10.54012   3.56051   3.17885 
 H                     9.994     3.69049   2.23599 
 H                     9.92584   4.0437    3.94841 
 C                     11.88243   4.30475   3.04357 
 H                     11.67986   5.33549   2.71649 
 H                     12.45915   3.83817   2.23177 
 C                     12.77638   4.36889   4.30048 
 H                     12.99739   3.34071   4.62074 
 C                     14.11636   5.04241   3.96305 
 H                     13.96201   6.07976   3.63901 
 H                     14.78249   5.0622    4.83322 
 H                     14.636    4.51552   3.1545 
 C                     12.09102   5.09066   5.47165 
 H                     11.82807   6.11986   5.19415 
 H                     12.75473   5.14138   6.34236 
 H                     11.17209   4.58627   5.78745 
 
 NAtoms=     76 NQM=       76 NQMF=       0 NMMI=      0 NMMIF=      0
                NMic=       0 NMicF=      0.
                    Isotopes and Nuclear Properties:
 (Nuclear quadrupole moments (NQMom) in fm**2, nuclear magnetic moments (NMagM)
  in nuclear magnetons)

  Atom         1           2           3           4           5           6           7           8           9          10
 IAtWgt=          12           1          12           1           1          12          12          12           1           1
 AtmWgt=  12.0000000   1.0078250  12.0000000   1.0078250   1.0078250  12.0000000  12.0000000  12.0000000   1.0078250   1.0078250
 NucSpn=           0           1           0           1           1           0           0           0           1           1
 AtZEff=   0.0000000   0.0000000   0.0000000   0.0000000   0.0000000   0.0000000   0.0000000   0.0000000   0.0000000   0.0000000
 NQMom=    0.0000000   0.0000000   0.0000000   0.0000000   0.0000000   0.0000000   0.0000000   0.0000000   0.0000000   0.0000000
 NMagM=    0.0000000   2.7928460   0.0000000   2.7928460   2.7928460   0.0000000   0.0000000   0.0000000   2.7928460   2.7928460
 AtZNuc=   6.0000000   1.0000000   6.0000000   1.0000000   1.0000000   6.0000000   6.0000000   6.0000000   1.0000000   1.0000000

  Atom        11          12          13          14          15          16          17          18          19          20
 IAtWgt=          12           1           1          12           1          12           1          12           1          12
 AtmWgt=  12.0000000   1.0078250   1.0078250  12.0000000   1.0078250  12.0000000   1.0078250  12.0000000   1.0078250  12.0000000
 NucSpn=           0           1           1           0           1           0           1           0           1           0
 AtZEff=   0.0000000   0.0000000   0.0000000   0.0000000   0.0000000   0.0000000   0.0000000   0.0000000   0.0000000   0.0000000
 NQMom=    0.0000000   0.0000000   0.0000000   0.0000000   0.0000000   0.0000000   0.0000000   0.0000000   0.0000000   0.0000000
 NMagM=    0.0000000   2.7928460   2.7928460   0.0000000   2.7928460   0.0000000   2.7928460   0.0000000   2.7928460   0.0000000
 AtZNuc=   6.0000000   1.0000000   1.0000000   6.0000000   1.0000000   6.0000000   1.0000000   6.0000000   1.0000000   6.0000000

  Atom        21          22          23          24          25          26          27          28          29          30
 IAtWgt=           1          12           1           1          12           1           1          12          12           1
 AtmWgt=   1.0078250  12.0000000   1.0078250   1.0078250  12.0000000   1.0078250   1.0078250  12.0000000  12.0000000   1.0078250
 NucSpn=           1           0           1           1           0           1           1           0           0           1
 AtZEff=   0.0000000   0.0000000   0.0000000   0.0000000   0.0000000   0.0000000   0.0000000   0.0000000   0.0000000   0.0000000
 NQMom=    0.0000000   0.0000000   0.0000000   0.0000000   0.0000000   0.0000000   0.0000000   0.0000000   0.0000000   0.0000000
 NMagM=    2.7928460   0.0000000   2.7928460   2.7928460   0.0000000   2.7928460   2.7928460   0.0000000   0.0000000   2.7928460
 AtZNuc=   1.0000000   6.0000000   1.0000000   1.0000000   6.0000000   1.0000000   1.0000000   6.0000000   6.0000000   1.0000000

  Atom        31          32          33          34          35          36          37          38          39          40
 IAtWgt=          12           1           1          12           1           1          12           1          12           1
 AtmWgt=  12.0000000   1.0078250   1.0078250  12.0000000   1.0078250   1.0078250  12.0000000   1.0078250  12.0000000   1.0078250
 NucSpn=           0           1           1           0           1           1           0           1           0           1
 AtZEff=   0.0000000   0.0000000   0.0000000   0.0000000   0.0000000   0.0000000   0.0000000   0.0000000   0.0000000   0.0000000
 NQMom=    0.0000000   0.0000000   0.0000000   0.0000000   0.0000000   0.0000000   0.0000000   0.0000000   0.0000000   0.0000000
 NMagM=    0.0000000   2.7928460   2.7928460   0.0000000   2.7928460   2.7928460   0.0000000   2.7928460   0.0000000   2.7928460
 AtZNuc=   6.0000000   1.0000000   1.0000000   6.0000000   1.0000000   1.0000000   6.0000000   1.0000000   6.0000000   1.0000000

  Atom        41          42          43          44          45          46          47          48          49          50
 IAtWgt=           1           1          12           1          12           1           1           1          12           1
 AtmWgt=   1.0078250   1.0078250  12.0000000   1.0078250  12.0000000   1.0078250   1.0078250   1.0078250  12.0000000   1.0078250
 NucSpn=           1           1           0           1           0           1           1           1           0           1
 AtZEff=   0.0000000   0.0000000   0.0000000   0.0000000   0.0000000   0.0000000   0.0000000   0.0000000   0.0000000   0.0000000
 NQMom=    0.0000000   0.0000000   0.0000000   0.0000000   0.0000000   0.0000000   0.0000000   0.0000000   0.0000000   0.0000000
 NMagM=    2.7928460   2.7928460   0.0000000   2.7928460   0.0000000   2.7928460   2.7928460   2.7928460   0.0000000   2.7928460
 AtZNuc=   1.0000000   1.0000000   6.0000000   1.0000000   6.0000000   1.0000000   1.0000000   1.0000000   6.0000000   1.0000000

  Atom        51          52          53          54          55          56          57          58          59          60
 IAtWgt=           1           1          16          16           1          16           1          12           1           1
 AtmWgt=   1.0078250   1.0078250  15.9949146  15.9949146   1.0078250  15.9949146   1.0078250  12.0000000   1.0078250   1.0078250
 NucSpn=           1           1           0           0           1           0           1           0           1           1
 AtZEff=   0.0000000   0.0000000   0.0000000   0.0000000   0.0000000   0.0000000   0.0000000   0.0000000   0.0000000   0.0000000
 NQMom=    0.0000000   0.0000000   0.0000000   0.0000000   0.0000000   0.0000000   0.0000000   0.0000000   0.0000000   0.0000000
 NMagM=    2.7928460   2.7928460   0.0000000   0.0000000   2.7928460   0.0000000   2.7928460   0.0000000   2.7928460   2.7928460
 AtZNuc=   1.0000000   1.0000000   8.0000000   8.0000000   1.0000000   8.0000000   1.0000000   6.0000000   1.0000000   1.0000000

  Atom        61          62          63          64          65          66          67          68          69          70
 IAtWgt=          12           1           1          12           1           1          12           1          12           1
 AtmWgt=  12.0000000   1.0078250   1.0078250  12.0000000   1.0078250   1.0078250  12.0000000   1.0078250  12.0000000   1.0078250
 NucSpn=           0           1           1           0           1           1           0           1           0           1
 AtZEff=   0.0000000   0.0000000   0.0000000   0.0000000   0.0000000   0.0000000   0.0000000   0.0000000   0.0000000   0.0000000
 NQMom=    0.0000000   0.0000000   0.0000000   0.0000000   0.0000000   0.0000000   0.0000000   0.0000000   0.0000000   0.0000000
 NMagM=    0.0000000   2.7928460   2.7928460   0.0000000   2.7928460   2.7928460   0.0000000   2.7928460   0.0000000   2.7928460
 AtZNuc=   6.0000000   1.0000000   1.0000000   6.0000000   1.0000000   1.0000000   6.0000000   1.0000000   6.0000000   1.0000000

  Atom        71          72          73          74          75          76
 IAtWgt=           1           1          12           1           1           1
 AtmWgt=   1.0078250   1.0078250  12.0000000   1.0078250   1.0078250   1.0078250
 NucSpn=           1           1           0           1           1           1
 AtZEff=   0.0000000   0.0000000   0.0000000   0.0000000   0.0000000   0.0000000
 NQMom=    0.0000000   0.0000000   0.0000000   0.0000000   0.0000000   0.0000000
 NMagM=    2.7928460   2.7928460   0.0000000   2.7928460   2.7928460   2.7928460
 AtZNuc=   1.0000000   1.0000000   6.0000000   1.0000000   1.0000000   1.0000000
 Leave Link  101 at Wed Apr 26 14:39:13 2017, MaxMem=    33554432 cpu:         1.3
 (Enter /home/michal/g09/l202.exe)
 Symmetry turned off by external request.
 Stoichiometry    C27H46O3
 Framework group  C1[X(C27H46O3)]
 Deg. of freedom   222
 Full point group                 C1      NOp   1
                          Input orientation:                          
 ---------------------------------------------------------------------
 Center     Atomic      Atomic             Coordinates (Angstroms)
 Number     Number       Type             X           Y           Z
 ---------------------------------------------------------------------
      1          6           0        1.013982   -0.884101   -1.686730
      2          1           0        1.145070    0.086065   -2.181544
      3          6           0        2.249362   -1.755012   -1.965262
      4          1           0        2.388281   -1.862837   -3.045482
      5          1           0        2.043433   -2.762916   -1.571792
      6          6           0        3.507639   -1.195962   -1.326961
      7          6           0        3.433410   -0.868484    0.169689
      8          6           0        2.129036   -0.050881    0.422990
      9          1           0        2.267178    0.953475    0.000000
     10          1           0        1.988660    0.082797    1.501049
     11          6           0        0.855296   -0.660283   -0.182849
     12          1           0        0.620465   -1.620410    0.300053
     13          1           0        0.000000    0.000000    0.000000
     14          6           0        4.610363   -1.014743   -2.070094
     15          1           0        4.582862   -1.269198   -3.128021
     16          6           0        5.911375   -0.472588   -1.552392
     17          1           0        6.751537   -1.036571   -1.976952
     18          6           0        5.993919   -0.495652   -0.015420
     19          1           0        6.145131   -1.552629    0.245484
     20          6           0        4.663159    0.002718    0.608006
     21          1           0        4.493150    1.003407    0.184341
     22          6           0        4.772582    0.176647    2.142012
     23          1           0        4.779209   -0.803565    2.629392
     24          1           0        3.879371    0.691040    2.514958
     25          6           0        6.018325    0.956652    2.609952
     26          1           0        5.953678    1.997898    2.263348
     27          1           0        6.011933    0.991109    3.704146
     28          6           0        7.319794    0.335338    2.063279
     29          6           0        7.180479    0.323125    0.515380
     30          1           0        6.982391    1.367034    0.236007
     31          6           0        8.590170    0.000000    0.000000
     32          1           0        8.747540    0.371306   -1.016443
     33          1           0        8.761268   -1.083912   -0.023169
     34          6           0        9.524101    0.687111    1.034957
     35          1           0       10.269409   -0.021327    1.415626
     36          1           0       10.085861    1.510542    0.583048
     37          6           0        8.619436    1.202505    2.202775
     38          1           0        8.313835    2.232017    1.965990
     39          6           0        7.547786   -1.073328    2.656725
     40          1           0        6.749524   -1.772528    2.394663
     41          1           0        8.487913   -1.514704    2.312208
     42          1           0        7.589607   -1.030049    3.750334
     43          6           0        9.367429    1.240688    3.558588
     44          1           0        9.677180    0.210869    3.789274
     45          6           0        8.499979    1.729943    4.733731
     46          1           0        8.013222    2.686337    4.512309
     47          1           0        9.114796    1.870229    5.630779
     48          1           0        7.714956    1.013628    4.989052
     49          6           0        3.371313   -2.206410    0.956808
     50          1           0        3.115935   -2.038538    2.007266
     51          1           0        2.616663   -2.882002    0.547187
     52          1           0        4.329504   -2.733781    0.917544
     53          8           0        6.098317    0.911193   -1.959265
     54          8           0        6.282064    0.925045   -3.402819
     55          1           0        5.441750    1.317795   -3.691853
     56          8           0       -0.163684   -1.426704   -2.289360
     57          1           0       -0.356996   -2.281068   -1.878442
     58          6           0       10.684977    2.060066    3.484002
     59          1           0       11.197838    1.935438    4.446787
     60          1           0       11.349312    1.613455    2.733173
     61          6           0       10.540122    3.560512    3.178851
     62          1           0        9.993999    3.690485    2.235995
     63          1           0        9.925842    4.043699    3.948414
     64          6           0       11.882426    4.304746    3.043568
     65          1           0       11.679862    5.335488    2.716494
     66          1           0       12.459146    3.838165    2.231769
     67          6           0       12.776381    4.368890    4.300479
     68          1           0       12.997392    3.340708    4.620738
     69          6           0       14.116358    5.042414    3.963054
     70          1           0       13.962007    6.079759    3.639014
     71          1           0       14.782486    5.062201    4.833223
     72          1           0       14.636000    4.515518    3.154500
     73          6           0       12.091016    5.090659    5.471649
     74          1           0       11.828069    6.119857    5.194152
     75          1           0       12.754734    5.141380    6.342358
     76          1           0       11.172089    4.586273    5.787449
 ---------------------------------------------------------------------
 Rotational constants (GHZ):      0.3785936      0.0555846      0.0523574
 Leave Link  202 at Wed Apr 26 14:39:13 2017, MaxMem=    33554432 cpu:         0.1
 (Enter /home/michal/g09/l301.exe)
 Standard basis: 6-31G(d) (6D, 7F)
 Ernie: Thresh=  0.10000D-02 Tol=  0.10000D-05 Strict=F.
 AO basis set in the form of general basis input (Overlap normalization):
      1 0
 S   6 1.00       0.000000000000
      0.3047524880D+04  0.1834737132D-02
      0.4573695180D+03  0.1403732281D-01
      0.1039486850D+03  0.6884262226D-01
      0.2921015530D+02  0.2321844432D+00
      0.9286662960D+01  0.4679413484D+00
      0.3163926960D+01  0.3623119853D+00
 SP   3 1.00       0.000000000000
      0.7868272350D+01 -0.1193324198D+00  0.6899906659D-01
      0.1881288540D+01 -0.1608541517D+00  0.3164239610D+00
      0.5442492580D+00  0.1143456438D+01  0.7443082909D+00
 SP   1 1.00       0.000000000000
      0.1687144782D+00  0.1000000000D+01  0.1000000000D+01
 D   1 1.00       0.000000000000
      0.8000000000D+00  0.1000000000D+01
 ****
      2 0
 S   3 1.00       0.000000000000
      0.1873113696D+02  0.3349460434D-01
      0.2825394365D+01  0.2347269535D+00
      0.6401216923D+00  0.8137573261D+00
 S   1 1.00       0.000000000000
      0.1612777588D+00  0.1000000000D+01
 ****
      3 0
 S   6 1.00       0.000000000000
      0.3047524880D+04  0.1834737132D-02
      0.4573695180D+03  0.1403732281D-01
      0.1039486850D+03  0.6884262226D-01
      0.2921015530D+02  0.2321844432D+00
      0.9286662960D+01  0.4679413484D+00
      0.3163926960D+01  0.3623119853D+00
 SP   3 1.00       0.000000000000
      0.7868272350D+01 -0.1193324198D+00  0.6899906659D-01
      0.1881288540D+01 -0.1608541517D+00  0.3164239610D+00
      0.5442492580D+00  0.1143456438D+01  0.7443082909D+00
 SP   1 1.00       0.000000000000
      0.1687144782D+00  0.1000000000D+01  0.1000000000D+01
 D   1 1.00       0.000000000000
      0.8000000000D+00  0.1000000000D+01
 ****
      4 0
 S   3 1.00       0.000000000000
      0.1873113696D+02  0.3349460434D-01
      0.2825394365D+01  0.2347269535D+00
      0.6401216923D+00  0.8137573261D+00
 S   1 1.00       0.000000000000
      0.1612777588D+00  0.1000000000D+01
 ****
      5 0
 S   3 1.00       0.000000000000
      0.1873113696D+02  0.3349460434D-01
      0.2825394365D+01  0.2347269535D+00
      0.6401216923D+00  0.8137573261D+00
 S   1 1.00       0.000000000000
      0.1612777588D+00  0.1000000000D+01
 ****
      6 0
 S   6 1.00       0.000000000000
      0.3047524880D+04  0.1834737132D-02
      0.4573695180D+03  0.1403732281D-01
      0.1039486850D+03  0.6884262226D-01
      0.2921015530D+02  0.2321844432D+00
      0.9286662960D+01  0.4679413484D+00
      0.3163926960D+01  0.3623119853D+00
 SP   3 1.00       0.000000000000
      0.7868272350D+01 -0.1193324198D+00  0.6899906659D-01
      0.1881288540D+01 -0.1608541517D+00  0.3164239610D+00
      0.5442492580D+00  0.1143456438D+01  0.7443082909D+00
 SP   1 1.00       0.000000000000
      0.1687144782D+00  0.1000000000D+01  0.1000000000D+01
 D   1 1.00       0.000000000000
      0.8000000000D+00  0.1000000000D+01
 ****
      7 0
 S   6 1.00       0.000000000000
      0.3047524880D+04  0.1834737132D-02
      0.4573695180D+03  0.1403732281D-01
      0.1039486850D+03  0.6884262226D-01
      0.2921015530D+02  0.2321844432D+00
      0.9286662960D+01  0.4679413484D+00
      0.3163926960D+01  0.3623119853D+00
 SP   3 1.00       0.000000000000
      0.7868272350D+01 -0.1193324198D+00  0.6899906659D-01
      0.1881288540D+01 -0.1608541517D+00  0.3164239610D+00
      0.5442492580D+00  0.1143456438D+01  0.7443082909D+00
 SP   1 1.00       0.000000000000
      0.1687144782D+00  0.1000000000D+01  0.1000000000D+01
 D   1 1.00       0.000000000000
      0.8000000000D+00  0.1000000000D+01
 ****
      8 0
 S   6 1.00       0.000000000000
      0.3047524880D+04  0.1834737132D-02
      0.4573695180D+03  0.1403732281D-01
      0.1039486850D+03  0.6884262226D-01
      0.2921015530D+02  0.2321844432D+00
      0.9286662960D+01  0.4679413484D+00
      0.3163926960D+01  0.3623119853D+00
 SP   3 1.00       0.000000000000
      0.7868272350D+01 -0.1193324198D+00  0.6899906659D-01
      0.1881288540D+01 -0.1608541517D+00  0.3164239610D+00
      0.5442492580D+00  0.1143456438D+01  0.7443082909D+00
 SP   1 1.00       0.000000000000
      0.1687144782D+00  0.1000000000D+01  0.1000000000D+01
 D   1 1.00       0.000000000000
      0.8000000000D+00  0.1000000000D+01
 ****
      9 0
 S   3 1.00       0.000000000000
      0.1873113696D+02  0.3349460434D-01
      0.2825394365D+01  0.2347269535D+00
      0.6401216923D+00  0.8137573261D+00
 S   1 1.00       0.000000000000
      0.1612777588D+00  0.1000000000D+01
 ****
     10 0
 S   3 1.00       0.000000000000
      0.1873113696D+02  0.3349460434D-01
      0.2825394365D+01  0.2347269535D+00
      0.6401216923D+00  0.8137573261D+00
 S   1 1.00       0.000000000000
      0.1612777588D+00  0.1000000000D+01
 ****
     11 0
 S   6 1.00       0.000000000000
      0.3047524880D+04  0.1834737132D-02
      0.4573695180D+03  0.1403732281D-01
      0.1039486850D+03  0.6884262226D-01
      0.2921015530D+02  0.2321844432D+00
      0.9286662960D+01  0.4679413484D+00
      0.3163926960D+01  0.3623119853D+00
 SP   3 1.00       0.000000000000
      0.7868272350D+01 -0.1193324198D+00  0.6899906659D-01
      0.1881288540D+01 -0.1608541517D+00  0.3164239610D+00
      0.5442492580D+00  0.1143456438D+01  0.7443082909D+00
 SP   1 1.00       0.000000000000
      0.1687144782D+00  0.1000000000D+01  0.1000000000D+01
 D   1 1.00       0.000000000000
      0.8000000000D+00  0.1000000000D+01
 ****
     12 0
 S   3 1.00       0.000000000000
      0.1873113696D+02  0.3349460434D-01
      0.2825394365D+01  0.2347269535D+00
      0.6401216923D+00  0.8137573261D+00
 S   1 1.00       0.000000000000
      0.1612777588D+00  0.1000000000D+01
 ****
     13 0
 S   3 1.00       0.000000000000
      0.1873113696D+02  0.3349460434D-01
      0.2825394365D+01  0.2347269535D+00
      0.6401216923D+00  0.8137573261D+00
 S   1 1.00       0.000000000000
      0.1612777588D+00  0.1000000000D+01
 ****
     14 0
 S   6 1.00       0.000000000000
      0.3047524880D+04  0.1834737132D-02
      0.4573695180D+03  0.1403732281D-01
      0.1039486850D+03  0.6884262226D-01
      0.2921015530D+02  0.2321844432D+00
      0.9286662960D+01  0.4679413484D+00
      0.3163926960D+01  0.3623119853D+00
 SP   3 1.00       0.000000000000
      0.7868272350D+01 -0.1193324198D+00  0.6899906659D-01
      0.1881288540D+01 -0.1608541517D+00  0.3164239610D+00
      0.5442492580D+00  0.1143456438D+01  0.7443082909D+00
 SP   1 1.00       0.000000000000
      0.1687144782D+00  0.1000000000D+01  0.1000000000D+01
 D   1 1.00       0.000000000000
      0.8000000000D+00  0.1000000000D+01
 ****
     15 0
 S   3 1.00       0.000000000000
      0.1873113696D+02  0.3349460434D-01
      0.2825394365D+01  0.2347269535D+00
      0.6401216923D+00  0.8137573261D+00
 S   1 1.00       0.000000000000
      0.1612777588D+00  0.1000000000D+01
 ****
     16 0
 S   6 1.00       0.000000000000
      0.3047524880D+04  0.1834737132D-02
      0.4573695180D+03  0.1403732281D-01
      0.1039486850D+03  0.6884262226D-01
      0.2921015530D+02  0.2321844432D+00
      0.9286662960D+01  0.4679413484D+00
      0.3163926960D+01  0.3623119853D+00
 SP   3 1.00       0.000000000000
      0.7868272350D+01 -0.1193324198D+00  0.6899906659D-01
      0.1881288540D+01 -0.1608541517D+00  0.3164239610D+00
      0.5442492580D+00  0.1143456438D+01  0.7443082909D+00
 SP   1 1.00       0.000000000000
      0.1687144782D+00  0.1000000000D+01  0.1000000000D+01
 D   1 1.00       0.000000000000
      0.8000000000D+00  0.1000000000D+01
 ****
     17 0
 S   3 1.00       0.000000000000
      0.1873113696D+02  0.3349460434D-01
      0.2825394365D+01  0.2347269535D+00
      0.6401216923D+00  0.8137573261D+00
 S   1 1.00       0.000000000000
      0.1612777588D+00  0.1000000000D+01
 ****
     18 0
 S   6 1.00       0.000000000000
      0.3047524880D+04  0.1834737132D-02
      0.4573695180D+03  0.1403732281D-01
      0.1039486850D+03  0.6884262226D-01
      0.2921015530D+02  0.2321844432D+00
      0.9286662960D+01  0.4679413484D+00
      0.3163926960D+01  0.3623119853D+00
 SP   3 1.00       0.000000000000
      0.7868272350D+01 -0.1193324198D+00  0.6899906659D-01
      0.1881288540D+01 -0.1608541517D+00  0.3164239610D+00
      0.5442492580D+00  0.1143456438D+01  0.7443082909D+00
 SP   1 1.00       0.000000000000
      0.1687144782D+00  0.1000000000D+01  0.1000000000D+01
 D   1 1.00       0.000000000000
      0.8000000000D+00  0.1000000000D+01
 ****
     19 0
 S   3 1.00       0.000000000000
      0.1873113696D+02  0.3349460434D-01
      0.2825394365D+01  0.2347269535D+00
      0.6401216923D+00  0.8137573261D+00
 S   1 1.00       0.000000000000
      0.1612777588D+00  0.1000000000D+01
 ****
     20 0
 S   6 1.00       0.000000000000
      0.3047524880D+04  0.1834737132D-02
      0.4573695180D+03  0.1403732281D-01
      0.1039486850D+03  0.6884262226D-01
      0.2921015530D+02  0.2321844432D+00
      0.9286662960D+01  0.4679413484D+00
      0.3163926960D+01  0.3623119853D+00
 SP   3 1.00       0.000000000000
      0.7868272350D+01 -0.1193324198D+00  0.6899906659D-01
      0.1881288540D+01 -0.1608541517D+00  0.3164239610D+00
      0.5442492580D+00  0.1143456438D+01  0.7443082909D+00
 SP   1 1.00       0.000000000000
      0.1687144782D+00  0.1000000000D+01  0.1000000000D+01
 D   1 1.00       0.000000000000
      0.8000000000D+00  0.1000000000D+01
 ****
     21 0
 S   3 1.00       0.000000000000
      0.1873113696D+02  0.3349460434D-01
      0.2825394365D+01  0.2347269535D+00
      0.6401216923D+00  0.8137573261D+00
 S   1 1.00       0.000000000000
      0.1612777588D+00  0.1000000000D+01
 ****
     22 0
 S   6 1.00       0.000000000000
      0.3047524880D+04  0.1834737132D-02
      0.4573695180D+03  0.1403732281D-01
      0.1039486850D+03  0.6884262226D-01
      0.2921015530D+02  0.2321844432D+00
      0.9286662960D+01  0.4679413484D+00
      0.3163926960D+01  0.3623119853D+00
 SP   3 1.00       0.000000000000
      0.7868272350D+01 -0.1193324198D+00  0.6899906659D-01
      0.1881288540D+01 -0.1608541517D+00  0.3164239610D+00
      0.5442492580D+00  0.1143456438D+01  0.7443082909D+00
 SP   1 1.00       0.000000000000
      0.1687144782D+00  0.1000000000D+01  0.1000000000D+01
 D   1 1.00       0.000000000000
      0.8000000000D+00  0.1000000000D+01
 ****
     23 0
 S   3 1.00       0.000000000000
      0.1873113696D+02  0.3349460434D-01
      0.2825394365D+01  0.2347269535D+00
      0.6401216923D+00  0.8137573261D+00
 S   1 1.00       0.000000000000
      0.1612777588D+00  0.1000000000D+01
 ****
     24 0
 S   3 1.00       0.000000000000
      0.1873113696D+02  0.3349460434D-01
      0.2825394365D+01  0.2347269535D+00
      0.6401216923D+00  0.8137573261D+00
 S   1 1.00       0.000000000000
      0.1612777588D+00  0.1000000000D+01
 ****
     25 0
 S   6 1.00       0.000000000000
      0.3047524880D+04  0.1834737132D-02
      0.4573695180D+03  0.1403732281D-01
      0.1039486850D+03  0.6884262226D-01
      0.2921015530D+02  0.2321844432D+00
      0.9286662960D+01  0.4679413484D+00
      0.3163926960D+01  0.3623119853D+00
 SP   3 1.00       0.000000000000
      0.7868272350D+01 -0.1193324198D+00  0.6899906659D-01
      0.1881288540D+01 -0.1608541517D+00  0.3164239610D+00
      0.5442492580D+00  0.1143456438D+01  0.7443082909D+00
 SP   1 1.00       0.000000000000
      0.1687144782D+00  0.1000000000D+01  0.1000000000D+01
 D   1 1.00       0.000000000000
      0.8000000000D+00  0.1000000000D+01
 ****
     26 0
 S   3 1.00       0.000000000000
      0.1873113696D+02  0.3349460434D-01
      0.2825394365D+01  0.2347269535D+00
      0.6401216923D+00  0.8137573261D+00
 S   1 1.00       0.000000000000
      0.1612777588D+00  0.1000000000D+01
 ****
     27 0
 S   3 1.00       0.000000000000
      0.1873113696D+02  0.3349460434D-01
      0.2825394365D+01  0.2347269535D+00
      0.6401216923D+00  0.8137573261D+00
 S   1 1.00       0.000000000000
      0.1612777588D+00  0.1000000000D+01
 ****
     28 0
 S   6 1.00       0.000000000000
      0.3047524880D+04  0.1834737132D-02
      0.4573695180D+03  0.1403732281D-01
      0.1039486850D+03  0.6884262226D-01
      0.2921015530D+02  0.2321844432D+00
      0.9286662960D+01  0.4679413484D+00
      0.3163926960D+01  0.3623119853D+00
 SP   3 1.00       0.000000000000
      0.7868272350D+01 -0.1193324198D+00  0.6899906659D-01
      0.1881288540D+01 -0.1608541517D+00  0.3164239610D+00
      0.5442492580D+00  0.1143456438D+01  0.7443082909D+00
 SP   1 1.00       0.000000000000
      0.1687144782D+00  0.1000000000D+01  0.1000000000D+01
 D   1 1.00       0.000000000000
      0.8000000000D+00  0.1000000000D+01
 ****
     29 0
 S   6 1.00       0.000000000000
      0.3047524880D+04  0.1834737132D-02
      0.4573695180D+03  0.1403732281D-01
      0.1039486850D+03  0.6884262226D-01
      0.2921015530D+02  0.2321844432D+00
      0.9286662960D+01  0.4679413484D+00
      0.3163926960D+01  0.3623119853D+00
 SP   3 1.00       0.000000000000
      0.7868272350D+01 -0.1193324198D+00  0.6899906659D-01
      0.1881288540D+01 -0.1608541517D+00  0.3164239610D+00
      0.5442492580D+00  0.1143456438D+01  0.7443082909D+00
 SP   1 1.00       0.000000000000
      0.1687144782D+00  0.1000000000D+01  0.1000000000D+01
 D   1 1.00       0.000000000000
      0.8000000000D+00  0.1000000000D+01
 ****
     30 0
 S   3 1.00       0.000000000000
      0.1873113696D+02  0.3349460434D-01
      0.2825394365D+01  0.2347269535D+00
      0.6401216923D+00  0.8137573261D+00
 S   1 1.00       0.000000000000
      0.1612777588D+00  0.1000000000D+01
 ****
     31 0
 S   6 1.00       0.000000000000
      0.3047524880D+04  0.1834737132D-02
      0.4573695180D+03  0.1403732281D-01
      0.1039486850D+03  0.6884262226D-01
      0.2921015530D+02  0.2321844432D+00
      0.9286662960D+01  0.4679413484D+00
      0.3163926960D+01  0.3623119853D+00
 SP   3 1.00       0.000000000000
      0.7868272350D+01 -0.1193324198D+00  0.6899906659D-01
      0.1881288540D+01 -0.1608541517D+00  0.3164239610D+00
      0.5442492580D+00  0.1143456438D+01  0.7443082909D+00
 SP   1 1.00       0.000000000000
      0.1687144782D+00  0.1000000000D+01  0.1000000000D+01
 D   1 1.00       0.000000000000
      0.8000000000D+00  0.1000000000D+01
 ****
     32 0
 S   3 1.00       0.000000000000
      0.1873113696D+02  0.3349460434D-01
      0.2825394365D+01  0.2347269535D+00
      0.6401216923D+00  0.8137573261D+00
 S   1 1.00       0.000000000000
      0.1612777588D+00  0.1000000000D+01
 ****
     33 0
 S   3 1.00       0.000000000000
      0.1873113696D+02  0.3349460434D-01
      0.2825394365D+01  0.2347269535D+00
      0.6401216923D+00  0.8137573261D+00
 S   1 1.00       0.000000000000
      0.1612777588D+00  0.1000000000D+01
 ****
     34 0
 S   6 1.00       0.000000000000
      0.3047524880D+04  0.1834737132D-02
      0.4573695180D+03  0.1403732281D-01
      0.1039486850D+03  0.6884262226D-01
      0.2921015530D+02  0.2321844432D+00
      0.9286662960D+01  0.4679413484D+00
      0.3163926960D+01  0.3623119853D+00
 SP   3 1.00       0.000000000000
      0.7868272350D+01 -0.1193324198D+00  0.6899906659D-01
      0.1881288540D+01 -0.1608541517D+00  0.3164239610D+00
      0.5442492580D+00  0.1143456438D+01  0.7443082909D+00
 SP   1 1.00       0.000000000000
      0.1687144782D+00  0.1000000000D+01  0.1000000000D+01
 D   1 1.00       0.000000000000
      0.8000000000D+00  0.1000000000D+01
 ****
     35 0
 S   3 1.00       0.000000000000
      0.1873113696D+02  0.3349460434D-01
      0.2825394365D+01  0.2347269535D+00
      0.6401216923D+00  0.8137573261D+00
 S   1 1.00       0.000000000000
      0.1612777588D+00  0.1000000000D+01
 ****
     36 0
 S   3 1.00       0.000000000000
      0.1873113696D+02  0.3349460434D-01
      0.2825394365D+01  0.2347269535D+00
      0.6401216923D+00  0.8137573261D+00
 S   1 1.00       0.000000000000
      0.1612777588D+00  0.1000000000D+01
 ****
     37 0
 S   6 1.00       0.000000000000
      0.3047524880D+04  0.1834737132D-02
      0.4573695180D+03  0.1403732281D-01
      0.1039486850D+03  0.6884262226D-01
      0.2921015530D+02  0.2321844432D+00
      0.9286662960D+01  0.4679413484D+00
      0.3163926960D+01  0.3623119853D+00
 SP   3 1.00       0.000000000000
      0.7868272350D+01 -0.1193324198D+00  0.6899906659D-01
      0.1881288540D+01 -0.1608541517D+00  0.3164239610D+00
      0.5442492580D+00  0.1143456438D+01  0.7443082909D+00
 SP   1 1.00       0.000000000000
      0.1687144782D+00  0.1000000000D+01  0.1000000000D+01
 D   1 1.00       0.000000000000
      0.8000000000D+00  0.1000000000D+01
 ****
     38 0
 S   3 1.00       0.000000000000
      0.1873113696D+02  0.3349460434D-01
      0.2825394365D+01  0.2347269535D+00
      0.6401216923D+00  0.8137573261D+00
 S   1 1.00       0.000000000000
      0.1612777588D+00  0.1000000000D+01
 ****
     39 0
 S   6 1.00       0.000000000000
      0.3047524880D+04  0.1834737132D-02
      0.4573695180D+03  0.1403732281D-01
      0.1039486850D+03  0.6884262226D-01
      0.2921015530D+02  0.2321844432D+00
      0.9286662960D+01  0.4679413484D+00
      0.3163926960D+01  0.3623119853D+00
 SP   3 1.00       0.000000000000
      0.7868272350D+01 -0.1193324198D+00  0.6899906659D-01
      0.1881288540D+01 -0.1608541517D+00  0.3164239610D+00
      0.5442492580D+00  0.1143456438D+01  0.7443082909D+00
 SP   1 1.00       0.000000000000
      0.1687144782D+00  0.1000000000D+01  0.1000000000D+01
 D   1 1.00       0.000000000000
      0.8000000000D+00  0.1000000000D+01
 ****
     40 0
 S   3 1.00       0.000000000000
      0.1873113696D+02  0.3349460434D-01
      0.2825394365D+01  0.2347269535D+00
      0.6401216923D+00  0.8137573261D+00
 S   1 1.00       0.000000000000
      0.1612777588D+00  0.1000000000D+01
 ****
     41 0
 S   3 1.00       0.000000000000
      0.1873113696D+02  0.3349460434D-01
      0.2825394365D+01  0.2347269535D+00
      0.6401216923D+00  0.8137573261D+00
 S   1 1.00       0.000000000000
      0.1612777588D+00  0.1000000000D+01
 ****
     42 0
 S   3 1.00       0.000000000000
      0.1873113696D+02  0.3349460434D-01
      0.2825394365D+01  0.2347269535D+00
      0.6401216923D+00  0.8137573261D+00
 S   1 1.00       0.000000000000
      0.1612777588D+00  0.1000000000D+01
 ****
     43 0
 S   6 1.00       0.000000000000
      0.3047524880D+04  0.1834737132D-02
      0.4573695180D+03  0.1403732281D-01
      0.1039486850D+03  0.6884262226D-01
      0.2921015530D+02  0.2321844432D+00
      0.9286662960D+01  0.4679413484D+00
      0.3163926960D+01  0.3623119853D+00
 SP   3 1.00       0.000000000000
      0.7868272350D+01 -0.1193324198D+00  0.6899906659D-01
      0.1881288540D+01 -0.1608541517D+00  0.3164239610D+00
      0.5442492580D+00  0.1143456438D+01  0.7443082909D+00
 SP   1 1.00       0.000000000000
      0.1687144782D+00  0.1000000000D+01  0.1000000000D+01
 D   1 1.00       0.000000000000
      0.8000000000D+00  0.1000000000D+01
 ****
     44 0
 S   3 1.00       0.000000000000
      0.1873113696D+02  0.3349460434D-01
      0.2825394365D+01  0.2347269535D+00
      0.6401216923D+00  0.8137573261D+00
 S   1 1.00       0.000000000000
      0.1612777588D+00  0.1000000000D+01
 ****
     45 0
 S   6 1.00       0.000000000000
      0.3047524880D+04  0.1834737132D-02
      0.4573695180D+03  0.1403732281D-01
      0.1039486850D+03  0.6884262226D-01
      0.2921015530D+02  0.2321844432D+00
      0.9286662960D+01  0.4679413484D+00
      0.3163926960D+01  0.3623119853D+00
 SP   3 1.00       0.000000000000
      0.7868272350D+01 -0.1193324198D+00  0.6899906659D-01
      0.1881288540D+01 -0.1608541517D+00  0.3164239610D+00
      0.5442492580D+00  0.1143456438D+01  0.7443082909D+00
 SP   1 1.00       0.000000000000
      0.1687144782D+00  0.1000000000D+01  0.1000000000D+01
 D   1 1.00       0.000000000000
      0.8000000000D+00  0.1000000000D+01
 ****
     46 0
 S   3 1.00       0.000000000000
      0.1873113696D+02  0.3349460434D-01
      0.2825394365D+01  0.2347269535D+00
      0.6401216923D+00  0.8137573261D+00
 S   1 1.00       0.000000000000
      0.1612777588D+00  0.1000000000D+01
 ****
     47 0
 S   3 1.00       0.000000000000
      0.1873113696D+02  0.3349460434D-01
      0.2825394365D+01  0.2347269535D+00
      0.6401216923D+00  0.8137573261D+00
 S   1 1.00       0.000000000000
      0.1612777588D+00  0.1000000000D+01
 ****
     48 0
 S   3 1.00       0.000000000000
      0.1873113696D+02  0.3349460434D-01
      0.2825394365D+01  0.2347269535D+00
      0.6401216923D+00  0.8137573261D+00
 S   1 1.00       0.000000000000
      0.1612777588D+00  0.1000000000D+01
 ****
     49 0
 S   6 1.00       0.000000000000
      0.3047524880D+04  0.1834737132D-02
      0.4573695180D+03  0.1403732281D-01
      0.1039486850D+03  0.6884262226D-01
      0.2921015530D+02  0.2321844432D+00
      0.9286662960D+01  0.4679413484D+00
      0.3163926960D+01  0.3623119853D+00
 SP   3 1.00       0.000000000000
      0.7868272350D+01 -0.1193324198D+00  0.6899906659D-01
      0.1881288540D+01 -0.1608541517D+00  0.3164239610D+00
      0.5442492580D+00  0.1143456438D+01  0.7443082909D+00
 SP   1 1.00       0.000000000000
      0.1687144782D+00  0.1000000000D+01  0.1000000000D+01
 D   1 1.00       0.000000000000
      0.8000000000D+00  0.1000000000D+01
 ****
     50 0
 S   3 1.00       0.000000000000
      0.1873113696D+02  0.3349460434D-01
      0.2825394365D+01  0.2347269535D+00
      0.6401216923D+00  0.8137573261D+00
 S   1 1.00       0.000000000000
      0.1612777588D+00  0.1000000000D+01
 ****
     51 0
 S   3 1.00       0.000000000000
      0.1873113696D+02  0.3349460434D-01
      0.2825394365D+01  0.2347269535D+00
      0.6401216923D+00  0.8137573261D+00
 S   1 1.00       0.000000000000
      0.1612777588D+00  0.1000000000D+01
 ****
     52 0
 S   3 1.00       0.000000000000
      0.1873113696D+02  0.3349460434D-01
      0.2825394365D+01  0.2347269535D+00
      0.6401216923D+00  0.8137573261D+00
 S   1 1.00       0.000000000000
      0.1612777588D+00  0.1000000000D+01
 ****
     53 0
 S   6 1.00       0.000000000000
      0.5484671660D+04  0.1831074430D-02
      0.8252349460D+03  0.1395017220D-01
      0.1880469580D+03  0.6844507810D-01
      0.5296450000D+02  0.2327143360D+00
      0.1689757040D+02  0.4701928980D+00
      0.5799635340D+01  0.3585208530D+00
 SP   3 1.00       0.000000000000
      0.1553961625D+02 -0.1107775495D+00  0.7087426823D-01
      0.3599933586D+01 -0.1480262627D+00  0.3397528391D+00
      0.1013761750D+01  0.1130767015D+01  0.7271585773D+00
 SP   1 1.00       0.000000000000
      0.2700058226D+00  0.1000000000D+01  0.1000000000D+01
 D   1 1.00       0.000000000000
      0.8000000000D+00  0.1000000000D+01
 ****
     54 0
 S   6 1.00       0.000000000000
      0.5484671660D+04  0.1831074430D-02
      0.8252349460D+03  0.1395017220D-01
      0.1880469580D+03  0.6844507810D-01
      0.5296450000D+02  0.2327143360D+00
      0.1689757040D+02  0.4701928980D+00
      0.5799635340D+01  0.3585208530D+00
 SP   3 1.00       0.000000000000
      0.1553961625D+02 -0.1107775495D+00  0.7087426823D-01
      0.3599933586D+01 -0.1480262627D+00  0.3397528391D+00
      0.1013761750D+01  0.1130767015D+01  0.7271585773D+00
 SP   1 1.00       0.000000000000
      0.2700058226D+00  0.1000000000D+01  0.1000000000D+01
 D   1 1.00       0.000000000000
      0.8000000000D+00  0.1000000000D+01
 ****
     55 0
 S   3 1.00       0.000000000000
      0.1873113696D+02  0.3349460434D-01
      0.2825394365D+01  0.2347269535D+00
      0.6401216923D+00  0.8137573261D+00
 S   1 1.00       0.000000000000
      0.1612777588D+00  0.1000000000D+01
 ****
     56 0
 S   6 1.00       0.000000000000
      0.5484671660D+04  0.1831074430D-02
      0.8252349460D+03  0.1395017220D-01
      0.1880469580D+03  0.6844507810D-01
      0.5296450000D+02  0.2327143360D+00
      0.1689757040D+02  0.4701928980D+00
      0.5799635340D+01  0.3585208530D+00
 SP   3 1.00       0.000000000000
      0.1553961625D+02 -0.1107775495D+00  0.7087426823D-01
      0.3599933586D+01 -0.1480262627D+00  0.3397528391D+00
      0.1013761750D+01  0.1130767015D+01  0.7271585773D+00
 SP   1 1.00       0.000000000000
      0.2700058226D+00  0.1000000000D+01  0.1000000000D+01
 D   1 1.00       0.000000000000
      0.8000000000D+00  0.1000000000D+01
 ****
     57 0
 S   3 1.00       0.000000000000
      0.1873113696D+02  0.3349460434D-01
      0.2825394365D+01  0.2347269535D+00
      0.6401216923D+00  0.8137573261D+00
 S   1 1.00       0.000000000000
      0.1612777588D+00  0.1000000000D+01
 ****
     58 0
 S   6 1.00       0.000000000000
      0.3047524880D+04  0.1834737132D-02
      0.4573695180D+03  0.1403732281D-01
      0.1039486850D+03  0.6884262226D-01
      0.2921015530D+02  0.2321844432D+00
      0.9286662960D+01  0.4679413484D+00
      0.3163926960D+01  0.3623119853D+00
 SP   3 1.00       0.000000000000
      0.7868272350D+01 -0.1193324198D+00  0.6899906659D-01
      0.1881288540D+01 -0.1608541517D+00  0.3164239610D+00
      0.5442492580D+00  0.1143456438D+01  0.7443082909D+00
 SP   1 1.00       0.000000000000
      0.1687144782D+00  0.1000000000D+01  0.1000000000D+01
 D   1 1.00       0.000000000000
      0.8000000000D+00  0.1000000000D+01
 ****
     59 0
 S   3 1.00       0.000000000000
      0.1873113696D+02  0.3349460434D-01
      0.2825394365D+01  0.2347269535D+00
      0.6401216923D+00  0.8137573261D+00
 S   1 1.00       0.000000000000
      0.1612777588D+00  0.1000000000D+01
 ****
     60 0
 S   3 1.00       0.000000000000
      0.1873113696D+02  0.3349460434D-01
      0.2825394365D+01  0.2347269535D+00
      0.6401216923D+00  0.8137573261D+00
 S   1 1.00       0.000000000000
      0.1612777588D+00  0.1000000000D+01
 ****
     61 0
 S   6 1.00       0.000000000000
      0.3047524880D+04  0.1834737132D-02
      0.4573695180D+03  0.1403732281D-01
      0.1039486850D+03  0.6884262226D-01
      0.2921015530D+02  0.2321844432D+00
      0.9286662960D+01  0.4679413484D+00
      0.3163926960D+01  0.3623119853D+00
 SP   3 1.00       0.000000000000
      0.7868272350D+01 -0.1193324198D+00  0.6899906659D-01
      0.1881288540D+01 -0.1608541517D+00  0.3164239610D+00
      0.5442492580D+00  0.1143456438D+01  0.7443082909D+00
 SP   1 1.00       0.000000000000
      0.1687144782D+00  0.1000000000D+01  0.1000000000D+01
 D   1 1.00       0.000000000000
      0.8000000000D+00  0.1000000000D+01
 ****
     62 0
 S   3 1.00       0.000000000000
      0.1873113696D+02  0.3349460434D-01
      0.2825394365D+01  0.2347269535D+00
      0.6401216923D+00  0.8137573261D+00
 S   1 1.00       0.000000000000
      0.1612777588D+00  0.1000000000D+01
 ****
     63 0
 S   3 1.00       0.000000000000
      0.1873113696D+02  0.3349460434D-01
      0.2825394365D+01  0.2347269535D+00
      0.6401216923D+00  0.8137573261D+00
 S   1 1.00       0.000000000000
      0.1612777588D+00  0.1000000000D+01
 ****
     64 0
 S   6 1.00       0.000000000000
      0.3047524880D+04  0.1834737132D-02
      0.4573695180D+03  0.1403732281D-01
      0.1039486850D+03  0.6884262226D-01
      0.2921015530D+02  0.2321844432D+00
      0.9286662960D+01  0.4679413484D+00
      0.3163926960D+01  0.3623119853D+00
 SP   3 1.00       0.000000000000
      0.7868272350D+01 -0.1193324198D+00  0.6899906659D-01
      0.1881288540D+01 -0.1608541517D+00  0.3164239610D+00
      0.5442492580D+00  0.1143456438D+01  0.7443082909D+00
 SP   1 1.00       0.000000000000
      0.1687144782D+00  0.1000000000D+01  0.1000000000D+01
 D   1 1.00       0.000000000000
      0.8000000000D+00  0.1000000000D+01
 ****
     65 0
 S   3 1.00       0.000000000000
      0.1873113696D+02  0.3349460434D-01
      0.2825394365D+01  0.2347269535D+00
      0.6401216923D+00  0.8137573261D+00
 S   1 1.00       0.000000000000
      0.1612777588D+00  0.1000000000D+01
 ****
     66 0
 S   3 1.00       0.000000000000
      0.1873113696D+02  0.3349460434D-01
      0.2825394365D+01  0.2347269535D+00
      0.6401216923D+00  0.8137573261D+00
 S   1 1.00       0.000000000000
      0.1612777588D+00  0.1000000000D+01
 ****
     67 0
 S   6 1.00       0.000000000000
      0.3047524880D+04  0.1834737132D-02
      0.4573695180D+03  0.1403732281D-01
      0.1039486850D+03  0.6884262226D-01
      0.2921015530D+02  0.2321844432D+00
      0.9286662960D+01  0.4679413484D+00
      0.3163926960D+01  0.3623119853D+00
 SP   3 1.00       0.000000000000
      0.7868272350D+01 -0.1193324198D+00  0.6899906659D-01
      0.1881288540D+01 -0.1608541517D+00  0.3164239610D+00
      0.5442492580D+00  0.1143456438D+01  0.7443082909D+00
 SP   1 1.00       0.000000000000
      0.1687144782D+00  0.1000000000D+01  0.1000000000D+01
 D   1 1.00       0.000000000000
      0.8000000000D+00  0.1000000000D+01
 ****
     68 0
 S   3 1.00       0.000000000000
      0.1873113696D+02  0.3349460434D-01
      0.2825394365D+01  0.2347269535D+00
      0.6401216923D+00  0.8137573261D+00
 S   1 1.00       0.000000000000
      0.1612777588D+00  0.1000000000D+01
 ****
     69 0
 S   6 1.00       0.000000000000
      0.3047524880D+04  0.1834737132D-02
      0.4573695180D+03  0.1403732281D-01
      0.1039486850D+03  0.6884262226D-01
      0.2921015530D+02  0.2321844432D+00
      0.9286662960D+01  0.4679413484D+00
      0.3163926960D+01  0.3623119853D+00
 SP   3 1.00       0.000000000000
      0.7868272350D+01 -0.1193324198D+00  0.6899906659D-01
      0.1881288540D+01 -0.1608541517D+00  0.3164239610D+00
      0.5442492580D+00  0.1143456438D+01  0.7443082909D+00
 SP   1 1.00       0.000000000000
      0.1687144782D+00  0.1000000000D+01  0.1000000000D+01
 D   1 1.00       0.000000000000
      0.8000000000D+00  0.1000000000D+01
 ****
     70 0
 S   3 1.00       0.000000000000
      0.1873113696D+02  0.3349460434D-01
      0.2825394365D+01  0.2347269535D+00
      0.6401216923D+00  0.8137573261D+00
 S   1 1.00       0.000000000000
      0.1612777588D+00  0.1000000000D+01
 ****
     71 0
 S   3 1.00       0.000000000000
      0.1873113696D+02  0.3349460434D-01
      0.2825394365D+01  0.2347269535D+00
      0.6401216923D+00  0.8137573261D+00
 S   1 1.00       0.000000000000
      0.1612777588D+00  0.1000000000D+01
 ****
     72 0
 S   3 1.00       0.000000000000
      0.1873113696D+02  0.3349460434D-01
      0.2825394365D+01  0.2347269535D+00
      0.6401216923D+00  0.8137573261D+00
 S   1 1.00       0.000000000000
      0.1612777588D+00  0.1000000000D+01
 ****
     73 0
 S   6 1.00       0.000000000000
      0.3047524880D+04  0.1834737132D-02
      0.4573695180D+03  0.1403732281D-01
      0.1039486850D+03  0.6884262226D-01
      0.2921015530D+02  0.2321844432D+00
      0.9286662960D+01  0.4679413484D+00
      0.3163926960D+01  0.3623119853D+00
 SP   3 1.00       0.000000000000
      0.7868272350D+01 -0.1193324198D+00  0.6899906659D-01
      0.1881288540D+01 -0.1608541517D+00  0.3164239610D+00
      0.5442492580D+00  0.1143456438D+01  0.7443082909D+00
 SP   1 1.00       0.000000000000
      0.1687144782D+00  0.1000000000D+01  0.1000000000D+01
 D   1 1.00       0.000000000000
      0.8000000000D+00  0.1000000000D+01
 ****
     74 0
 S   3 1.00       0.000000000000
      0.1873113696D+02  0.3349460434D-01
      0.2825394365D+01  0.2347269535D+00
      0.6401216923D+00  0.8137573261D+00
 S   1 1.00       0.000000000000
      0.1612777588D+00  0.1000000000D+01
 ****
     75 0
 S   3 1.00       0.000000000000
      0.1873113696D+02  0.3349460434D-01
      0.2825394365D+01  0.2347269535D+00
      0.6401216923D+00  0.8137573261D+00
 S   1 1.00       0.000000000000
      0.1612777588D+00  0.1000000000D+01
 ****
     76 0
 S   3 1.00       0.000000000000
      0.1873113696D+02  0.3349460434D-01
      0.2825394365D+01  0.2347269535D+00
      0.6401216923D+00  0.8137573261D+00
 S   1 1.00       0.000000000000
      0.1612777588D+00  0.1000000000D+01
 ****

 AO basis set (Overlap normalization):
 Atom C1       Shell     1 S   6     bf    1 -     1          1.916147527785         -1.670708933886         -3.187457079821
      0.3047524880D+04  0.1834737132D-02
      0.4573695180D+03  0.1403732281D-01
      0.1039486850D+03  0.6884262226D-01
      0.2921015530D+02  0.2321844432D+00
      0.9286662960D+01  0.4679413484D+00
      0.3163926960D+01  0.3623119853D+00
 Atom C1       Shell     2 SP   3    bf    2 -     5          1.916147527785         -1.670708933886         -3.187457079821
      0.7868272350D+01 -0.1193324198D+00  0.6899906659D-01
      0.1881288540D+01 -0.1608541517D+00  0.3164239610D+00
      0.5442492580D+00  0.1143456438D+01  0.7443082909D+00
 Atom C1       Shell     3 SP   1    bf    6 -     9          1.916147527785         -1.670708933886         -3.187457079821
      0.1687144782D+00  0.1000000000D+01  0.1000000000D+01
 Atom C1       Shell     4 D   1     bf   10 -    15          1.916147527785         -1.670708933886         -3.187457079821
      0.8000000000D+00  0.1000000000D+01
 Atom H2       Shell     5 S   3     bf   16 -    16          2.163869610052          0.162639204038         -4.122519799771
      0.1873113696D+02  0.3349460434D-01
      0.2825394365D+01  0.2347269535D+00
      0.6401216923D+00  0.8137573261D+00
 Atom H2       Shell     6 S   1     bf   17 -    17          2.163869610052          0.162639204038         -4.122519799771
      0.1612777588D+00  0.1000000000D+01
 Atom C3       Shell     7 S   6     bf   18 -    18          4.250678493871         -3.316491643085         -3.713807394004
      0.3047524880D+04  0.1834737132D-02
      0.4573695180D+03  0.1403732281D-01
      0.1039486850D+03  0.6884262226D-01
      0.2921015530D+02  0.2321844432D+00
      0.9286662960D+01  0.4679413484D+00
      0.3163926960D+01  0.3623119853D+00
 Atom C3       Shell     8 SP   3    bf   19 -    22          4.250678493871         -3.316491643085         -3.713807394004
      0.7868272350D+01 -0.1193324198D+00  0.6899906659D-01
      0.1881288540D+01 -0.1608541517D+00  0.3164239610D+00
      0.5442492580D+00  0.1143456438D+01  0.7443082909D+00
 Atom C3       Shell     9 SP   1    bf   23 -    26          4.250678493871         -3.316491643085         -3.713807394004
      0.1687144782D+00  0.1000000000D+01  0.1000000000D+01
 Atom C3       Shell    10 D   1     bf   27 -    32          4.250678493871         -3.316491643085         -3.713807394004
      0.8000000000D+00  0.1000000000D+01
 Atom H4       Shell    11 S   3     bf   33 -    33          4.513196980580         -3.520251986973         -5.755127716318
      0.1873113696D+02  0.3349460434D-01
      0.2825394365D+01  0.2347269535D+00
      0.6401216923D+00  0.8137573261D+00
 Atom H4       Shell    12 S   1     bf   34 -    34          4.513196980580         -3.520251986973         -5.755127716318
      0.1612777588D+00  0.1000000000D+01
 Atom H5       Shell    13 S   3     bf   35 -    35          3.861528268469         -5.221154265812         -2.970255491895
      0.1873113696D+02  0.3349460434D-01
      0.2825394365D+01  0.2347269535D+00
      0.6401216923D+00  0.8137573261D+00
 Atom H5       Shell    14 S   1     bf   36 -    36          3.861528268469         -5.221154265812         -2.970255491895
      0.1612777588D+00  0.1000000000D+01
 Atom C6       Shell    15 S   6     bf   37 -    37          6.628477536563         -2.260041004386         -2.507592312102
      0.3047524880D+04  0.1834737132D-02
      0.4573695180D+03  0.1403732281D-01
      0.1039486850D+03  0.6884262226D-01
      0.2921015530D+02  0.2321844432D+00
      0.9286662960D+01  0.4679413484D+00
      0.3163926960D+01  0.3623119853D+00
 Atom C6       Shell    16 SP   3    bf   38 -    41          6.628477536563         -2.260041004386         -2.507592312102
      0.7868272350D+01 -0.1193324198D+00  0.6899906659D-01
      0.1881288540D+01 -0.1608541517D+00  0.3164239610D+00
      0.5442492580D+00  0.1143456438D+01  0.7443082909D+00
 Atom C6       Shell    17 SP   1    bf   42 -    45          6.628477536563         -2.260041004386         -2.507592312102
      0.1687144782D+00  0.1000000000D+01  0.1000000000D+01
 Atom C6       Shell    18 D   1     bf   46 -    51          6.628477536563         -2.260041004386         -2.507592312102
      0.8000000000D+00  0.1000000000D+01
 Atom C7       Shell    19 S   6     bf   52 -    52          6.488204469630         -1.641196608437          0.320665851147
      0.3047524880D+04  0.1834737132D-02
      0.4573695180D+03  0.1403732281D-01
      0.1039486850D+03  0.6884262226D-01
      0.2921015530D+02  0.2321844432D+00
      0.9286662960D+01  0.4679413484D+00
      0.3163926960D+01  0.3623119853D+00
 Atom C7       Shell    20 SP   3    bf   53 -    56          6.488204469630         -1.641196608437          0.320665851147
      0.7868272350D+01 -0.1193324198D+00  0.6899906659D-01
      0.1881288540D+01 -0.1608541517D+00  0.3164239610D+00
      0.5442492580D+00  0.1143456438D+01  0.7443082909D+00
 Atom C7       Shell    21 SP   1    bf   57 -    60          6.488204469630         -1.641196608437          0.320665851147
      0.1687144782D+00  0.1000000000D+01  0.1000000000D+01
 Atom C7       Shell    22 D   1     bf   61 -    66          6.488204469630         -1.641196608437          0.320665851147
      0.8000000000D+00  0.1000000000D+01
 Atom C8       Shell    23 S   6     bf   67 -    67          4.023294192267         -0.096150550655          0.799335445922
      0.3047524880D+04  0.1834737132D-02
      0.4573695180D+03  0.1403732281D-01
      0.1039486850D+03  0.6884262226D-01
      0.2921015530D+02  0.2321844432D+00
      0.9286662960D+01  0.4679413484D+00
      0.3163926960D+01  0.3623119853D+00
 Atom C8       Shell    24 SP   3    bf   68 -    71          4.023294192267         -0.096150550655          0.799335445922
      0.7868272350D+01 -0.1193324198D+00  0.6899906659D-01
      0.1881288540D+01 -0.1608541517D+00  0.3164239610D+00
      0.5442492580D+00  0.1143456438D+01  0.7443082909D+00
 Atom C8       Shell    25 SP   1    bf   72 -    75          4.023294192267         -0.096150550655          0.799335445922
      0.1687144782D+00  0.1000000000D+01  0.1000000000D+01
 Atom C8       Shell    26 D   1     bf   76 -    81          4.023294192267         -0.096150550655          0.799335445922
      0.8000000000D+00  0.1000000000D+01
 Atom H9       Shell    27 S   3     bf   82 -    82          4.284345420017          1.801807210368          0.000000000000
      0.1873113696D+02  0.3349460434D-01
      0.2825394365D+01  0.2347269535D+00
      0.6401216923D+00  0.8137573261D+00
 Atom H9       Shell    28 S   1     bf   83 -    83          4.284345420017          1.801807210368          0.000000000000
      0.1612777588D+00  0.1000000000D+01
 Atom H10      Shell    29 S   3     bf   84 -    84          3.758023017089          0.156463843597          2.836571862193
      0.1873113696D+02  0.3349460434D-01
      0.2825394365D+01  0.2347269535D+00
      0.6401216923D+00  0.8137573261D+00
 Atom H10      Shell    30 S   1     bf   85 -    85          3.758023017089          0.156463843597          2.836571862193
      0.1612777588D+00  0.1000000000D+01
 Atom C11      Shell    31 S   6     bf   86 -    86          1.616275656087         -1.247754323659         -0.345534476980
      0.3047524880D+04  0.1834737132D-02
      0.4573695180D+03  0.1403732281D-01
      0.1039486850D+03  0.6884262226D-01
      0.2921015530D+02  0.2321844432D+00
      0.9286662960D+01  0.4679413484D+00
      0.3163926960D+01  0.3623119853D+00
 Atom C11      Shell    32 SP   3    bf   87 -    90          1.616275656087         -1.247754323659         -0.345534476980
      0.7868272350D+01 -0.1193324198D+00  0.6899906659D-01
      0.1881288540D+01 -0.1608541517D+00  0.3164239610D+00
      0.5442492580D+00  0.1143456438D+01  0.7443082909D+00
 Atom C11      Shell    33 SP   1    bf   91 -    94          1.616275656087         -1.247754323659         -0.345534476980
      0.1687144782D+00  0.1000000000D+01  0.1000000000D+01
 Atom C11      Shell    34 D   1     bf   95 -   100          1.616275656087         -1.247754323659         -0.345534476980
      0.8000000000D+00  0.1000000000D+01
 Atom H12      Shell    35 S   3     bf  101 -   101          1.172509151808         -3.062132011161          0.567018014248
      0.1873113696D+02  0.3349460434D-01
      0.2825394365D+01  0.2347269535D+00
      0.6401216923D+00  0.8137573261D+00
 Atom H12      Shell    36 S   1     bf  102 -   102          1.172509151808         -3.062132011161          0.567018014248
      0.1612777588D+00  0.1000000000D+01
 Atom H13      Shell    37 S   3     bf  103 -   103          0.000000000000          0.000000000000          0.000000000000
      0.1873113696D+02  0.3349460434D-01
      0.2825394365D+01  0.2347269535D+00
      0.6401216923D+00  0.8137573261D+00
 Atom H13      Shell    38 S   1     bf  104 -   104          0.000000000000          0.000000000000          0.000000000000
      0.1612777588D+00  0.1000000000D+01
 Atom C14      Shell    39 S   6     bf  105 -   105          8.712322649504         -1.917586232982         -3.911910804919
      0.3047524880D+04  0.1834737132D-02
      0.4573695180D+03  0.1403732281D-01
      0.1039486850D+03  0.6884262226D-01
      0.2921015530D+02  0.2321844432D+00
      0.9286662960D+01  0.4679413484D+00
      0.3163926960D+01  0.3623119853D+00
 Atom C14      Shell    40 SP   3    bf  106 -   109          8.712322649504         -1.917586232982         -3.911910804919
      0.7868272350D+01 -0.1193324198D+00  0.6899906659D-01
      0.1881288540D+01 -0.1608541517D+00  0.3164239610D+00
      0.5442492580D+00  0.1143456438D+01  0.7443082909D+00
 Atom C14      Shell    41 SP   1    bf  110 -   113          8.712322649504         -1.917586232982         -3.911910804919
      0.1687144782D+00  0.1000000000D+01  0.1000000000D+01
 Atom C14      Shell    42 D   1     bf  114 -   119          8.712322649504         -1.917586232982         -3.911910804919
      0.8000000000D+00  0.1000000000D+01
 Atom H15      Shell    43 S   3     bf  120 -   120          8.660354065911         -2.398435929208         -5.911103065710
      0.1873113696D+02  0.3349460434D-01
      0.2825394365D+01  0.2347269535D+00
      0.6401216923D+00  0.8137573261D+00
 Atom H15      Shell    44 S   1     bf  121 -   121          8.660354065911         -2.398435929208         -5.911103065710
      0.1612777588D+00  0.1000000000D+01
 Atom C16      Shell    45 S   6     bf  122 -   122         11.170879157383         -0.893062441709         -2.933595012787
      0.3047524880D+04  0.1834737132D-02
      0.4573695180D+03  0.1403732281D-01
      0.1039486850D+03  0.6884262226D-01
      0.2921015530D+02  0.2321844432D+00
      0.9286662960D+01  0.4679413484D+00
      0.3163926960D+01  0.3623119853D+00
 Atom C16      Shell    46 SP   3    bf  123 -   126         11.170879157383         -0.893062441709         -2.933595012787
      0.7868272350D+01 -0.1193324198D+00  0.6899906659D-01
      0.1881288540D+01 -0.1608541517D+00  0.3164239610D+00
      0.5442492580D+00  0.1143456438D+01  0.7443082909D+00
 Atom C16      Shell    47 SP   1    bf  127 -   130         11.170879157383         -0.893062441709         -2.933595012787
      0.1687144782D+00  0.1000000000D+01  0.1000000000D+01
 Atom C16      Shell    48 D   1     bf  131 -   136         11.170879157383         -0.893062441709         -2.933595012787
      0.8000000000D+00  0.1000000000D+01
 Atom H17      Shell    49 S   3     bf  137 -   137         12.758556189503         -1.958834532504         -3.735898424778
      0.1873113696D+02  0.3349460434D-01
      0.2825394365D+01  0.2347269535D+00
      0.6401216923D+00  0.8137573261D+00
 Atom H17      Shell    50 S   1     bf  138 -   138         12.758556189503         -1.958834532504         -3.735898424778
      0.1612777588D+00  0.1000000000D+01
 Atom C18      Shell    51 S   6     bf  139 -   139         11.326865901823         -0.936645686840         -0.029139936017
      0.3047524880D+04  0.1834737132D-02
      0.4573695180D+03  0.1403732281D-01
      0.1039486850D+03  0.6884262226D-01
      0.2921015530D+02  0.2321844432D+00
      0.9286662960D+01  0.4679413484D+00
      0.3163926960D+01  0.3623119853D+00
 Atom C18      Shell    52 SP   3    bf  140 -   143         11.326865901823         -0.936645686840         -0.029139936017
      0.7868272350D+01 -0.1193324198D+00  0.6899906659D-01
      0.1881288540D+01 -0.1608541517D+00  0.3164239610D+00
      0.5442492580D+00  0.1143456438D+01  0.7443082909D+00
 Atom C18      Shell    53 SP   1    bf  144 -   147         11.326865901823         -0.936645686840         -0.029139936017
      0.1687144782D+00  0.1000000000D+01  0.1000000000D+01
 Atom C18      Shell    54 D   1     bf  148 -   153         11.326865901823         -0.936645686840         -0.029139936017
      0.8000000000D+00  0.1000000000D+01
 Atom H19      Shell    55 S   3     bf  154 -   154         11.612614470630         -2.934043973921          0.463896736320
      0.1873113696D+02  0.3349460434D-01
      0.2825394365D+01  0.2347269535D+00
      0.6401216923D+00  0.8137573261D+00
 Atom H19      Shell    56 S   1     bf  155 -   155         11.612614470630         -2.934043973921          0.463896736320
      0.1612777588D+00  0.1000000000D+01
 Atom C20      Shell    57 S   6     bf  156 -   156          8.812094161094          0.005136974828          1.148964468103
      0.3047524880D+04  0.1834737132D-02
      0.4573695180D+03  0.1403732281D-01
      0.1039486850D+03  0.6884262226D-01
      0.2921015530D+02  0.2321844432D+00
      0.9286662960D+01  0.4679413484D+00
      0.3163926960D+01  0.3623119853D+00
 Atom C20      Shell    58 SP   3    bf  157 -   160          8.812094161094          0.005136974828          1.148964468103
      0.7868272350D+01 -0.1193324198D+00  0.6899906659D-01
      0.1881288540D+01 -0.1608541517D+00  0.3164239610D+00
      0.5442492580D+00  0.1143456438D+01  0.7443082909D+00
 Atom C20      Shell    59 SP   1    bf  161 -   164          8.812094161094          0.005136974828          1.148964468103
      0.1687144782D+00  0.1000000000D+01  0.1000000000D+01
 Atom C20      Shell    60 D   1     bf  165 -   170          8.812094161094          0.005136974828          1.148964468103
      0.8000000000D+00  0.1000000000D+01
 Atom H21      Shell    61 S   3     bf  171 -   171          8.490823521996          1.896165261300          0.348353249172
      0.1873113696D+02  0.3349460434D-01
      0.2825394365D+01  0.2347269535D+00
      0.6401216923D+00  0.8137573261D+00
 Atom H21      Shell    62 S   1     bf  172 -   172          8.490823521996          1.896165261300          0.348353249172
      0.1612777588D+00  0.1000000000D+01
 Atom C22      Shell    63 S   6     bf  173 -   173          9.018873758219          0.333813677408          4.047816355711
      0.3047524880D+04  0.1834737132D-02
      0.4573695180D+03  0.1403732281D-01
      0.1039486850D+03  0.6884262226D-01
      0.2921015530D+02  0.2321844432D+00
      0.9286662960D+01  0.4679413484D+00
      0.3163926960D+01  0.3623119853D+00
 Atom C22      Shell    64 SP   3    bf  174 -   177          9.018873758219          0.333813677408          4.047816355711
      0.7868272350D+01 -0.1193324198D+00  0.6899906659D-01
      0.1881288540D+01 -0.1608541517D+00  0.3164239610D+00
      0.5442492580D+00  0.1143456438D+01  0.7443082909D+00
 Atom C22      Shell    65 SP   1    bf  178 -   181          9.018873758219          0.333813677408          4.047816355711
      0.1687144782D+00  0.1000000000D+01  0.1000000000D+01
 Atom C22      Shell    66 D   1     bf  182 -   187          9.018873758219          0.333813677408          4.047816355711
      0.8000000000D+00  0.1000000000D+01
 Atom H23      Shell    67 S   3     bf  188 -   188          9.031396727637         -1.518517439822          4.968831645274
      0.1873113696D+02  0.3349460434D-01
      0.2825394365D+01  0.2347269535D+00
      0.6401216923D+00  0.8137573261D+00
 Atom H23      Shell    68 S   1     bf  189 -   189          9.031396727637         -1.518517439822          4.968831645274
      0.1612777588D+00  0.1000000000D+01
 Atom H24      Shell    69 S   3     bf  190 -   190          7.330949419263          1.305875704362          4.752581250997
      0.1873113696D+02  0.3349460434D-01
      0.2825394365D+01  0.2347269535D+00
      0.6401216923D+00  0.8137573261D+00
 Atom H24      Shell    70 S   1     bf  191 -   191          7.330949419263          1.305875704362          4.752581250997
      0.1612777588D+00  0.1000000000D+01
 Atom C25      Shell    71 S   6     bf  192 -   192         11.372986028699          1.807810813601          4.932095047998
      0.3047524880D+04  0.1834737132D-02
      0.4573695180D+03  0.1403732281D-01
      0.1039486850D+03  0.6884262226D-01
      0.2921015530D+02  0.2321844432D+00
      0.9286662960D+01  0.4679413484D+00
      0.3163926960D+01  0.3623119853D+00
 Atom C25      Shell    72 SP   3    bf  193 -   196         11.372986028699          1.807810813601          4.932095047998
      0.7868272350D+01 -0.1193324198D+00  0.6899906659D-01
      0.1881288540D+01 -0.1608541517D+00  0.3164239610D+00
      0.5442492580D+00  0.1143456438D+01  0.7443082909D+00
 Atom C25      Shell    73 SP   1    bf  197 -   200         11.372986028699          1.807810813601          4.932095047998
      0.1687144782D+00  0.1000000000D+01  0.1000000000D+01
 Atom C25      Shell    74 D   1     bf  201 -   206         11.372986028699          1.807810813601          4.932095047998
      0.8000000000D+00  0.1000000000D+01
 Atom H26      Shell    75 S   3     bf  207 -   207         11.250821111256          3.775480061440          4.277107296497
      0.1873113696D+02  0.3349460434D-01
      0.2825394365D+01  0.2347269535D+00
      0.6401216923D+00  0.8137573261D+00
 Atom H26      Shell    76 S   1     bf  208 -   208         11.250821111256          3.775480061440          4.277107296497
      0.1612777588D+00  0.1000000000D+01
 Atom H27      Shell    77 S   3     bf  209 -   209         11.360906143367          1.872924445557          6.999821458429
      0.1873113696D+02  0.3349460434D-01
      0.2825394365D+01  0.2347269535D+00
      0.6401216923D+00  0.8137573261D+00
 Atom H27      Shell    78 S   1     bf  210 -   210         11.360906143367          1.872924445557          6.999821458429
      0.1612777588D+00  0.1000000000D+01
 Atom C28      Shell    79 S   6     bf  211 -   211         13.832405971345          0.633696150470          3.899032189042
      0.3047524880D+04  0.1834737132D-02
      0.4573695180D+03  0.1403732281D-01
      0.1039486850D+03  0.6884262226D-01
      0.2921015530D+02  0.2321844432D+00
      0.9286662960D+01  0.4679413484D+00
      0.3163926960D+01  0.3623119853D+00
 Atom C28      Shell    80 SP   3    bf  212 -   215         13.832405971345          0.633696150470          3.899032189042
      0.7868272350D+01 -0.1193324198D+00  0.6899906659D-01
      0.1881288540D+01 -0.1608541517D+00  0.3164239610D+00
      0.5442492580D+00  0.1143456438D+01  0.7443082909D+00
 Atom C28      Shell    81 SP   1    bf  216 -   219         13.832405971345          0.633696150470          3.899032189042
      0.1687144782D+00  0.1000000000D+01  0.1000000000D+01
 Atom C28      Shell    82 D   1     bf  220 -   225         13.832405971345          0.633696150470          3.899032189042
      0.8000000000D+00  0.1000000000D+01
 Atom C29      Shell    83 S   6     bf  226 -   226         13.569139190882          0.610618323607          0.973927375620
      0.3047524880D+04  0.1834737132D-02
      0.4573695180D+03  0.1403732281D-01
      0.1039486850D+03  0.6884262226D-01
      0.2921015530D+02  0.2321844432D+00
      0.9286662960D+01  0.4679413484D+00
      0.3163926960D+01  0.3623119853D+00
 Atom C29      Shell    84 SP   3    bf  227 -   230         13.569139190882          0.610618323607          0.973927375620
      0.7868272350D+01 -0.1193324198D+00  0.6899906659D-01
      0.1881288540D+01 -0.1608541517D+00  0.3164239610D+00
      0.5442492580D+00  0.1143456438D+01  0.7443082909D+00
 Atom C29      Shell    85 SP   1    bf  231 -   234         13.569139190882          0.610618323607          0.973927375620
      0.1687144782D+00  0.1000000000D+01  0.1000000000D+01
 Atom C29      Shell    86 D   1     bf  235 -   240         13.569139190882          0.610618323607          0.973927375620
      0.8000000000D+00  0.1000000000D+01
 Atom H30      Shell    87 S   3     bf  241 -   241         13.194807309643          2.583319345220          0.445989275745
      0.1873113696D+02  0.3349460434D-01
      0.2825394365D+01  0.2347269535D+00
      0.6401216923D+00  0.8137573261D+00
 Atom H30      Shell    88 S   1     bf  242 -   242         13.194807309643          2.583319345220          0.445989275745
      0.1612777588D+00  0.1000000000D+01
 Atom C31      Shell    89 S   6     bf  243 -   243         16.233067922348          0.000000000000          0.000000000000
      0.3047524880D+04  0.1834737132D-02
      0.4573695180D+03  0.1403732281D-01
      0.1039486850D+03  0.6884262226D-01
      0.2921015530D+02  0.2321844432D+00
      0.9286662960D+01  0.4679413484D+00
      0.3163926960D+01  0.3623119853D+00
 Atom C31      Shell    90 SP   3    bf  244 -   247         16.233067922348          0.000000000000          0.000000000000
      0.7868272350D+01 -0.1193324198D+00  0.6899906659D-01
      0.1881288540D+01 -0.1608541517D+00  0.3164239610D+00
      0.5442492580D+00  0.1143456438D+01  0.7443082909D+00
 Atom C31      Shell    91 SP   1    bf  248 -   251         16.233067922348          0.000000000000          0.000000000000
      0.1687144782D+00  0.1000000000D+01  0.1000000000D+01
 Atom C31      Shell    92 D   1     bf  252 -   257         16.233067922348          0.000000000000          0.000000000000
      0.8000000000D+00  0.1000000000D+01
 Atom H32      Shell    93 S   3     bf  258 -   258         16.530454936462          0.701667369593         -1.920798483949
      0.1873113696D+02  0.3349460434D-01
      0.2825394365D+01  0.2347269535D+00
      0.6401216923D+00  0.8137573261D+00
 Atom H32      Shell    94 S   1     bf  259 -   259         16.530454936462          0.701667369593         -1.920798483949
      0.1612777588D+00  0.1000000000D+01
 Atom H33      Shell    95 S   3     bf  260 -   260         16.556397588144         -2.048296227436         -0.043783820663
      0.1873113696D+02  0.3349460434D-01
      0.2825394365D+01  0.2347269535D+00
      0.6401216923D+00  0.8137573261D+00
 Atom H33      Shell    96 S   1     bf  261 -   261         16.556397588144         -2.048296227436         -0.043783820663
      0.1612777588D+00  0.1000000000D+01
 Atom C34      Shell    97 S   6     bf  262 -   262         17.997942873196          1.298451253845          1.955786215279
      0.3047524880D+04  0.1834737132D-02
      0.4573695180D+03  0.1403732281D-01
      0.1039486850D+03  0.6884262226D-01
      0.2921015530D+02  0.2321844432D+00
      0.9286662960D+01  0.4679413484D+00
      0.3163926960D+01  0.3623119853D+00
 Atom C34      Shell    98 SP   3    bf  263 -   266         17.997942873196          1.298451253845          1.955786215279
      0.7868272350D+01 -0.1193324198D+00  0.6899906659D-01
      0.1881288540D+01 -0.1608541517D+00  0.3164239610D+00
      0.5442492580D+00  0.1143456438D+01  0.7443082909D+00
 Atom C34      Shell    99 SP   1    bf  267 -   270         17.997942873196          1.298451253845          1.955786215279
      0.1687144782D+00  0.1000000000D+01  0.1000000000D+01
 Atom C34      Shell   100 D   1     bf  271 -   276         17.997942873196          1.298451253845          1.955786215279
      0.8000000000D+00  0.1000000000D+01
 Atom H35      Shell   101 S   3     bf  277 -   277         19.406370329824         -0.040301905777          2.675146164688
      0.1873113696D+02  0.3349460434D-01
      0.2825394365D+01  0.2347269535D+00
      0.6401216923D+00  0.8137573261D+00
 Atom H35      Shell   102 S   1     bf  278 -   278         19.406370329824         -0.040301905777          2.675146164688
      0.1612777588D+00  0.1000000000D+01
 Atom H36      Shell   103 S   3     bf  279 -   279         19.059515709064          2.854510163098          1.101801136813
      0.1873113696D+02  0.3349460434D-01
      0.2825394365D+01  0.2347269535D+00
      0.6401216923D+00  0.8137573261D+00
 Atom H36      Shell   104 S   1     bf  280 -   280         19.059515709064          2.854510163098          1.101801136813
      0.1612777588D+00  0.1000000000D+01
 Atom C37      Shell   105 S   6     bf  281 -   281         16.288373535524          2.272405614754          4.162641860312
      0.3047524880D+04  0.1834737132D-02
      0.4573695180D+03  0.1403732281D-01
      0.1039486850D+03  0.6884262226D-01
      0.2921015530D+02  0.2321844432D+00
      0.9286662960D+01  0.4679413484D+00
      0.3163926960D+01  0.3623119853D+00
 Atom C37      Shell   106 SP   3    bf  282 -   285         16.288373535524          2.272405614754          4.162641860312
      0.7868272350D+01 -0.1193324198D+00  0.6899906659D-01
      0.1881288540D+01 -0.1608541517D+00  0.3164239610D+00
      0.5442492580D+00  0.1143456438D+01  0.7443082909D+00
[...]
 1619 Fit      -0.003563
 1620 Fit      -0.001093
 1621 Fit      -0.002626
 1622 Fit      -0.001963
 1623 Fit      -0.002202
 1624 Fit      -0.001119
 1625 Fit      -0.001458
 1626 Fit      -0.002798
 1627 Fit      -0.001078
 1628 Fit       0.000399
 1629 Fit       0.000690
 1630 Fit      -0.000166
 1631 Fit      -0.001617
 1632 Fit       0.001351
 1633 Fit       0.001513
 1634 Fit       0.000790
 1635 Fit      -0.000951
 1636 Fit       0.000196
 1637 Fit       0.001686
 1638 Fit       0.000366
 1639 Fit      -0.001554
 1640 Fit      -0.002178
 1641 Fit      -0.001025
 1642 Fit       0.000898
 1643 Fit       0.002177
 1644 Fit       0.000803
 1645 Fit      -0.001137
 1646 Fit      -0.002924
 1647 Fit       0.000427
 1648 Fit       0.001782
 1649 Fit      -0.002892
 1650 Fit      -0.000227
 1651 Fit       0.000380
 1652 Fit      -0.002535
 1653 Fit       0.000111
 1654 Fit       0.001494
 1655 Fit       0.002331
 1656 Fit      -0.001864
 1657 Fit       0.001072
 1658 Fit       0.004263
 1659 Fit      -0.000247
 1660 Fit       0.007787
 1661 Fit       0.005821
 1662 Fit       0.002272
 1663 Fit      -0.003675
 1664 Fit       0.010327
 1665 Fit       0.006497
 1666 Fit       0.001336
 1667 Fit      -0.006348
 1668 Fit       0.002920
 1669 Fit      -0.004785
 1670 Fit      -0.005244
 1671 Fit       0.003446
 1672 Fit       0.004358
 1673 Fit       0.004653
 1674 Fit       0.003630
 1675 Fit       0.002305
 1676 Fit       0.003508
 1677 Fit      -0.002822
 1678 Fit       0.002260
 1679 Fit       0.004005
 1680 Fit       0.006989
 1681 Fit       0.006196
 1682 Fit      -0.000234
 1683 Fit      -0.004743
 1684 Fit       0.000218
 1685 Fit       0.004178
 1686 Fit       0.002655
 1687 Fit       0.021316
 1688 Fit       0.014481
 1689 Fit       0.010492
 1690 Fit       0.006601
 1691 Fit       0.017401
 1692 Fit       0.011310
 1693 Fit       0.007931
 1694 Fit       0.004580
 1695 Fit       0.008736
 1696 Fit       0.006726
 1697 Fit       0.004771
 1698 Fit       0.005107
 1699 Fit       0.006129
 1700 Fit       0.004967
 1701 Fit       0.004305
 1702 Fit       0.003821
 1703 Fit       0.004305
 1704 Fit       0.004596
 1705 Fit       0.003731
 1706 Fit       0.004730
 1707 Fit       0.004866
 1708 Fit       0.003467
 1709 Fit       0.005582
 1710 Fit       0.005887
 1711 Fit       0.009032
 1712 Fit       0.008249
 1713 Fit       0.008551
 1714 Fit       0.009712
 1715 Fit       0.006970
 1716 Fit       0.006830
 1717 Fit       0.007319
 1718 Fit       0.008080
 1719 Fit       0.009477
 1720 Fit       0.005588
 1721 Fit       0.007393
 1722 Fit       0.006246
 1723 Fit       0.004748
 1724 Fit       0.009522
 1725 Fit       0.007839
 1726 Fit       0.009749
 1727 Fit       0.008238
 1728 Fit       0.011294
 1729 Fit       0.012595
 1730 Fit       0.011379
 1731 Fit       0.015796
 1732 Fit       0.017386
 1733 Fit       0.006063
 1734 Fit       0.005494
 1735 Fit       0.005386
 1736 Fit       0.004702
 1737 Fit       0.003995
 1738 Fit       0.004047
 1739 Fit       0.004279
 1740 Fit       0.003126
 1741 Fit       0.001782
 1742 Fit       0.000823
 1743 Fit       0.001961
 1744 Fit       0.002650
 1745 Fit       0.000059
 1746 Fit      -0.003049
 1747 Fit      -0.006261
 1748 Fit      -0.006189
 1749 Fit      -0.000277
 1750 Fit       0.002206
 1751 Fit      -0.000410
 1752 Fit       0.000894
 1753 Fit       0.001184
 1754 Fit       0.001154
 1755 Fit       0.002844
 1756 Fit       0.001502
 1757 Fit       0.012225
 1758 Fit       0.004577
 1759 Fit       0.002567
 1760 Fit      -0.000963
 1761 Fit      -0.001355
 1762 Fit       0.009738
 1763 Fit       0.007437
 1764 Fit       0.005951
 1765 Fit       0.003143
 1766 Fit       0.005146
 1767 Fit       0.005293
 1768 Fit       0.003104
 1769 Fit       0.001731
 1770 Fit      -0.001779
 1771 Fit      -0.011047
 1772 Fit       0.001283
 1773 Fit      -0.000103
 1774 Fit      -0.003730
 1775 Fit      -0.006088
 1776 Fit       0.008184
 1777 Fit       0.006794
 1778 Fit       0.006004
 1779 Fit       0.001708
 1780 Fit      -0.006569
 1781 Fit      -0.000543
 1782 Fit       0.004479
 1783 Fit       0.004966
 1784 Fit       0.005375
 1785 Fit       0.006086
 1786 Fit       0.004963
 1787 Fit       0.007041
 1788 Fit       0.004347
 1789 Fit       0.005643
 1790 Fit       0.003226
 1791 Fit       0.005379
 1792 Fit       0.007296
 1793 Fit       0.008513
 1794 Fit       0.003509
 1795 Fit       0.005473
 1796 Fit       0.003510
 1797 Fit       0.004968
 1798 Fit      -0.000066
 1799 Fit       0.000549
 1800 Fit       0.000398
 1801 Fit       0.000623
 1802 Fit       0.000925
 1803 Fit       0.001036
 1804 Fit       0.001492
 1805 Fit       0.000403
 1806 Fit       0.000764
 1807 Fit       0.001534
 1808 Fit       0.002854
 1809 Fit      -0.001786
 1810 Fit      -0.001373
 1811 Fit       0.000154
 1812 Fit       0.002109
 1813 Fit       0.003969
 1814 Fit       0.005225
 1815 Fit       0.001733
 1816 Fit       0.003370
 1817 Fit       0.004290
 1818 Fit       0.004871
 1819 Fit      -0.007437
 1820 Fit      -0.008247
 1821 Fit      -0.008938
 1822 Fit      -0.009307
 1823 Fit      -0.019551
 1824 Fit      -0.006056
 1825 Fit      -0.005020
 1826 Fit      -0.003984
 1827 Fit      -0.006315
 1828 Fit      -0.011956
 1829 Fit      -0.007717
 1830 Fit      -0.009429
 1831 Fit      -0.014442
 1832 Fit      -0.007030
 1833 Fit      -0.012132
 1834 Fit      -0.019259
 1835 Fit      -0.011332
 1836 Fit       0.004611
 1837 Fit       0.003598
 1838 Fit       0.002490
 1839 Fit       0.004470
 1840 Fit       0.002615
 1841 Fit       0.000842
 1842 Fit      -0.001325
 1843 Fit       0.002822
 1844 Fit       0.000080
 1845 Fit      -0.002615
 1846 Fit      -0.002738
 1847 Fit      -0.002168
 1848 Fit      -0.003885
 1849 Fit      -0.003884
 1850 Fit      -0.005519
 1851 Fit       0.002919
 1852 Fit       0.001508
 1853 Fit       0.003537
 1854 Fit       0.002082
 1855 Fit       0.001064
 1856 Fit      -0.001132
 1857 Fit       0.002075
 1858 Fit       0.000746
 1859 Fit      -0.000260
 1860 Fit      -0.002303
 1861 Fit      -0.002019
 1862 Fit      -0.001090
 1863 Fit      -0.001587
 1864 Fit      -0.003555
 1865 Fit      -0.002861
 1866 Fit      -0.003501
 1867 Fit      -0.005652
 1868 Fit      -0.010488
 1869 Fit      -0.005676
 1870 Fit      -0.006154
 1871 Fit      -0.000527
 1872 Fit       0.000112
 1873 Fit      -0.002657
 1874 Fit       0.003108
 1875 Fit       0.001473
 1876 Fit       0.000677
 1877 Fit       0.000744
 1878 Fit       0.001531
 1879 Fit       0.002685
 1880 Fit       0.005238
 1881 Fit       0.002990
 1882 Fit       0.005190
 1883 Fit       0.002657
 1884 Fit       0.007609
 1885 Fit       0.004350
 1886 Fit       0.001720
 1887 Fit       0.001709
 1888 Fit       0.002455
 1889 Fit       0.002999
 1890 Fit       0.002838
 1891 Fit       0.003293
 1892 Fit       0.003595
 1893 Fit       0.004235
 1894 Fit       0.002326
 1895 Fit       0.005250
 1896 Fit       0.003874
 1897 Fit       0.003058
 1898 Fit       0.004562
 1899 Fit       0.003362
 1900 Fit       0.002328
 1901 Fit       0.001791
 1902 Fit       0.001788
 1903 Fit       0.000974
 1904 Fit       0.001865
 1905 Fit       0.001551
 1906 Fit       0.000976
 1907 Fit       0.001753
 1908 Fit       0.001649
 1909 Fit       0.000462
 1910 Fit       0.002417
 1911 Fit       0.000929
 1912 Fit      -0.000602
 1913 Fit      -0.000134
 1914 Fit      -0.000738
 1915 Fit      -0.001180
 1916 Fit      -0.000608
 1917 Fit       0.000674
 1918 Fit      -0.000647
 1919 Fit       0.000363
 1920 Fit       0.000855
 1921 Fit       0.000780
 1922 Fit       0.000154
 1923 Fit       0.000002
 1924 Fit      -0.000427
 1925 Fit       0.001129
 1926 Fit       0.001002
 1927 Fit       0.000435
 1928 Fit       0.001033
 1929 Fit       0.001219
 1930 Fit       0.000251
 1931 Fit       0.001092
 1932 Fit       0.001974
 1933 Fit       0.001484
 1934 Fit       0.000302
 1935 Fit      -0.000196
 1936 Fit       0.000357
 1937 Fit       0.001364
 1938 Fit       0.002434
 1939 Fit       0.000246
 1940 Fit       0.001000
 1941 Fit       0.001995
 1942 Fit       0.001064
 1943 Fit       0.001103
 1944 Fit       0.001764
 1945 Fit       0.001779
 1946 Fit       0.003822
 1947 Fit       0.004290
 1948 Fit       0.003449
 1949 Fit       0.005987
 1950 Fit       0.005749
 1951 Fit       0.007092
 1952 Fit       0.010014
 1953 Fit       0.008845
 1954 Fit       0.007126
 1955 Fit       0.005680
 1956 Fit       0.005442
 1957 Fit       0.005759
 1958 Fit       0.006306
 1959 Fit       0.004957
 1960 Fit       0.008064
 1961 Fit       0.008528
 1962 Fit       0.008626
 1963 Fit       0.007730
 1964 Fit       0.007317
 1965 Fit       0.009630
 1966 Fit       0.008640
 1967 Fit       0.007564
 1968 Fit       0.006474
 1969 Fit       0.006108
 1970 Fit       0.011166
 1971 Fit       0.009386
 1972 Fit       0.016153
 1973 Fit       0.012620
 1974 Fit       0.009421
 1975 Fit       0.016859
 1976 Fit       0.011712
 1977 Fit       0.007906
 1978 Fit       0.006362
 1979 Fit       0.006143
 1980 Fit       0.007262
 1981 Fit       0.005896
 1982 Fit       0.006949
 1983 Fit       0.004545
 1984 Fit      -0.013702
 1985 Fit      -0.009201
 1986 Fit      -0.023834
 1987 Fit      -0.021536
 1988 Fit      -0.016585
 1989 Fit      -0.010365
 1990 Fit      -0.004215
 1991 Fit       0.000167
 1992 Fit      -0.021773
 1993 Fit      -0.024400
 1994 Fit      -0.024206
 1995 Fit      -0.020164
 1996 Fit      -0.012018
 1997 Fit      -0.018021
 1998 Fit      -0.022236
 1999 Fit      -0.022682
 2000 Fit      -0.019844
 2001 Fit      -0.012525
 2002 Fit      -0.010720
 2003 Fit      -0.015865
 2004 Fit      -0.019784
 2005 Fit      -0.018749
 2006 Fit      -0.017202
 2007 Fit      -0.011356
 2008 Fit      -0.000494
 2009 Fit       0.001090
 2010 Fit      -0.007670
 2011 Fit      -0.013756
 2012 Fit      -0.017353
 2013 Fit      -0.011844
 2014 Fit      -0.005986
 2015 Fit      -0.000752
 2016 Fit      -0.009474
 2017 Fit      -0.002337
 2018 Fit       0.003338
 2019 Fit       0.009909
 2020 Fit       0.012616
 2021 Fit      -0.000912
 2022 Fit       0.008816
 2023 Fit       0.014461
 2024 Fit       0.016658
 2025 Fit       0.015768
 2026 Fit       0.009871
 2027 Fit       0.015513
 2028 Fit       0.017076
 2029 Fit       0.015503
 2030 Fit       0.012317
 2031 Fit       0.013986
 2032 Fit       0.008740
 2033 Fit       0.007511
 2034 Fit      -0.000575
 2035 Fit      -0.013955
 2036 Fit      -0.011253
 2037 Fit      -0.001692
 2038 Fit      -0.018096
 2039 Fit      -0.020005
 2040 Fit      -0.016721
 2041 Fit      -0.008744
 2042 Fit      -0.020061
 2043 Fit      -0.023107
 2044 Fit      -0.020893
 2045 Fit      -0.014201
 2046 Fit      -0.005099
 2047 Fit       0.004978
 2048 Fit      -0.015433
 2049 Fit      -0.021859
 2050 Fit      -0.023959
 2051 Fit      -0.021174
 2052 Fit      -0.015307
 2053 Fit      -0.009702
 2054 Fit      -0.007103
 2055 Fit      -0.016027
 2056 Fit      -0.021909
 2057 Fit      -0.022095
 2058 Fit      -0.017596
 2059 Fit      -0.014437
 2060 Fit      -0.019668
 2061 Fit       0.012108
 2062 Fit       0.019162
 2063 Fit       0.023558
 2064 Fit       0.001174
 2065 Fit       0.010830
 2066 Fit       0.017074
 2067 Fit       0.020715
 2068 Fit       0.022687
 2069 Fit       0.005071
 2070 Fit       0.011875
 2071 Fit       0.015374
 2072 Fit       0.016327
 2073 Fit       0.002648
 2074 Fit       0.006502
 2075 Fit       0.005580
 2076 Fit      -0.000102
 2077 Fit      -0.001065
 2078 Fit      -0.001014
 2079 Fit       0.002604
 2080 Fit       0.001773
 2081 Fit       0.002103
 2082 Fit       0.001175
 2083 Fit       0.001264
 2084 Fit       0.001517
 2085 Fit       0.000291
 2086 Fit       0.000009
 2087 Fit       0.000474
 2088 Fit      -0.000471
 2089 Fit      -0.000903
 2090 Fit      -0.000126
 2091 Fit       0.000329
 2092 Fit      -0.000126
 2093 Fit       0.000069
 2094 Fit      -0.000404
 2095 Fit      -0.001994
 2096 Fit      -0.001313
 2097 Fit      -0.001979
 2098 Fit      -0.001712
 2099 Fit      -0.000637
 2100 Fit      -0.002176
 2101 Fit      -0.001872
 2102 Fit      -0.001977
 2103 Fit      -0.002788
 2104 Fit      -0.002649
 2105 Fit      -0.003334
 2106 Fit       0.000540
 2107 Fit      -0.001066
 2108 Fit       0.000017
 2109 Fit      -0.001155
 2110 Fit      -0.000150
 2111 Fit      -0.003985
 2112 Fit      -0.003740
 2113 Fit       0.000912
 2114 Fit      -0.000175
 2115 Fit       0.000225
 2116 Fit       0.000148
 2117 Fit      -0.000491
 2118 Fit      -0.001623
 2119 Fit      -0.003406
 2120 Fit      -0.001558
 2121 Fit      -0.000967
 2122 Fit      -0.001339
 2123 Fit      -0.002040
 2124 Fit      -0.003096
 2125 Fit      -0.002554
 2126 Fit      -0.000514
 2127 Fit       0.000241
 2128 Fit      -0.000451
 2129 Fit      -0.002541
 2130 Fit      -0.000128
 2131 Fit       0.000054
 2132 Fit      -0.001449
 2133 Fit      -0.003038
 2134 Fit      -0.003715
 2135 Fit      -0.002478
 2136 Fit      -0.000963
 2137 Fit      -0.002279
 2138 Fit       0.000532
 2139 Fit       0.000550
 2140 Fit       0.001052
 2141 Fit       0.000300
 2142 Fit       0.000778
 2143 Fit       0.000340
 2144 Fit      -0.000702
 2145 Fit      -0.000773
 2146 Fit      -0.000335
 2147 Fit      -0.000903
 2148 Fit      -0.002770
 2149 Fit      -0.003088
 2150 Fit      -0.001452
 2151 Fit      -0.002055
 2152 Fit      -0.002998
 2153 Fit      -0.003455
 2154 Fit      -0.003415
 2155 Fit      -0.003430
 2156 Fit      -0.003271
 2157 Fit      -0.003284
 2158 Fit      -0.003491
 2159 Fit      -0.004170
 2160 Fit      -0.002503
 2161 Fit      -0.001719
 2162 Fit      -0.002211
 2163 Fit      -0.000949
 2164 Fit      -0.000005
 2165 Fit      -0.001791
 2166 Fit      -0.000472
 2167 Fit       0.000395
 2168 Fit       0.001023
 2169 Fit      -0.002868
 2170 Fit      -0.001335
 2171 Fit      -0.000366
 2172 Fit       0.000023
 2173 Fit      -0.002507
 2174 Fit      -0.001999
 2175 Fit       0.001358
 2176 Fit       0.000778
 2177 Fit       0.001441
 2178 Fit       0.000615
 2179 Fit       0.000118
 2180 Fit      -0.000843
 2181 Fit      -0.002059
 2182 Fit       0.000356
 2183 Fit       0.000595
 2184 Fit      -0.000732
 2185 Fit      -0.001125
 2186 Fit      -0.001917
 2187 Fit      -0.001033
 2188 Fit      -0.000769
 2189 Fit      -0.002520
 2190 Fit      -0.001044
 2191 Fit      -0.001447
 2192 Fit      -0.002047
 2193 Fit      -0.001801
 2194 Fit      -0.000033
 2195 Fit      -0.000237
 2196 Fit      -0.000818
 2197 Fit      -0.000972
 2198 Fit      -0.002381
 2199 Fit       0.000498
 2200 Fit       0.000037
 2201 Fit      -0.000824
 2202 Fit      -0.002420
 2203 Fit       0.000108
 2204 Fit      -0.001338
 2205 Fit      -0.002164
 2206 Fit      -0.001929
 2207 Fit      -0.001369
 2208 Fit      -0.002616
 2209 Fit      -0.002697
 2210 Fit      -0.001952
 2211 Fit      -0.000633
 2212 Fit      -0.002550
 2213 Fit      -0.002354
 2214 Fit       0.000788
 2215 Fit       0.000161
 2216 Fit      -0.001805
 2217 Fit      -0.002323
 2218 Fit      -0.001646
 2219 Fit      -0.001840
 2220 Fit      -0.001957
 2221 Fit      -0.000686
 2222 Fit      -0.000199
 2223 Fit      -0.000490
 2224 Fit      -0.001306
 2225 Fit       0.000405
 2226 Fit       0.000685
 2227 Fit       0.000272
 2228 Fit      -0.000665
 2229 Fit       0.001115
 2230 Fit       0.000500
 2231 Fit       0.000008
 2232 Fit       0.001070
 2233 Fit       0.000130
 2234 Fit      -0.001175
 2235 Fit      -0.001514
 2236 Fit      -0.000657
 2237 Fit       0.000600
 2238 Fit       0.001553
 2239 Fit       0.000636
 2240 Fit      -0.000730
 2241 Fit      -0.002021
 2242 Fit      -0.000600
 2243 Fit       0.000474
 2244 Fit       0.001361
 2245 Fit      -0.001411
 2246 Fit       0.000601
 2247 Fit      -0.000495
 2248 Fit       0.000030
 2249 Fit      -0.000238
 2250 Fit       0.000885
 2251 Fit       0.001595
 2252 Fit      -0.000369
 2253 Fit       0.000705
 -----------------------------------------------------------------
 Leave Link  602 at Wed Apr 26 14:40:21 2017, MaxMem=    33554432 cpu:         4.5
 (Enter /home/michal/g09/l9999.exe)

 Test job not archived.
 1\1\GINC-LINUX\SP\RHF\6-31G(d)\C27H46O3\MICHAL\26-Apr-2017\0\\#P HF/6-
 31G* SCF(Conver=6) NoSymm Test Pop=mk IOp(6/33=2) GFInput GFPrint\\MEP
  - Input generated by R.E.D.-III.x MOLECULE\\0,1\C,0,1.0139816,-0.8841
 0109,-1.68672964\H,0,1.14507048,0.08606496,-2.18154352\C,0,2.24936218,
 -1.75501179,-1.96526223\H,0,2.38828098,-1.86283712,-3.04548242\H,0,2.0
 4343275,-2.76291584,-1.57179151\C,0,3.50763924,-1.19596219,-1.3269607\
 C,0,3.43340993,-0.86848384,0.16968906\C,0,2.12903559,-0.05088068,0.422
 9901\H,0,2.26717795,0.95347531,0.\H,0,1.98866013,0.0827971,1.50104918\
 C,0,0.85529624,-0.66028315,-0.18284897\H,0,0.62046512,-1.62041047,0.30
 005301\H,0,0.,0.,0.\C,0,4.61036258,-1.01474293,-2.07009404\H,0,4.58286
 199,-1.26919763,-3.12802102\C,0,5.91137465,-0.47258829,-1.55239162\H,0
 ,6.75153715,-1.03657059,-1.9769523\C,0,5.99391928,-0.49565155,-0.01542
 019\H,0,6.14513091,-1.5526292,0.24548358\C,0,4.66315939,0.00271837,0.6
 0800581\H,0,4.49315029,1.00340744,0.1843406\C,0,4.77258244,0.17664659,
 2.14201216\H,0,4.77920931,-0.80356482,2.62939246\H,0,3.87937135,0.6910
 3966,2.51495768\C,0,6.018325,0.95665228,2.60995229\H,0,5.95367811,1.99
 7898,2.2633477\H,0,6.0119326,0.99110893,3.70414598\C,0,7.31979398,0.33
 533756,2.06327897\C,0,7.1804792,0.3231253,0.51538017\H,0,6.9823913,1.3
 6703372,0.23600736\C,0,8.59016957,0.,0.\H,0,8.74754,0.37130638,-1.0164
 4278\H,0,8.76126826,-1.08391168,-0.0231694\C,0,9.52410117,0.68711081,1
 .03495749\H,0,10.26940888,-0.02132685,1.41562638\H,0,10.08586132,1.510
 54172,0.58304805\C,0,8.61943604,1.20250526,2.2027752\H,0,8.31383473,2.
 23201705,1.96599039\C,0,7.54778558,-1.07332808,2.6567246\H,0,6.7495236
 9,-1.77252786,2.39466252\H,0,8.4879133,-1.5147036,2.31220772\H,0,7.589
 60725,-1.03004873,3.75033377\C,0,9.36742938,1.24068798,3.55858793\H,0,
 9.67718031,0.21086935,3.78927358\C,0,8.49997853,1.72994341,4.73373135\
 H,0,8.01322233,2.68633737,4.51230891\H,0,9.11479595,1.870229,5.6307793
 4\H,0,7.71495613,1.01362765,4.98905194\C,0,3.37131267,-2.20641045,0.95
 680753\H,0,3.11593452,-2.03853789,2.00726613\H,0,2.61666313,-2.8820021
 3,0.54718707\H,0,4.32950379,-2.73378083,0.91754405\O,0,6.09831658,0.91
 119258,-1.95926478\O,0,6.28206441,0.92504482,-3.40281928\H,0,5.4417495
 9,1.31779505,-3.69185306\O,0,-0.16368366,-1.42670378,-2.28935992\H,0,-
 0.35699606,-2.28106844,-1.87844212\C,0,10.68497679,2.06006603,3.484002
 34\H,0,11.19783795,1.93543846,4.44678717\H,0,11.34931198,1.613455,2.73
 31728\C,0,10.54012156,3.56051225,3.17885147\H,0,9.99399863,3.69048546,
 2.23599453\H,0,9.92584154,4.04369942,3.94841441\C,0,11.88242583,4.3047
 4584,3.04356796\H,0,11.67986225,5.3354878,2.71649418\H,0,12.45914631,3
 .83816511,2.23176869\C,0,12.77638107,4.36889015,4.30047889\H,0,12.9973
 9244,3.34070829,4.62073798\C,0,14.11635754,5.04241439,3.96305383\H,0,1
 3.96200728,6.07975914,3.63901419\H,0,14.78248607,5.06220084,4.83322313
 \H,0,14.63599982,4.51551797,3.15450039\C,0,12.09101593,5.0906586,5.471
 64861\H,0,11.8280685,6.11985721,5.1941515\H,0,12.75473352,5.14137985,6
 .3423579\H,0,11.17208859,4.5862731,5.78744905\\Version=EM64L-G09RevD.0
 1\HF=-1273.6828186\RMSD=5.535e-07\Dipole=-0.396491,-0.6362358,0.704904
 \Quadrupole=-10.4151323,8.2067636,2.2083687,-6.1578092,4.0980556,-0.99
 60965\PG=C01 [X(C27H46O3)]\\@


 BUT 'GLORY' DOESN'T MEAN 'A NICE KNOCK DOWN ARGUMENT', ALICE OBJECTED.
 WHEN I USE A WORD, HUMPTY DUMPTY SAID, IN A RATHER SCORNFUL TONE,
 IT MEANS JUST WHAT I CHOOSE IT TO MEAN....
 NEITHER MORE NOR LESS....
 THE QUESTION IS, SAID ALICE,
 WHETHER YOU CAN MAKE WORDS MEAN SO MANY DIFFERENT THINGS...
 THE QUESTION IS, SAID HUMPTY DUMPTY,
 WHICH IS TO BE MASTER....
 THAT IS ALL.....

 ALICE THROUGH THE LOOKING GLASS
 Job cpu time:       0 days  0 hours 12 minutes 38.6 seconds.
 File lengths (MBytes):  RWF=    159 Int=      0 D2E=      0 Chk=     11 Scr=      1
 Normal termination of Gaussian 09 at Wed Apr 26 14:40:21 2017.
