 Entering Gaussian System, Link 0=/home/michal/g09/g09
 Input=JOB2-gau_m1-14-4.com
 Output=JOB2-gau_m1-14-4.log
 Initial command:
 /home/michal/g09/l1.exe "/home/michal/gauss_scratch/Gau-11813.inp" -scrdir="/home/michal/gauss_scratch/"
 Entering Link 1 = /home/michal/g09/l1.exe PID=     11814.
  
 Copyright (c) 1988,1990,1992,1993,1995,1998,2003,2009,2013,
            Gaussian, Inc.  All Rights Reserved.
  
 This is part of the Gaussian(R) 09 program.  It is based on
 the Gaussian(R) 03 system (copyright 2003, Gaussian, Inc.),
 the Gaussian(R) 98 system (copyright 1998, Gaussian, Inc.),
 the Gaussian(R) 94 system (copyright 1995, Gaussian, Inc.),
 the Gaussian 92(TM) system (copyright 1992, Gaussian, Inc.),
 the Gaussian 90(TM) system (copyright 1990, Gaussian, Inc.),
 the Gaussian 88(TM) system (copyright 1988, Gaussian, Inc.),
 the Gaussian 86(TM) system (copyright 1986, Carnegie Mellon
 University), and the Gaussian 82(TM) system (copyright 1983,
 Carnegie Mellon University). Gaussian is a federally registered
 trademark of Gaussian, Inc.
  
 This software contains proprietary and confidential information,
 including trade secrets, belonging to Gaussian, Inc.
  
 This software is provided under written license and may be
 used, copied, transmitted, or stored only in accord with that
 written license.
  
 The following legend is applicable only to US Government
 contracts under FAR:
  
                    RESTRICTED RIGHTS LEGEND
  
 Use, reproduction and disclosure by the US Government is
 subject to restrictions as set forth in subparagraphs (a)
 and (c) of the Commercial Computer Software - Restricted
 Rights clause in FAR 52.227-19.
  
 Gaussian, Inc.
 340 Quinnipiac St., Bldg. 40, Wallingford CT 06492
  
  
 ---------------------------------------------------------------
 Warning -- This program may not be used in any manner that
 competes with the business of Gaussian, Inc. or will provide
 assistance to any competitor of Gaussian, Inc.  The licensee
 of this program is prohibited from giving any competitor of
 Gaussian, Inc. access to this program.  By using this program,
 the user acknowledges that Gaussian, Inc. is engaged in the
 business of creating and licensing software in the field of
 computational chemistry and represents and warrants to the
 licensee that it is not a competitor of Gaussian, Inc. and that
 it will not use this program in any manner prohibited above.
 ---------------------------------------------------------------
  

 Cite this work as:
 Gaussian 09, Revision D.01,
 M. J. Frisch, G. W. Trucks, H. B. Schlegel, G. E. Scuseria, 
 M. A. Robb, J. R. Cheeseman, G. Scalmani, V. Barone, B. Mennucci, 
 G. A. Petersson, H. Nakatsuji, M. Caricato, X. Li, H. P. Hratchian, 
 A. F. Izmaylov, J. Bloino, G. Zheng, J. L. Sonnenberg, M. Hada, 
 M. Ehara, K. Toyota, R. Fukuda, J. Hasegawa, M. Ishida, T. Nakajima, 
 Y. Honda, O. Kitao, H. Nakai, T. Vreven, J. A. Montgomery, Jr., 
 J. E. Peralta, F. Ogliaro, M. Bearpark, J. J. Heyd, E. Brothers, 
 K. N. Kudin, V. N. Staroverov, T. Keith, R. Kobayashi, J. Normand, 
 K. Raghavachari, A. Rendell, J. C. Burant, S. S. Iyengar, J. Tomasi, 
 M. Cossi, N. Rega, J. M. Millam, M. Klene, J. E. Knox, J. B. Cross, 
 V. Bakken, C. Adamo, J. Jaramillo, R. Gomperts, R. E. Stratmann, 
 O. Yazyev, A. J. Austin, R. Cammi, C. Pomelli, J. W. Ochterski, 
 R. L. Martin, K. Morokuma, V. G. Zakrzewski, G. A. Voth, 
 P. Salvador, J. J. Dannenberg, S. Dapprich, A. D. Daniels, 
 O. Farkas, J. B. Foresman, J. V. Ortiz, J. Cioslowski, 
 and D. J. Fox, Gaussian, Inc., Wallingford CT, 2013.
 
 ******************************************
 Gaussian 09:  EM64L-G09RevD.01 24-Apr-2013
                26-Apr-2017 
 ******************************************
 %Mem=256MB
 %NProc=12
 Will use up to   12 processors via shared memory.
 ----------------------------------------------------------------------
 #P HF/6-31G* SCF(Conver=6) NoSymm Test Pop=mk IOp(6/33=2) GFInput GFPr
 int
 ----------------------------------------------------------------------
 1/38=1/1;
 2/12=2,15=1,17=6,18=5,40=1/2;
 3/5=1,6=6,7=1,11=9,16=1,24=110,25=1,30=1/1,2,3;
 4//1;
 5/5=2,6=6,38=5/2;
 6/7=2,8=2,9=2,10=2,15=8,20=1,28=1,33=2/1,2;
 99/5=1,9=1/99;
 Leave Link    1 at Wed Apr 26 14:16:34 2017, MaxMem=    33554432 cpu:         0.6
 (Enter /home/michal/g09/l101.exe)
 ----------------------------------------------
 MEP - Input generated by R.E.D.-III.x MOLECULE
 ----------------------------------------------
 Symbolic Z-matrix:
 Charge =  0 Multiplicity = 1
 C                     1.01218  -0.82366  -1.71761 
 H                     1.11277   0.15895  -2.19399 
 C                     2.26524  -1.65764  -2.03091 
 H                     2.39335  -1.73628  -3.11492 
 H                     2.08987  -2.67893  -1.65791 
 C                     3.51439  -1.07974  -1.39405 
 C                     3.45491  -0.78958   0.10985 
 C                     2.13414  -0.01069   0.39844 
 H                     2.24346   1.00699   0. 
 H                     2.00367   0.09102   1.48112 
 C                     0.86794  -0.63612  -0.20739 
 H                     0.66075  -1.61183   0.25681 
 H                     0.        0.        0. 
 C                     4.59922  -0.84058  -2.14648 
 H                     4.56249  -1.03458  -3.21696 
 C                     5.877    -0.24983  -1.62821 
 H                     6.74106  -0.70139  -2.12788 
 C                     6.00221  -0.37515  -0.09758 
 H                     6.14699  -1.44807   0.09722 
 C                     4.67136   0.10087   0.54736 
 H                     4.48725   1.09753   0.12001 
 C                     4.76763   0.28919   2.07939 
 H                     4.75164  -0.6822    2.58369 
 H                     3.87987   0.82557   2.4339 
 C                     6.02104   1.05488   2.5455 
 H                     5.9797    2.09091   2.18015 
 H                     6.00707   1.1078    3.63882 
 C                     7.31084   0.39689   2.01977 
 C                     7.20638   0.39326   0.46637 
 H                     7.06146   1.44527   0.18231 
 C                     8.61744   0.        0. 
 H                     8.82442   0.34309  -1.01526 
 H                     8.7376   -1.09122   0.00593 
 C                     9.54946   0.66598   1.04967 
 H                     10.26681  -0.06      1.4507 
 H                     10.14296   1.46992   0.60289 
 C                     8.63548   1.21671   2.19363 
 H                     8.37397   2.2566    1.94919 
 C                     7.47933  -1.02214   2.61091 
 H                     6.6819   -1.7021    2.30047 
 H                     8.42675  -1.48052   2.31248 
 H                     7.46508  -0.98822   3.70581 
 C                     9.35107   1.23053   3.56765 
 H                     9.62194   0.19152   3.80604 
 C                     8.47414   1.74923   4.72287 
 H                     8.01876   2.71786   4.48831 
 H                     9.07453   1.87631   5.63167 
 H                     7.66451   1.05593   4.96433 
 C                     3.43548  -2.14612   0.86663 
 H                     3.20195  -2.0063    1.92616 
 H                     2.68263  -2.82548   0.45965 
 H                     4.40125  -2.65545   0.79366 
 O                     5.80771   1.13521  -2.08286 
 O                     7.16102   1.63567  -2.3399 
 H                     7.06854   1.87673  -3.27565 
 O                    -0.15923  -1.38469  -2.31592 
 H                    -0.33032  -2.2474   -1.91265 
 C                     10.69457   2.00714   3.5205 
 H                     11.18271   1.8844    4.49806 
 H                     11.36414   1.53201   2.79267 
 C                     10.61128   3.50928   3.20308 
 H                     10.14531   3.6531    2.22109 
 H                     9.95902   4.01076   3.93101 
 C                     11.99002   4.18696   3.22462 
 H                     12.63448   3.72674   2.45975 
 H                     12.46867   3.97359   4.1913 
 C                     11.98171   5.71474   3.01354 
 H                     11.3038   6.14964   3.76443 
 C                     13.38251   6.29983   3.2541 
 H                     14.10339   5.89678   2.5311 
 H                     13.38208   7.39076   3.14846 
 H                     13.74943   6.0597    4.25864 
 C                     11.46379   6.11647   1.62287 
 H                     12.09269   5.68281   0.8343 
 H                     11.48077   7.20531   1.49856 
 H                     10.43586   5.78178   1.45195 
 
 NAtoms=     76 NQM=       76 NQMF=       0 NMMI=      0 NMMIF=      0
                NMic=       0 NMicF=      0.
                    Isotopes and Nuclear Properties:
 (Nuclear quadrupole moments (NQMom) in fm**2, nuclear magnetic moments (NMagM)
  in nuclear magnetons)

  Atom         1           2           3           4           5           6           7           8           9          10
 IAtWgt=          12           1          12           1           1          12          12          12           1           1
 AtmWgt=  12.0000000   1.0078250  12.0000000   1.0078250   1.0078250  12.0000000  12.0000000  12.0000000   1.0078250   1.0078250
 NucSpn=           0           1           0           1           1           0           0           0           1           1
 AtZEff=   0.0000000   0.0000000   0.0000000   0.0000000   0.0000000   0.0000000   0.0000000   0.0000000   0.0000000   0.0000000
 NQMom=    0.0000000   0.0000000   0.0000000   0.0000000   0.0000000   0.0000000   0.0000000   0.0000000   0.0000000   0.0000000
 NMagM=    0.0000000   2.7928460   0.0000000   2.7928460   2.7928460   0.0000000   0.0000000   0.0000000   2.7928460   2.7928460
 AtZNuc=   6.0000000   1.0000000   6.0000000   1.0000000   1.0000000   6.0000000   6.0000000   6.0000000   1.0000000   1.0000000

  Atom        11          12          13          14          15          16          17          18          19          20
 IAtWgt=          12           1           1          12           1          12           1          12           1          12
 AtmWgt=  12.0000000   1.0078250   1.0078250  12.0000000   1.0078250  12.0000000   1.0078250  12.0000000   1.0078250  12.0000000
 NucSpn=           0           1           1           0           1           0           1           0           1           0
 AtZEff=   0.0000000   0.0000000   0.0000000   0.0000000   0.0000000   0.0000000   0.0000000   0.0000000   0.0000000   0.0000000
 NQMom=    0.0000000   0.0000000   0.0000000   0.0000000   0.0000000   0.0000000   0.0000000   0.0000000   0.0000000   0.0000000
 NMagM=    0.0000000   2.7928460   2.7928460   0.0000000   2.7928460   0.0000000   2.7928460   0.0000000   2.7928460   0.0000000
 AtZNuc=   6.0000000   1.0000000   1.0000000   6.0000000   1.0000000   6.0000000   1.0000000   6.0000000   1.0000000   6.0000000

  Atom        21          22          23          24          25          26          27          28          29          30
 IAtWgt=           1          12           1           1          12           1           1          12          12           1
 AtmWgt=   1.0078250  12.0000000   1.0078250   1.0078250  12.0000000   1.0078250   1.0078250  12.0000000  12.0000000   1.0078250
 NucSpn=           1           0           1           1           0           1           1           0           0           1
 AtZEff=   0.0000000   0.0000000   0.0000000   0.0000000   0.0000000   0.0000000   0.0000000   0.0000000   0.0000000   0.0000000
 NQMom=    0.0000000   0.0000000   0.0000000   0.0000000   0.0000000   0.0000000   0.0000000   0.0000000   0.0000000   0.0000000
 NMagM=    2.7928460   0.0000000   2.7928460   2.7928460   0.0000000   2.7928460   2.7928460   0.0000000   0.0000000   2.7928460
 AtZNuc=   1.0000000   6.0000000   1.0000000   1.0000000   6.0000000   1.0000000   1.0000000   6.0000000   6.0000000   1.0000000

  Atom        31          32          33          34          35          36          37          38          39          40
 IAtWgt=          12           1           1          12           1           1          12           1          12           1
 AtmWgt=  12.0000000   1.0078250   1.0078250  12.0000000   1.0078250   1.0078250  12.0000000   1.0078250  12.0000000   1.0078250
 NucSpn=           0           1           1           0           1           1           0           1           0           1
 AtZEff=   0.0000000   0.0000000   0.0000000   0.0000000   0.0000000   0.0000000   0.0000000   0.0000000   0.0000000   0.0000000
 NQMom=    0.0000000   0.0000000   0.0000000   0.0000000   0.0000000   0.0000000   0.0000000   0.0000000   0.0000000   0.0000000
 NMagM=    0.0000000   2.7928460   2.7928460   0.0000000   2.7928460   2.7928460   0.0000000   2.7928460   0.0000000   2.7928460
 AtZNuc=   6.0000000   1.0000000   1.0000000   6.0000000   1.0000000   1.0000000   6.0000000   1.0000000   6.0000000   1.0000000

  Atom        41          42          43          44          45          46          47          48          49          50
 IAtWgt=           1           1          12           1          12           1           1           1          12           1
 AtmWgt=   1.0078250   1.0078250  12.0000000   1.0078250  12.0000000   1.0078250   1.0078250   1.0078250  12.0000000   1.0078250
 NucSpn=           1           1           0           1           0           1           1           1           0           1
 AtZEff=   0.0000000   0.0000000   0.0000000   0.0000000   0.0000000   0.0000000   0.0000000   0.0000000   0.0000000   0.0000000
 NQMom=    0.0000000   0.0000000   0.0000000   0.0000000   0.0000000   0.0000000   0.0000000   0.0000000   0.0000000   0.0000000
 NMagM=    2.7928460   2.7928460   0.0000000   2.7928460   0.0000000   2.7928460   2.7928460   2.7928460   0.0000000   2.7928460
 AtZNuc=   1.0000000   1.0000000   6.0000000   1.0000000   6.0000000   1.0000000   1.0000000   1.0000000   6.0000000   1.0000000

  Atom        51          52          53          54          55          56          57          58          59          60
 IAtWgt=           1           1          16          16           1          16           1          12           1           1
 AtmWgt=   1.0078250   1.0078250  15.9949146  15.9949146   1.0078250  15.9949146   1.0078250  12.0000000   1.0078250   1.0078250
 NucSpn=           1           1           0           0           1           0           1           0           1           1
 AtZEff=   0.0000000   0.0000000   0.0000000   0.0000000   0.0000000   0.0000000   0.0000000   0.0000000   0.0000000   0.0000000
 NQMom=    0.0000000   0.0000000   0.0000000   0.0000000   0.0000000   0.0000000   0.0000000   0.0000000   0.0000000   0.0000000
 NMagM=    2.7928460   2.7928460   0.0000000   0.0000000   2.7928460   0.0000000   2.7928460   0.0000000   2.7928460   2.7928460
 AtZNuc=   1.0000000   1.0000000   8.0000000   8.0000000   1.0000000   8.0000000   1.0000000   6.0000000   1.0000000   1.0000000

  Atom        61          62          63          64          65          66          67          68          69          70
 IAtWgt=          12           1           1          12           1           1          12           1          12           1
 AtmWgt=  12.0000000   1.0078250   1.0078250  12.0000000   1.0078250   1.0078250  12.0000000   1.0078250  12.0000000   1.0078250
 NucSpn=           0           1           1           0           1           1           0           1           0           1
 AtZEff=   0.0000000   0.0000000   0.0000000   0.0000000   0.0000000   0.0000000   0.0000000   0.0000000   0.0000000   0.0000000
 NQMom=    0.0000000   0.0000000   0.0000000   0.0000000   0.0000000   0.0000000   0.0000000   0.0000000   0.0000000   0.0000000
 NMagM=    0.0000000   2.7928460   2.7928460   0.0000000   2.7928460   2.7928460   0.0000000   2.7928460   0.0000000   2.7928460
 AtZNuc=   6.0000000   1.0000000   1.0000000   6.0000000   1.0000000   1.0000000   6.0000000   1.0000000   6.0000000   1.0000000

  Atom        71          72          73          74          75          76
 IAtWgt=           1           1          12           1           1           1
 AtmWgt=   1.0078250   1.0078250  12.0000000   1.0078250   1.0078250   1.0078250
 NucSpn=           1           1           0           1           1           1
 AtZEff=   0.0000000   0.0000000   0.0000000   0.0000000   0.0000000   0.0000000
 NQMom=    0.0000000   0.0000000   0.0000000   0.0000000   0.0000000   0.0000000
 NMagM=    2.7928460   2.7928460   0.0000000   2.7928460   2.7928460   2.7928460
 AtZNuc=   1.0000000   1.0000000   6.0000000   1.0000000   1.0000000   1.0000000
 Leave Link  101 at Wed Apr 26 14:16:34 2017, MaxMem=    33554432 cpu:         1.0
 (Enter /home/michal/g09/l202.exe)
 Symmetry turned off by external request.
 Stoichiometry    C27H46O3
 Framework group  C1[X(C27H46O3)]
 Deg. of freedom   222
 Full point group                 C1      NOp   1
                          Input orientation:                          
 ---------------------------------------------------------------------
 Center     Atomic      Atomic             Coordinates (Angstroms)
 Number     Number       Type             X           Y           Z
 ---------------------------------------------------------------------
      1          6           0        1.012182   -0.823662   -1.717615
      2          1           0        1.112773    0.158945   -2.193988
      3          6           0        2.265238   -1.657642   -2.030906
      4          1           0        2.393354   -1.736275   -3.114918
      5          1           0        2.089865   -2.678927   -1.657908
      6          6           0        3.514394   -1.079742   -1.394046
      7          6           0        3.454906   -0.789583    0.109845
      8          6           0        2.134136   -0.010688    0.398445
      9          1           0        2.243462    1.006987    0.000000
     10          1           0        2.003674    0.091020    1.481120
     11          6           0        0.867942   -0.636122   -0.207389
     12          1           0        0.660752   -1.611830    0.256813
     13          1           0        0.000000    0.000000    0.000000
     14          6           0        4.599222   -0.840581   -2.146478
     15          1           0        4.562485   -1.034578   -3.216962
     16          6           0        5.876998   -0.249828   -1.628214
     17          1           0        6.741062   -0.701386   -2.127879
     18          6           0        6.002214   -0.375149   -0.097576
     19          1           0        6.146990   -1.448071    0.097217
     20          6           0        4.671363    0.100872    0.547362
     21          1           0        4.487248    1.097532    0.120015
     22          6           0        4.767629    0.289190    2.079385
     23          1           0        4.751643   -0.682205    2.583687
     24          1           0        3.879866    0.825567    2.433898
     25          6           0        6.021039    1.054879    2.545503
     26          1           0        5.979705    2.090905    2.180148
     27          1           0        6.007069    1.107804    3.638815
     28          6           0        7.310844    0.396888    2.019770
     29          6           0        7.206378    0.393258    0.466367
     30          1           0        7.061464    1.445267    0.182310
     31          6           0        8.617441    0.000000    0.000000
     32          1           0        8.824423    0.343087   -1.015259
     33          1           0        8.737604   -1.091216    0.005926
     34          6           0        9.549465    0.665982    1.049675
     35          1           0       10.266809   -0.059997    1.450704
     36          1           0       10.142956    1.469921    0.602891
     37          6           0        8.635477    1.216707    2.193631
     38          1           0        8.373969    2.256596    1.949187
     39          6           0        7.479334   -1.022137    2.610913
     40          1           0        6.681904   -1.702098    2.300468
     41          1           0        8.426751   -1.480522    2.312476
     42          1           0        7.465076   -0.988220    3.705810
     43          6           0        9.351067    1.230528    3.567654
     44          1           0        9.621941    0.191524    3.806044
     45          6           0        8.474140    1.749232    4.722866
     46          1           0        8.018756    2.717855    4.488306
     47          1           0        9.074534    1.876313    5.631674
     48          1           0        7.664512    1.055927    4.964330
     49          6           0        3.435481   -2.146117    0.866631
     50          1           0        3.201954   -2.006298    1.926160
     51          1           0        2.682628   -2.825481    0.459654
     52          1           0        4.401246   -2.655454    0.793663
     53          8           0        5.807705    1.135207   -2.082863
     54          8           0        7.161017    1.635669   -2.339895
     55          1           0        7.068541    1.876729   -3.275652
     56          8           0       -0.159227   -1.384693   -2.315916
     57          1           0       -0.330323   -2.247401   -1.912650
     58          6           0       10.694568    2.007137    3.520499
     59          1           0       11.182706    1.884399    4.498064
     60          1           0       11.364143    1.532011    2.792673
     61          6           0       10.611282    3.509283    3.203078
     62          1           0       10.145310    3.653100    2.221093
     63          1           0        9.959019    4.010759    3.931011
     64          6           0       11.990016    4.186956    3.224617
     65          1           0       12.634480    3.726741    2.459746
     66          1           0       12.468674    3.973592    4.191300
     67          6           0       11.981710    5.714736    3.013538
     68          1           0       11.303797    6.149638    3.764429
     69          6           0       13.382508    6.299834    3.254100
     70          1           0       14.103388    5.896781    2.531101
     71          1           0       13.382076    7.390763    3.148462
     72          1           0       13.749430    6.059695    4.258639
     73          6           0       11.463787    6.116473    1.622872
     74          1           0       12.092686    5.682805    0.834300
     75          1           0       11.480775    7.205307    1.498562
     76          1           0       10.435857    5.781782    1.451949
 ---------------------------------------------------------------------
 Rotational constants (GHZ):      0.3391582      0.0588781      0.0557596
 Leave Link  202 at Wed Apr 26 14:16:34 2017, MaxMem=    33554432 cpu:         0.3
 (Enter /home/michal/g09/l301.exe)
 Standard basis: 6-31G(d) (6D, 7F)
 Ernie: Thresh=  0.10000D-02 Tol=  0.10000D-05 Strict=F.
 AO basis set in the form of general basis input (Overlap normalization):
      1 0
 S   6 1.00       0.000000000000
      0.3047524880D+04  0.1834737132D-02
      0.4573695180D+03  0.1403732281D-01
      0.1039486850D+03  0.6884262226D-01
      0.2921015530D+02  0.2321844432D+00
      0.9286662960D+01  0.4679413484D+00
      0.3163926960D+01  0.3623119853D+00
 SP   3 1.00       0.000000000000
      0.7868272350D+01 -0.1193324198D+00  0.6899906659D-01
      0.1881288540D+01 -0.1608541517D+00  0.3164239610D+00
      0.5442492580D+00  0.1143456438D+01  0.7443082909D+00
 SP   1 1.00       0.000000000000
      0.1687144782D+00  0.1000000000D+01  0.1000000000D+01
 D   1 1.00       0.000000000000
      0.8000000000D+00  0.1000000000D+01
 ****
      2 0
 S   3 1.00       0.000000000000
      0.1873113696D+02  0.3349460434D-01
      0.2825394365D+01  0.2347269535D+00
      0.6401216923D+00  0.8137573261D+00
 S   1 1.00       0.000000000000
      0.1612777588D+00  0.1000000000D+01
 ****
      3 0
 S   6 1.00       0.000000000000
      0.3047524880D+04  0.1834737132D-02
      0.4573695180D+03  0.1403732281D-01
      0.1039486850D+03  0.6884262226D-01
      0.2921015530D+02  0.2321844432D+00
      0.9286662960D+01  0.4679413484D+00
      0.3163926960D+01  0.3623119853D+00
 SP   3 1.00       0.000000000000
      0.7868272350D+01 -0.1193324198D+00  0.6899906659D-01
      0.1881288540D+01 -0.1608541517D+00  0.3164239610D+00
      0.5442492580D+00  0.1143456438D+01  0.7443082909D+00
 SP   1 1.00       0.000000000000
      0.1687144782D+00  0.1000000000D+01  0.1000000000D+01
 D   1 1.00       0.000000000000
      0.8000000000D+00  0.1000000000D+01
 ****
      4 0
 S   3 1.00       0.000000000000
      0.1873113696D+02  0.3349460434D-01
      0.2825394365D+01  0.2347269535D+00
      0.6401216923D+00  0.8137573261D+00
 S   1 1.00       0.000000000000
      0.1612777588D+00  0.1000000000D+01
 ****
      5 0
 S   3 1.00       0.000000000000
      0.1873113696D+02  0.3349460434D-01
      0.2825394365D+01  0.2347269535D+00
      0.6401216923D+00  0.8137573261D+00
 S   1 1.00       0.000000000000
      0.1612777588D+00  0.1000000000D+01
 ****
      6 0
 S   6 1.00       0.000000000000
      0.3047524880D+04  0.1834737132D-02
      0.4573695180D+03  0.1403732281D-01
      0.1039486850D+03  0.6884262226D-01
      0.2921015530D+02  0.2321844432D+00
      0.9286662960D+01  0.4679413484D+00
      0.3163926960D+01  0.3623119853D+00
 SP   3 1.00       0.000000000000
      0.7868272350D+01 -0.1193324198D+00  0.6899906659D-01
      0.1881288540D+01 -0.1608541517D+00  0.3164239610D+00
      0.5442492580D+00  0.1143456438D+01  0.7443082909D+00
 SP   1 1.00       0.000000000000
      0.1687144782D+00  0.1000000000D+01  0.1000000000D+01
 D   1 1.00       0.000000000000
      0.8000000000D+00  0.1000000000D+01
 ****
      7 0
 S   6 1.00       0.000000000000
      0.3047524880D+04  0.1834737132D-02
      0.4573695180D+03  0.1403732281D-01
      0.1039486850D+03  0.6884262226D-01
      0.2921015530D+02  0.2321844432D+00
      0.9286662960D+01  0.4679413484D+00
      0.3163926960D+01  0.3623119853D+00
 SP   3 1.00       0.000000000000
      0.7868272350D+01 -0.1193324198D+00  0.6899906659D-01
      0.1881288540D+01 -0.1608541517D+00  0.3164239610D+00
      0.5442492580D+00  0.1143456438D+01  0.7443082909D+00
 SP   1 1.00       0.000000000000
      0.1687144782D+00  0.1000000000D+01  0.1000000000D+01
 D   1 1.00       0.000000000000
      0.8000000000D+00  0.1000000000D+01
 ****
      8 0
 S   6 1.00       0.000000000000
      0.3047524880D+04  0.1834737132D-02
      0.4573695180D+03  0.1403732281D-01
      0.1039486850D+03  0.6884262226D-01
      0.2921015530D+02  0.2321844432D+00
      0.9286662960D+01  0.4679413484D+00
      0.3163926960D+01  0.3623119853D+00
 SP   3 1.00       0.000000000000
      0.7868272350D+01 -0.1193324198D+00  0.6899906659D-01
      0.1881288540D+01 -0.1608541517D+00  0.3164239610D+00
      0.5442492580D+00  0.1143456438D+01  0.7443082909D+00
 SP   1 1.00       0.000000000000
      0.1687144782D+00  0.1000000000D+01  0.1000000000D+01
 D   1 1.00       0.000000000000
      0.8000000000D+00  0.1000000000D+01
 ****
      9 0
 S   3 1.00       0.000000000000
      0.1873113696D+02  0.3349460434D-01
      0.2825394365D+01  0.2347269535D+00
      0.6401216923D+00  0.8137573261D+00
 S   1 1.00       0.000000000000
      0.1612777588D+00  0.1000000000D+01
 ****
     10 0
 S   3 1.00       0.000000000000
      0.1873113696D+02  0.3349460434D-01
      0.2825394365D+01  0.2347269535D+00
      0.6401216923D+00  0.8137573261D+00
 S   1 1.00       0.000000000000
      0.1612777588D+00  0.1000000000D+01
 ****
     11 0
 S   6 1.00       0.000000000000
      0.3047524880D+04  0.1834737132D-02
      0.4573695180D+03  0.1403732281D-01
      0.1039486850D+03  0.6884262226D-01
      0.2921015530D+02  0.2321844432D+00
      0.9286662960D+01  0.4679413484D+00
      0.3163926960D+01  0.3623119853D+00
 SP   3 1.00       0.000000000000
      0.7868272350D+01 -0.1193324198D+00  0.6899906659D-01
      0.1881288540D+01 -0.1608541517D+00  0.3164239610D+00
      0.5442492580D+00  0.1143456438D+01  0.7443082909D+00
 SP   1 1.00       0.000000000000
      0.1687144782D+00  0.1000000000D+01  0.1000000000D+01
 D   1 1.00       0.000000000000
      0.8000000000D+00  0.1000000000D+01
 ****
     12 0
 S   3 1.00       0.000000000000
      0.1873113696D+02  0.3349460434D-01
      0.2825394365D+01  0.2347269535D+00
      0.6401216923D+00  0.8137573261D+00
 S   1 1.00       0.000000000000
      0.1612777588D+00  0.1000000000D+01
 ****
     13 0
 S   3 1.00       0.000000000000
      0.1873113696D+02  0.3349460434D-01
      0.2825394365D+01  0.2347269535D+00
      0.6401216923D+00  0.8137573261D+00
 S   1 1.00       0.000000000000
      0.1612777588D+00  0.1000000000D+01
 ****
     14 0
 S   6 1.00       0.000000000000
      0.3047524880D+04  0.1834737132D-02
      0.4573695180D+03  0.1403732281D-01
      0.1039486850D+03  0.6884262226D-01
      0.2921015530D+02  0.2321844432D+00
      0.9286662960D+01  0.4679413484D+00
      0.3163926960D+01  0.3623119853D+00
 SP   3 1.00       0.000000000000
      0.7868272350D+01 -0.1193324198D+00  0.6899906659D-01
      0.1881288540D+01 -0.1608541517D+00  0.3164239610D+00
      0.5442492580D+00  0.1143456438D+01  0.7443082909D+00
 SP   1 1.00       0.000000000000
      0.1687144782D+00  0.1000000000D+01  0.1000000000D+01
 D   1 1.00       0.000000000000
      0.8000000000D+00  0.1000000000D+01
 ****
     15 0
 S   3 1.00       0.000000000000
      0.1873113696D+02  0.3349460434D-01
      0.2825394365D+01  0.2347269535D+00
      0.6401216923D+00  0.8137573261D+00
 S   1 1.00       0.000000000000
      0.1612777588D+00  0.1000000000D+01
 ****
     16 0
 S   6 1.00       0.000000000000
      0.3047524880D+04  0.1834737132D-02
      0.4573695180D+03  0.1403732281D-01
      0.1039486850D+03  0.6884262226D-01
      0.2921015530D+02  0.2321844432D+00
      0.9286662960D+01  0.4679413484D+00
      0.3163926960D+01  0.3623119853D+00
 SP   3 1.00       0.000000000000
      0.7868272350D+01 -0.1193324198D+00  0.6899906659D-01
      0.1881288540D+01 -0.1608541517D+00  0.3164239610D+00
      0.5442492580D+00  0.1143456438D+01  0.7443082909D+00
 SP   1 1.00       0.000000000000
      0.1687144782D+00  0.1000000000D+01  0.1000000000D+01
 D   1 1.00       0.000000000000
      0.8000000000D+00  0.1000000000D+01
 ****
     17 0
 S   3 1.00       0.000000000000
      0.1873113696D+02  0.3349460434D-01
      0.2825394365D+01  0.2347269535D+00
      0.6401216923D+00  0.8137573261D+00
 S   1 1.00       0.000000000000
      0.1612777588D+00  0.1000000000D+01
 ****
     18 0
 S   6 1.00       0.000000000000
      0.3047524880D+04  0.1834737132D-02
      0.4573695180D+03  0.1403732281D-01
      0.1039486850D+03  0.6884262226D-01
      0.2921015530D+02  0.2321844432D+00
      0.9286662960D+01  0.4679413484D+00
      0.3163926960D+01  0.3623119853D+00
 SP   3 1.00       0.000000000000
      0.7868272350D+01 -0.1193324198D+00  0.6899906659D-01
      0.1881288540D+01 -0.1608541517D+00  0.3164239610D+00
      0.5442492580D+00  0.1143456438D+01  0.7443082909D+00
 SP   1 1.00       0.000000000000
      0.1687144782D+00  0.1000000000D+01  0.1000000000D+01
 D   1 1.00       0.000000000000
      0.8000000000D+00  0.1000000000D+01
 ****
     19 0
 S   3 1.00       0.000000000000
      0.1873113696D+02  0.3349460434D-01
      0.2825394365D+01  0.2347269535D+00
      0.6401216923D+00  0.8137573261D+00
 S   1 1.00       0.000000000000
      0.1612777588D+00  0.1000000000D+01
 ****
     20 0
 S   6 1.00       0.000000000000
      0.3047524880D+04  0.1834737132D-02
      0.4573695180D+03  0.1403732281D-01
      0.1039486850D+03  0.6884262226D-01
      0.2921015530D+02  0.2321844432D+00
      0.9286662960D+01  0.4679413484D+00
      0.3163926960D+01  0.3623119853D+00
 SP   3 1.00       0.000000000000
      0.7868272350D+01 -0.1193324198D+00  0.6899906659D-01
      0.1881288540D+01 -0.1608541517D+00  0.3164239610D+00
      0.5442492580D+00  0.1143456438D+01  0.7443082909D+00
 SP   1 1.00       0.000000000000
      0.1687144782D+00  0.1000000000D+01  0.1000000000D+01
 D   1 1.00       0.000000000000
      0.8000000000D+00  0.1000000000D+01
 ****
     21 0
 S   3 1.00       0.000000000000
      0.1873113696D+02  0.3349460434D-01
      0.2825394365D+01  0.2347269535D+00
      0.6401216923D+00  0.8137573261D+00
 S   1 1.00       0.000000000000
      0.1612777588D+00  0.1000000000D+01
 ****
     22 0
 S   6 1.00       0.000000000000
      0.3047524880D+04  0.1834737132D-02
      0.4573695180D+03  0.1403732281D-01
      0.1039486850D+03  0.6884262226D-01
      0.2921015530D+02  0.2321844432D+00
      0.9286662960D+01  0.4679413484D+00
      0.3163926960D+01  0.3623119853D+00
 SP   3 1.00       0.000000000000
      0.7868272350D+01 -0.1193324198D+00  0.6899906659D-01
      0.1881288540D+01 -0.1608541517D+00  0.3164239610D+00
      0.5442492580D+00  0.1143456438D+01  0.7443082909D+00
 SP   1 1.00       0.000000000000
      0.1687144782D+00  0.1000000000D+01  0.1000000000D+01
 D   1 1.00       0.000000000000
      0.8000000000D+00  0.1000000000D+01
 ****
     23 0
 S   3 1.00       0.000000000000
      0.1873113696D+02  0.3349460434D-01
      0.2825394365D+01  0.2347269535D+00
      0.6401216923D+00  0.8137573261D+00
 S   1 1.00       0.000000000000
      0.1612777588D+00  0.1000000000D+01
 ****
     24 0
 S   3 1.00       0.000000000000
      0.1873113696D+02  0.3349460434D-01
      0.2825394365D+01  0.2347269535D+00
      0.6401216923D+00  0.8137573261D+00
 S   1 1.00       0.000000000000
      0.1612777588D+00  0.1000000000D+01
 ****
     25 0
 S   6 1.00       0.000000000000
      0.3047524880D+04  0.1834737132D-02
      0.4573695180D+03  0.1403732281D-01
      0.1039486850D+03  0.6884262226D-01
      0.2921015530D+02  0.2321844432D+00
      0.9286662960D+01  0.4679413484D+00
      0.3163926960D+01  0.3623119853D+00
 SP   3 1.00       0.000000000000
      0.7868272350D+01 -0.1193324198D+00  0.6899906659D-01
      0.1881288540D+01 -0.1608541517D+00  0.3164239610D+00
      0.5442492580D+00  0.1143456438D+01  0.7443082909D+00
 SP   1 1.00       0.000000000000
      0.1687144782D+00  0.1000000000D+01  0.1000000000D+01
 D   1 1.00       0.000000000000
      0.8000000000D+00  0.1000000000D+01
 ****
     26 0
 S   3 1.00       0.000000000000
      0.1873113696D+02  0.3349460434D-01
      0.2825394365D+01  0.2347269535D+00
      0.6401216923D+00  0.8137573261D+00
 S   1 1.00       0.000000000000
      0.1612777588D+00  0.1000000000D+01
 ****
     27 0
 S   3 1.00       0.000000000000
      0.1873113696D+02  0.3349460434D-01
      0.2825394365D+01  0.2347269535D+00
      0.6401216923D+00  0.8137573261D+00
 S   1 1.00       0.000000000000
      0.1612777588D+00  0.1000000000D+01
 ****
     28 0
 S   6 1.00       0.000000000000
      0.3047524880D+04  0.1834737132D-02
      0.4573695180D+03  0.1403732281D-01
      0.1039486850D+03  0.6884262226D-01
      0.2921015530D+02  0.2321844432D+00
      0.9286662960D+01  0.4679413484D+00
      0.3163926960D+01  0.3623119853D+00
 SP   3 1.00       0.000000000000
      0.7868272350D+01 -0.1193324198D+00  0.6899906659D-01
      0.1881288540D+01 -0.1608541517D+00  0.3164239610D+00
      0.5442492580D+00  0.1143456438D+01  0.7443082909D+00
 SP   1 1.00       0.000000000000
      0.1687144782D+00  0.1000000000D+01  0.1000000000D+01
 D   1 1.00       0.000000000000
      0.8000000000D+00  0.1000000000D+01
 ****
     29 0
 S   6 1.00       0.000000000000
      0.3047524880D+04  0.1834737132D-02
      0.4573695180D+03  0.1403732281D-01
      0.1039486850D+03  0.6884262226D-01
      0.2921015530D+02  0.2321844432D+00
      0.9286662960D+01  0.4679413484D+00
      0.3163926960D+01  0.3623119853D+00
 SP   3 1.00       0.000000000000
      0.7868272350D+01 -0.1193324198D+00  0.6899906659D-01
      0.1881288540D+01 -0.1608541517D+00  0.3164239610D+00
      0.5442492580D+00  0.1143456438D+01  0.7443082909D+00
 SP   1 1.00       0.000000000000
      0.1687144782D+00  0.1000000000D+01  0.1000000000D+01
 D   1 1.00       0.000000000000
      0.8000000000D+00  0.1000000000D+01
 ****
     30 0
 S   3 1.00       0.000000000000
      0.1873113696D+02  0.3349460434D-01
      0.2825394365D+01  0.2347269535D+00
      0.6401216923D+00  0.8137573261D+00
 S   1 1.00       0.000000000000
      0.1612777588D+00  0.1000000000D+01
 ****
     31 0
 S   6 1.00       0.000000000000
      0.3047524880D+04  0.1834737132D-02
      0.4573695180D+03  0.1403732281D-01
      0.1039486850D+03  0.6884262226D-01
      0.2921015530D+02  0.2321844432D+00
      0.9286662960D+01  0.4679413484D+00
      0.3163926960D+01  0.3623119853D+00
 SP   3 1.00       0.000000000000
      0.7868272350D+01 -0.1193324198D+00  0.6899906659D-01
      0.1881288540D+01 -0.1608541517D+00  0.3164239610D+00
      0.5442492580D+00  0.1143456438D+01  0.7443082909D+00
 SP   1 1.00       0.000000000000
      0.1687144782D+00  0.1000000000D+01  0.1000000000D+01
 D   1 1.00       0.000000000000
      0.8000000000D+00  0.1000000000D+01
 ****
     32 0
 S   3 1.00       0.000000000000
      0.1873113696D+02  0.3349460434D-01
      0.2825394365D+01  0.2347269535D+00
      0.6401216923D+00  0.8137573261D+00
 S   1 1.00       0.000000000000
      0.1612777588D+00  0.1000000000D+01
 ****
     33 0
 S   3 1.00       0.000000000000
      0.1873113696D+02  0.3349460434D-01
      0.2825394365D+01  0.2347269535D+00
      0.6401216923D+00  0.8137573261D+00
 S   1 1.00       0.000000000000
      0.1612777588D+00  0.1000000000D+01
 ****
     34 0
 S   6 1.00       0.000000000000
      0.3047524880D+04  0.1834737132D-02
      0.4573695180D+03  0.1403732281D-01
      0.1039486850D+03  0.6884262226D-01
      0.2921015530D+02  0.2321844432D+00
      0.9286662960D+01  0.4679413484D+00
      0.3163926960D+01  0.3623119853D+00
 SP   3 1.00       0.000000000000
      0.7868272350D+01 -0.1193324198D+00  0.6899906659D-01
      0.1881288540D+01 -0.1608541517D+00  0.3164239610D+00
      0.5442492580D+00  0.1143456438D+01  0.7443082909D+00
 SP   1 1.00       0.000000000000
      0.1687144782D+00  0.1000000000D+01  0.1000000000D+01
 D   1 1.00       0.000000000000
      0.8000000000D+00  0.1000000000D+01
 ****
     35 0
 S   3 1.00       0.000000000000
      0.1873113696D+02  0.3349460434D-01
      0.2825394365D+01  0.2347269535D+00
      0.6401216923D+00  0.8137573261D+00
 S   1 1.00       0.000000000000
      0.1612777588D+00  0.1000000000D+01
 ****
     36 0
 S   3 1.00       0.000000000000
      0.1873113696D+02  0.3349460434D-01
      0.2825394365D+01  0.2347269535D+00
      0.6401216923D+00  0.8137573261D+00
 S   1 1.00       0.000000000000
      0.1612777588D+00  0.1000000000D+01
 ****
     37 0
 S   6 1.00       0.000000000000
      0.3047524880D+04  0.1834737132D-02
      0.4573695180D+03  0.1403732281D-01
      0.1039486850D+03  0.6884262226D-01
      0.2921015530D+02  0.2321844432D+00
      0.9286662960D+01  0.4679413484D+00
      0.3163926960D+01  0.3623119853D+00
 SP   3 1.00       0.000000000000
      0.7868272350D+01 -0.1193324198D+00  0.6899906659D-01
      0.1881288540D+01 -0.1608541517D+00  0.3164239610D+00
      0.5442492580D+00  0.1143456438D+01  0.7443082909D+00
 SP   1 1.00       0.000000000000
      0.1687144782D+00  0.1000000000D+01  0.1000000000D+01
 D   1 1.00       0.000000000000
      0.8000000000D+00  0.1000000000D+01
 ****
     38 0
 S   3 1.00       0.000000000000
      0.1873113696D+02  0.3349460434D-01
      0.2825394365D+01  0.2347269535D+00
      0.6401216923D+00  0.8137573261D+00
 S   1 1.00       0.000000000000
      0.1612777588D+00  0.1000000000D+01
 ****
     39 0
 S   6 1.00       0.000000000000
      0.3047524880D+04  0.1834737132D-02
      0.4573695180D+03  0.1403732281D-01
      0.1039486850D+03  0.6884262226D-01
      0.2921015530D+02  0.2321844432D+00
      0.9286662960D+01  0.4679413484D+00
      0.3163926960D+01  0.3623119853D+00
 SP   3 1.00       0.000000000000
      0.7868272350D+01 -0.1193324198D+00  0.6899906659D-01
      0.1881288540D+01 -0.1608541517D+00  0.3164239610D+00
      0.5442492580D+00  0.1143456438D+01  0.7443082909D+00
 SP   1 1.00       0.000000000000
      0.1687144782D+00  0.1000000000D+01  0.1000000000D+01
 D   1 1.00       0.000000000000
      0.8000000000D+00  0.1000000000D+01
 ****
     40 0
 S   3 1.00       0.000000000000
      0.1873113696D+02  0.3349460434D-01
      0.2825394365D+01  0.2347269535D+00
      0.6401216923D+00  0.8137573261D+00
 S   1 1.00       0.000000000000
      0.1612777588D+00  0.1000000000D+01
 ****
     41 0
 S   3 1.00       0.000000000000
      0.1873113696D+02  0.3349460434D-01
      0.2825394365D+01  0.2347269535D+00
      0.6401216923D+00  0.8137573261D+00
 S   1 1.00       0.000000000000
      0.1612777588D+00  0.1000000000D+01
 ****
     42 0
 S   3 1.00       0.000000000000
      0.1873113696D+02  0.3349460434D-01
      0.2825394365D+01  0.2347269535D+00
      0.6401216923D+00  0.8137573261D+00
 S   1 1.00       0.000000000000
      0.1612777588D+00  0.1000000000D+01
 ****
     43 0
 S   6 1.00       0.000000000000
      0.3047524880D+04  0.1834737132D-02
      0.4573695180D+03  0.1403732281D-01
      0.1039486850D+03  0.6884262226D-01
      0.2921015530D+02  0.2321844432D+00
      0.9286662960D+01  0.4679413484D+00
      0.3163926960D+01  0.3623119853D+00
 SP   3 1.00       0.000000000000
      0.7868272350D+01 -0.1193324198D+00  0.6899906659D-01
      0.1881288540D+01 -0.1608541517D+00  0.3164239610D+00
      0.5442492580D+00  0.1143456438D+01  0.7443082909D+00
 SP   1 1.00       0.000000000000
      0.1687144782D+00  0.1000000000D+01  0.1000000000D+01
 D   1 1.00       0.000000000000
      0.8000000000D+00  0.1000000000D+01
 ****
     44 0
 S   3 1.00       0.000000000000
      0.1873113696D+02  0.3349460434D-01
      0.2825394365D+01  0.2347269535D+00
      0.6401216923D+00  0.8137573261D+00
 S   1 1.00       0.000000000000
      0.1612777588D+00  0.1000000000D+01
 ****
     45 0
 S   6 1.00       0.000000000000
      0.3047524880D+04  0.1834737132D-02
      0.4573695180D+03  0.1403732281D-01
      0.1039486850D+03  0.6884262226D-01
      0.2921015530D+02  0.2321844432D+00
      0.9286662960D+01  0.4679413484D+00
      0.3163926960D+01  0.3623119853D+00
 SP   3 1.00       0.000000000000
      0.7868272350D+01 -0.1193324198D+00  0.6899906659D-01
      0.1881288540D+01 -0.1608541517D+00  0.3164239610D+00
      0.5442492580D+00  0.1143456438D+01  0.7443082909D+00
 SP   1 1.00       0.000000000000
      0.1687144782D+00  0.1000000000D+01  0.1000000000D+01
 D   1 1.00       0.000000000000
      0.8000000000D+00  0.1000000000D+01
 ****
     46 0
 S   3 1.00       0.000000000000
      0.1873113696D+02  0.3349460434D-01
      0.2825394365D+01  0.2347269535D+00
      0.6401216923D+00  0.8137573261D+00
 S   1 1.00       0.000000000000
      0.1612777588D+00  0.1000000000D+01
 ****
     47 0
 S   3 1.00       0.000000000000
      0.1873113696D+02  0.3349460434D-01
      0.2825394365D+01  0.2347269535D+00
      0.6401216923D+00  0.8137573261D+00
 S   1 1.00       0.000000000000
      0.1612777588D+00  0.1000000000D+01
 ****
     48 0
 S   3 1.00       0.000000000000
      0.1873113696D+02  0.3349460434D-01
      0.2825394365D+01  0.2347269535D+00
      0.6401216923D+00  0.8137573261D+00
 S   1 1.00       0.000000000000
      0.1612777588D+00  0.1000000000D+01
 ****
     49 0
 S   6 1.00       0.000000000000
      0.3047524880D+04  0.1834737132D-02
      0.4573695180D+03  0.1403732281D-01
      0.1039486850D+03  0.6884262226D-01
      0.2921015530D+02  0.2321844432D+00
      0.9286662960D+01  0.4679413484D+00
      0.3163926960D+01  0.3623119853D+00
 SP   3 1.00       0.000000000000
      0.7868272350D+01 -0.1193324198D+00  0.6899906659D-01
      0.1881288540D+01 -0.1608541517D+00  0.3164239610D+00
      0.5442492580D+00  0.1143456438D+01  0.7443082909D+00
 SP   1 1.00       0.000000000000
      0.1687144782D+00  0.1000000000D+01  0.1000000000D+01
 D   1 1.00       0.000000000000
      0.8000000000D+00  0.1000000000D+01
 ****
     50 0
 S   3 1.00       0.000000000000
      0.1873113696D+02  0.3349460434D-01
      0.2825394365D+01  0.2347269535D+00
      0.6401216923D+00  0.8137573261D+00
 S   1 1.00       0.000000000000
      0.1612777588D+00  0.1000000000D+01
 ****
     51 0
 S   3 1.00       0.000000000000
      0.1873113696D+02  0.3349460434D-01
      0.2825394365D+01  0.2347269535D+00
      0.6401216923D+00  0.8137573261D+00
 S   1 1.00       0.000000000000
      0.1612777588D+00  0.1000000000D+01
 ****
     52 0
 S   3 1.00       0.000000000000
      0.1873113696D+02  0.3349460434D-01
      0.2825394365D+01  0.2347269535D+00
      0.6401216923D+00  0.8137573261D+00
 S   1 1.00       0.000000000000
      0.1612777588D+00  0.1000000000D+01
 ****
     53 0
 S   6 1.00       0.000000000000
      0.5484671660D+04  0.1831074430D-02
      0.8252349460D+03  0.1395017220D-01
      0.1880469580D+03  0.6844507810D-01
      0.5296450000D+02  0.2327143360D+00
      0.1689757040D+02  0.4701928980D+00
      0.5799635340D+01  0.3585208530D+00
 SP   3 1.00       0.000000000000
      0.1553961625D+02 -0.1107775495D+00  0.7087426823D-01
      0.3599933586D+01 -0.1480262627D+00  0.3397528391D+00
      0.1013761750D+01  0.1130767015D+01  0.7271585773D+00
 SP   1 1.00       0.000000000000
      0.2700058226D+00  0.1000000000D+01  0.1000000000D+01
 D   1 1.00       0.000000000000
      0.8000000000D+00  0.1000000000D+01
 ****
     54 0
 S   6 1.00       0.000000000000
      0.5484671660D+04  0.1831074430D-02
      0.8252349460D+03  0.1395017220D-01
      0.1880469580D+03  0.6844507810D-01
      0.5296450000D+02  0.2327143360D+00
      0.1689757040D+02  0.4701928980D+00
      0.5799635340D+01  0.3585208530D+00
 SP   3 1.00       0.000000000000
      0.1553961625D+02 -0.1107775495D+00  0.7087426823D-01
      0.3599933586D+01 -0.1480262627D+00  0.3397528391D+00
      0.1013761750D+01  0.1130767015D+01  0.7271585773D+00
 SP   1 1.00       0.000000000000
      0.2700058226D+00  0.1000000000D+01  0.1000000000D+01
 D   1 1.00       0.000000000000
      0.8000000000D+00  0.1000000000D+01
 ****
     55 0
 S   3 1.00       0.000000000000
      0.1873113696D+02  0.3349460434D-01
      0.2825394365D+01  0.2347269535D+00
      0.6401216923D+00  0.8137573261D+00
 S   1 1.00       0.000000000000
      0.1612777588D+00  0.1000000000D+01
 ****
     56 0
 S   6 1.00       0.000000000000
      0.5484671660D+04  0.1831074430D-02
      0.8252349460D+03  0.1395017220D-01
      0.1880469580D+03  0.6844507810D-01
      0.5296450000D+02  0.2327143360D+00
      0.1689757040D+02  0.4701928980D+00
      0.5799635340D+01  0.3585208530D+00
 SP   3 1.00       0.000000000000
      0.1553961625D+02 -0.1107775495D+00  0.7087426823D-01
      0.3599933586D+01 -0.1480262627D+00  0.3397528391D+00
      0.1013761750D+01  0.1130767015D+01  0.7271585773D+00
 SP   1 1.00       0.000000000000
      0.2700058226D+00  0.1000000000D+01  0.1000000000D+01
 D   1 1.00       0.000000000000
      0.8000000000D+00  0.1000000000D+01
 ****
     57 0
 S   3 1.00       0.000000000000
      0.1873113696D+02  0.3349460434D-01
      0.2825394365D+01  0.2347269535D+00
      0.6401216923D+00  0.8137573261D+00
 S   1 1.00       0.000000000000
      0.1612777588D+00  0.1000000000D+01
 ****
     58 0
 S   6 1.00       0.000000000000
      0.3047524880D+04  0.1834737132D-02
      0.4573695180D+03  0.1403732281D-01
      0.1039486850D+03  0.6884262226D-01
      0.2921015530D+02  0.2321844432D+00
      0.9286662960D+01  0.4679413484D+00
      0.3163926960D+01  0.3623119853D+00
 SP   3 1.00       0.000000000000
      0.7868272350D+01 -0.1193324198D+00  0.6899906659D-01
      0.1881288540D+01 -0.1608541517D+00  0.3164239610D+00
      0.5442492580D+00  0.1143456438D+01  0.7443082909D+00
 SP   1 1.00       0.000000000000
      0.1687144782D+00  0.1000000000D+01  0.1000000000D+01
 D   1 1.00       0.000000000000
      0.8000000000D+00  0.1000000000D+01
 ****
     59 0
 S   3 1.00       0.000000000000
      0.1873113696D+02  0.3349460434D-01
      0.2825394365D+01  0.2347269535D+00
      0.6401216923D+00  0.8137573261D+00
 S   1 1.00       0.000000000000
      0.1612777588D+00  0.1000000000D+01
 ****
     60 0
 S   3 1.00       0.000000000000
      0.1873113696D+02  0.3349460434D-01
      0.2825394365D+01  0.2347269535D+00
      0.6401216923D+00  0.8137573261D+00
 S   1 1.00       0.000000000000
      0.1612777588D+00  0.1000000000D+01
 ****
     61 0
 S   6 1.00       0.000000000000
      0.3047524880D+04  0.1834737132D-02
      0.4573695180D+03  0.1403732281D-01
      0.1039486850D+03  0.6884262226D-01
      0.2921015530D+02  0.2321844432D+00
      0.9286662960D+01  0.4679413484D+00
      0.3163926960D+01  0.3623119853D+00
 SP   3 1.00       0.000000000000
      0.7868272350D+01 -0.1193324198D+00  0.6899906659D-01
      0.1881288540D+01 -0.1608541517D+00  0.3164239610D+00
      0.5442492580D+00  0.1143456438D+01  0.7443082909D+00
 SP   1 1.00       0.000000000000
      0.1687144782D+00  0.1000000000D+01  0.1000000000D+01
 D   1 1.00       0.000000000000
      0.8000000000D+00  0.1000000000D+01
 ****
     62 0
 S   3 1.00       0.000000000000
      0.1873113696D+02  0.3349460434D-01
      0.2825394365D+01  0.2347269535D+00
      0.6401216923D+00  0.8137573261D+00
 S   1 1.00       0.000000000000
      0.1612777588D+00  0.1000000000D+01
 ****
     63 0
 S   3 1.00       0.000000000000
      0.1873113696D+02  0.3349460434D-01
      0.2825394365D+01  0.2347269535D+00
      0.6401216923D+00  0.8137573261D+00
 S   1 1.00       0.000000000000
      0.1612777588D+00  0.1000000000D+01
 ****
     64 0
 S   6 1.00       0.000000000000
      0.3047524880D+04  0.1834737132D-02
      0.4573695180D+03  0.1403732281D-01
      0.1039486850D+03  0.6884262226D-01
      0.2921015530D+02  0.2321844432D+00
      0.9286662960D+01  0.4679413484D+00
      0.3163926960D+01  0.3623119853D+00
 SP   3 1.00       0.000000000000
      0.7868272350D+01 -0.1193324198D+00  0.6899906659D-01
      0.1881288540D+01 -0.1608541517D+00  0.3164239610D+00
      0.5442492580D+00  0.1143456438D+01  0.7443082909D+00
 SP   1 1.00       0.000000000000
      0.1687144782D+00  0.1000000000D+01  0.1000000000D+01
 D   1 1.00       0.000000000000
      0.8000000000D+00  0.1000000000D+01
 ****
     65 0
 S   3 1.00       0.000000000000
      0.1873113696D+02  0.3349460434D-01
      0.2825394365D+01  0.2347269535D+00
      0.6401216923D+00  0.8137573261D+00
 S   1 1.00       0.000000000000
      0.1612777588D+00  0.1000000000D+01
 ****
     66 0
 S   3 1.00       0.000000000000
      0.1873113696D+02  0.3349460434D-01
      0.2825394365D+01  0.2347269535D+00
      0.6401216923D+00  0.8137573261D+00
 S   1 1.00       0.000000000000
      0.1612777588D+00  0.1000000000D+01
 ****
     67 0
 S   6 1.00       0.000000000000
      0.3047524880D+04  0.1834737132D-02
      0.4573695180D+03  0.1403732281D-01
      0.1039486850D+03  0.6884262226D-01
      0.2921015530D+02  0.2321844432D+00
      0.9286662960D+01  0.4679413484D+00
      0.3163926960D+01  0.3623119853D+00
 SP   3 1.00       0.000000000000
      0.7868272350D+01 -0.1193324198D+00  0.6899906659D-01
      0.1881288540D+01 -0.1608541517D+00  0.3164239610D+00
      0.5442492580D+00  0.1143456438D+01  0.7443082909D+00
 SP   1 1.00       0.000000000000
      0.1687144782D+00  0.1000000000D+01  0.1000000000D+01
 D   1 1.00       0.000000000000
      0.8000000000D+00  0.1000000000D+01
 ****
     68 0
 S   3 1.00       0.000000000000
      0.1873113696D+02  0.3349460434D-01
      0.2825394365D+01  0.2347269535D+00
      0.6401216923D+00  0.8137573261D+00
 S   1 1.00       0.000000000000
      0.1612777588D+00  0.1000000000D+01
 ****
     69 0
 S   6 1.00       0.000000000000
      0.3047524880D+04  0.1834737132D-02
      0.4573695180D+03  0.1403732281D-01
      0.1039486850D+03  0.6884262226D-01
      0.2921015530D+02  0.2321844432D+00
      0.9286662960D+01  0.4679413484D+00
      0.3163926960D+01  0.3623119853D+00
 SP   3 1.00       0.000000000000
      0.7868272350D+01 -0.1193324198D+00  0.6899906659D-01
      0.1881288540D+01 -0.1608541517D+00  0.3164239610D+00
      0.5442492580D+00  0.1143456438D+01  0.7443082909D+00
 SP   1 1.00       0.000000000000
      0.1687144782D+00  0.1000000000D+01  0.1000000000D+01
 D   1 1.00       0.000000000000
      0.8000000000D+00  0.1000000000D+01
 ****
     70 0
 S   3 1.00       0.000000000000
      0.1873113696D+02  0.3349460434D-01
      0.2825394365D+01  0.2347269535D+00
      0.6401216923D+00  0.8137573261D+00
 S   1 1.00       0.000000000000
      0.1612777588D+00  0.1000000000D+01
 ****
     71 0
 S   3 1.00       0.000000000000
      0.1873113696D+02  0.3349460434D-01
      0.2825394365D+01  0.2347269535D+00
      0.6401216923D+00  0.8137573261D+00
 S   1 1.00       0.000000000000
      0.1612777588D+00  0.1000000000D+01
 ****
     72 0
 S   3 1.00       0.000000000000
      0.1873113696D+02  0.3349460434D-01
      0.2825394365D+01  0.2347269535D+00
      0.6401216923D+00  0.8137573261D+00
 S   1 1.00       0.000000000000
      0.1612777588D+00  0.1000000000D+01
 ****
     73 0
 S   6 1.00       0.000000000000
      0.3047524880D+04  0.1834737132D-02
      0.4573695180D+03  0.1403732281D-01
      0.1039486850D+03  0.6884262226D-01
      0.2921015530D+02  0.2321844432D+00
      0.9286662960D+01  0.4679413484D+00
      0.3163926960D+01  0.3623119853D+00
 SP   3 1.00       0.000000000000
      0.7868272350D+01 -0.1193324198D+00  0.6899906659D-01
      0.1881288540D+01 -0.1608541517D+00  0.3164239610D+00
      0.5442492580D+00  0.1143456438D+01  0.7443082909D+00
 SP   1 1.00       0.000000000000
      0.1687144782D+00  0.1000000000D+01  0.1000000000D+01
 D   1 1.00       0.000000000000
      0.8000000000D+00  0.1000000000D+01
 ****
     74 0
 S   3 1.00       0.000000000000
      0.1873113696D+02  0.3349460434D-01
      0.2825394365D+01  0.2347269535D+00
      0.6401216923D+00  0.8137573261D+00
 S   1 1.00       0.000000000000
      0.1612777588D+00  0.1000000000D+01
 ****
     75 0
 S   3 1.00       0.000000000000
      0.1873113696D+02  0.3349460434D-01
      0.2825394365D+01  0.2347269535D+00
      0.6401216923D+00  0.8137573261D+00
 S   1 1.00       0.000000000000
      0.1612777588D+00  0.1000000000D+01
 ****
     76 0
 S   3 1.00       0.000000000000
      0.1873113696D+02  0.3349460434D-01
      0.2825394365D+01  0.2347269535D+00
      0.6401216923D+00  0.8137573261D+00
 S   1 1.00       0.000000000000
      0.1612777588D+00  0.1000000000D+01
 ****

 AO basis set (Overlap normalization):
 Atom C1       Shell     1 S   6     bf    1 -     1          1.912747381349         -1.556495984010         -3.245821592688
      0.3047524880D+04  0.1834737132D-02
      0.4573695180D+03  0.1403732281D-01
      0.1039486850D+03  0.6884262226D-01
      0.2921015530D+02  0.2321844432D+00
      0.9286662960D+01  0.4679413484D+00
      0.3163926960D+01  0.3623119853D+00
 Atom C1       Shell     2 SP   3    bf    2 -     5          1.912747381349         -1.556495984010         -3.245821592688
      0.7868272350D+01 -0.1193324198D+00  0.6899906659D-01
      0.1881288540D+01 -0.1608541517D+00  0.3164239610D+00
      0.5442492580D+00  0.1143456438D+01  0.7443082909D+00
 Atom C1       Shell     3 SP   1    bf    6 -     9          1.912747381349         -1.556495984010         -3.245821592688
      0.1687144782D+00  0.1000000000D+01  0.1000000000D+01
 Atom C1       Shell     4 D   1     bf   10 -    15          1.912747381349         -1.556495984010         -3.245821592688
      0.8000000000D+00  0.1000000000D+01
 Atom H2       Shell     5 S   3     bf   16 -    16          2.102836936165          0.300363446157         -4.146036761194
      0.1873113696D+02  0.3349460434D-01
      0.2825394365D+01  0.2347269535D+00
      0.6401216923D+00  0.8137573261D+00
 Atom H2       Shell     6 S   1     bf   17 -    17          2.102836936165          0.300363446157         -4.146036761194
      0.1612777588D+00  0.1000000000D+01
 Atom C3       Shell     7 S   6     bf   18 -    18          4.280679105655         -3.132490105567         -3.837856897525
      0.3047524880D+04  0.1834737132D-02
      0.4573695180D+03  0.1403732281D-01
      0.1039486850D+03  0.6884262226D-01
      0.2921015530D+02  0.2321844432D+00
      0.9286662960D+01  0.4679413484D+00
      0.3163926960D+01  0.3623119853D+00
 Atom C3       Shell     8 SP   3    bf   19 -    22          4.280679105655         -3.132490105567         -3.837856897525
      0.7868272350D+01 -0.1193324198D+00  0.6899906659D-01
      0.1881288540D+01 -0.1608541517D+00  0.3164239610D+00
      0.5442492580D+00  0.1143456438D+01  0.7443082909D+00
 Atom C3       Shell     9 SP   1    bf   23 -    26          4.280679105655         -3.132490105567         -3.837856897525
      0.1687144782D+00  0.1000000000D+01  0.1000000000D+01
 Atom C3       Shell    10 D   1     bf   27 -    32          4.280679105655         -3.132490105567         -3.837856897525
      0.8000000000D+00  0.1000000000D+01
 Atom H4       Shell    11 S   3     bf   33 -    33          4.522783277793         -3.281084770499         -5.886342664492
      0.1873113696D+02  0.3349460434D-01
      0.2825394365D+01  0.2347269535D+00
      0.6401216923D+00  0.8137573261D+00
 Atom H4       Shell    12 S   1     bf   34 -    34          4.522783277793         -3.281084770499         -5.886342664492
      0.1612777588D+00  0.1000000000D+01
 Atom H5       Shell    13 S   3     bf   35 -    35          3.949273052724         -5.062439210370         -3.132992375876
      0.1873113696D+02  0.3349460434D-01
      0.2825394365D+01  0.2347269535D+00
      0.6401216923D+00  0.8137573261D+00
 Atom H5       Shell    14 S   1     bf   36 -    36          3.949273052724         -5.062439210370         -3.132992375876
      0.1612777588D+00  0.1000000000D+01
 Atom C6       Shell    15 S   6     bf   37 -    37          6.641242107467         -2.040417184400         -2.634366063713
      0.3047524880D+04  0.1834737132D-02
      0.4573695180D+03  0.1403732281D-01
      0.1039486850D+03  0.6884262226D-01
      0.2921015530D+02  0.2321844432D+00
      0.9286662960D+01  0.4679413484D+00
      0.3163926960D+01  0.3623119853D+00
 Atom C6       Shell    16 SP   3    bf   38 -    41          6.641242107467         -2.040417184400         -2.634366063713
      0.7868272350D+01 -0.1193324198D+00  0.6899906659D-01
      0.1881288540D+01 -0.1608541517D+00  0.3164239610D+00
      0.5442492580D+00  0.1143456438D+01  0.7443082909D+00
 Atom C6       Shell    17 SP   1    bf   42 -    45          6.641242107467         -2.040417184400         -2.634366063713
      0.1687144782D+00  0.1000000000D+01  0.1000000000D+01
 Atom C6       Shell    18 D   1     bf   46 -    51          6.641242107467         -2.040417184400         -2.634366063713
      0.8000000000D+00  0.1000000000D+01
 Atom C7       Shell    19 S   6     bf   52 -    52          6.528825946994         -1.492095232340          0.207577118245
      0.3047524880D+04  0.1834737132D-02
      0.4573695180D+03  0.1403732281D-01
      0.1039486850D+03  0.6884262226D-01
      0.2921015530D+02  0.2321844432D+00
      0.9286662960D+01  0.4679413484D+00
      0.3163926960D+01  0.3623119853D+00
 Atom C7       Shell    20 SP   3    bf   53 -    56          6.528825946994         -1.492095232340          0.207577118245
      0.7868272350D+01 -0.1193324198D+00  0.6899906659D-01
      0.1881288540D+01 -0.1608541517D+00  0.3164239610D+00
      0.5442492580D+00  0.1143456438D+01  0.7443082909D+00
 Atom C7       Shell    21 SP   1    bf   57 -    60          6.528825946994         -1.492095232340          0.207577118245
      0.1687144782D+00  0.1000000000D+01  0.1000000000D+01
 Atom C7       Shell    22 D   1     bf   61 -    66          6.528825946994         -1.492095232340          0.207577118245
      0.8000000000D+00  0.1000000000D+01
 Atom C8       Shell    23 S   6     bf   67 -    67          4.032932664818         -0.020197789751          0.752951551072
      0.3047524880D+04  0.1834737132D-02
      0.4573695180D+03  0.1403732281D-01
      0.1039486850D+03  0.6884262226D-01
      0.2921015530D+02  0.2321844432D+00
      0.9286662960D+01  0.4679413484D+00
      0.3163926960D+01  0.3623119853D+00
 Atom C8       Shell    24 SP   3    bf   68 -    71          4.032932664818         -0.020197789751          0.752951551072
      0.7868272350D+01 -0.1193324198D+00  0.6899906659D-01
      0.1881288540D+01 -0.1608541517D+00  0.3164239610D+00
      0.5442492580D+00  0.1143456438D+01  0.7443082909D+00
 Atom C8       Shell    25 SP   1    bf   72 -    75          4.032932664818         -0.020197789751          0.752951551072
      0.1687144782D+00  0.1000000000D+01  0.1000000000D+01
 Atom C8       Shell    26 D   1     bf   76 -    81          4.032932664818         -0.020197789751          0.752951551072
      0.8000000000D+00  0.1000000000D+01
 Atom H9       Shell    27 S   3     bf   82 -    82          4.239527862467          1.902929195842          0.000000000000
      0.1873113696D+02  0.3349460434D-01
      0.2825394365D+01  0.2347269535D+00
      0.6401216923D+00  0.8137573261D+00
 Atom H9       Shell    28 S   1     bf   83 -    83          4.239527862467          1.902929195842          0.000000000000
      0.1612777588D+00  0.1000000000D+01
 Atom H10      Shell    29 S   3     bf   84 -    84          3.786394439282          0.172002702540          2.798910867583
      0.1873113696D+02  0.3349460434D-01
      0.2825394365D+01  0.2347269535D+00
      0.6401216923D+00  0.8137573261D+00
 Atom H10      Shell    30 S   1     bf   85 -    85          3.786394439282          0.172002702540          2.798910867583
      0.1612777588D+00  0.1000000000D+01
 Atom C11      Shell    31 S   6     bf   86 -    86          1.640172206797         -1.202096291514         -0.391908923199
      0.3047524880D+04  0.1834737132D-02
      0.4573695180D+03  0.1403732281D-01
      0.1039486850D+03  0.6884262226D-01
      0.2921015530D+02  0.2321844432D+00
      0.9286662960D+01  0.4679413484D+00
      0.3163926960D+01  0.3623119853D+00
 Atom C11      Shell    32 SP   3    bf   87 -    90          1.640172206797         -1.202096291514         -0.391908923199
      0.7868272350D+01 -0.1193324198D+00  0.6899906659D-01
      0.1881288540D+01 -0.1608541517D+00  0.3164239610D+00
      0.5442492580D+00  0.1143456438D+01  0.7443082909D+00
 Atom C11      Shell    33 SP   1    bf   91 -    94          1.640172206797         -1.202096291514         -0.391908923199
      0.1687144782D+00  0.1000000000D+01  0.1000000000D+01
 Atom C11      Shell    34 D   1     bf   95 -   100          1.640172206797         -1.202096291514         -0.391908923199
      0.8000000000D+00  0.1000000000D+01
 Atom H12      Shell    35 S   3     bf  101 -   101          1.248639471380         -3.045916894824          0.485307012152
      0.1873113696D+02  0.3349460434D-01
      0.2825394365D+01  0.2347269535D+00
      0.6401216923D+00  0.8137573261D+00
 Atom H12      Shell    36 S   1     bf  102 -   102          1.248639471380         -3.045916894824          0.485307012152
      0.1612777588D+00  0.1000000000D+01
 Atom H13      Shell    37 S   3     bf  103 -   103          0.000000000000          0.000000000000          0.000000000000
      0.1873113696D+02  0.3349460434D-01
      0.2825394365D+01  0.2347269535D+00
      0.6401216923D+00  0.8137573261D+00
 Atom H13      Shell    38 S   1     bf  104 -   104          0.000000000000          0.000000000000          0.000000000000
      0.1612777588D+00  0.1000000000D+01
 Atom C14      Shell    39 S   6     bf  105 -   105          8.691269078377         -1.588468392733         -4.056254795476
      0.3047524880D+04  0.1834737132D-02
      0.4573695180D+03  0.1403732281D-01
      0.1039486850D+03  0.6884262226D-01
      0.2921015530D+02  0.2321844432D+00
      0.9286662960D+01  0.4679413484D+00
      0.3163926960D+01  0.3623119853D+00
 Atom C14      Shell    40 SP   3    bf  106 -   109          8.691269078377         -1.588468392733         -4.056254795476
      0.7868272350D+01 -0.1193324198D+00  0.6899906659D-01
      0.1881288540D+01 -0.1608541517D+00  0.3164239610D+00
      0.5442492580D+00  0.1143456438D+01  0.7443082909D+00
 Atom C14      Shell    41 SP   1    bf  110 -   113          8.691269078377         -1.588468392733         -4.056254795476
      0.1687144782D+00  0.1000000000D+01  0.1000000000D+01
 Atom C14      Shell    42 D   1     bf  114 -   119          8.691269078377         -1.588468392733         -4.056254795476
      0.8000000000D+00  0.1000000000D+01
 Atom H15      Shell    43 S   3     bf  120 -   120          8.621848004673         -1.955068988622         -6.079176933133
      0.1873113696D+02  0.3349460434D-01
      0.2825394365D+01  0.2347269535D+00
      0.6401216923D+00  0.8137573261D+00
 Atom H15      Shell    44 S   1     bf  121 -   121          8.621848004673         -1.955068988622         -6.079176933133
      0.1612777588D+00  0.1000000000D+01
 Atom C16      Shell    45 S   6     bf  122 -   122         11.105917138154         -0.472106708196         -3.076878243374
      0.3047524880D+04  0.1834737132D-02
      0.4573695180D+03  0.1403732281D-01
      0.1039486850D+03  0.6884262226D-01
      0.2921015530D+02  0.2321844432D+00
      0.9286662960D+01  0.4679413484D+00
      0.3163926960D+01  0.3623119853D+00
 Atom C16      Shell    46 SP   3    bf  123 -   126         11.105917138154         -0.472106708196         -3.076878243374
      0.7868272350D+01 -0.1193324198D+00  0.6899906659D-01
      0.1881288540D+01 -0.1608541517D+00  0.3164239610D+00
      0.5442492580D+00  0.1143456438D+01  0.7443082909D+00
 Atom C16      Shell    47 SP   1    bf  127 -   130         11.105917138154         -0.472106708196         -3.076878243374
      0.1687144782D+00  0.1000000000D+01  0.1000000000D+01
 Atom C16      Shell    48 D   1     bf  131 -   136         11.105917138154         -0.472106708196         -3.076878243374
      0.8000000000D+00  0.1000000000D+01
 Atom H17      Shell    49 S   3     bf  137 -   137         12.738761308261         -1.325426640858         -4.021107760234
      0.1873113696D+02  0.3349460434D-01
      0.2825394365D+01  0.2347269535D+00
      0.6401216923D+00  0.8137573261D+00
 Atom H17      Shell    50 S   1     bf  138 -   138         12.738761308261         -1.325426640858         -4.021107760234
      0.1612777588D+00  0.1000000000D+01
 Atom C18      Shell    51 S   6     bf  139 -   139         11.342539970671         -0.708928736745         -0.184392673033
      0.3047524880D+04  0.1834737132D-02
      0.4573695180D+03  0.1403732281D-01
      0.1039486850D+03  0.6884262226D-01
      0.2921015530D+02  0.2321844432D+00
      0.9286662960D+01  0.4679413484D+00
      0.3163926960D+01  0.3623119853D+00
 Atom C18      Shell    52 SP   3    bf  140 -   143         11.342539970671         -0.708928736745         -0.184392673033
      0.7868272350D+01 -0.1193324198D+00  0.6899906659D-01
      0.1881288540D+01 -0.1608541517D+00  0.3164239610D+00
      0.5442492580D+00  0.1143456438D+01  0.7443082909D+00
 Atom C18      Shell    53 SP   1    bf  144 -   147         11.342539970671         -0.708928736745         -0.184392673033
      0.1687144782D+00  0.1000000000D+01  0.1000000000D+01
 Atom C18      Shell    54 D   1     bf  148 -   153         11.342539970671         -0.708928736745         -0.184392673033
      0.8000000000D+00  0.1000000000D+01
 Atom H19      Shell    55 S   3     bf  154 -   154         11.616127773868         -2.736456703905          0.183713562153
      0.1873113696D+02  0.3349460434D-01
      0.2825394365D+01  0.2347269535D+00
      0.6401216923D+00  0.8137573261D+00
 Atom H19      Shell    56 S   1     bf  155 -   155         11.616127773868         -2.736456703905          0.183713562153
      0.1612777588D+00  0.1000000000D+01
 Atom C20      Shell    57 S   6     bf  156 -   156          8.827596151480          0.190620189915          1.034363689733
      0.3047524880D+04  0.1834737132D-02
      0.4573695180D+03  0.1403732281D-01
      0.1039486850D+03  0.6884262226D-01
      0.2921015530D+02  0.2321844432D+00
      0.9286662960D+01  0.4679413484D+00
      0.3163926960D+01  0.3623119853D+00
 Atom C20      Shell    58 SP   3    bf  157 -   160          8.827596151480          0.190620189915          1.034363689733
      0.7868272350D+01 -0.1193324198D+00  0.6899906659D-01
      0.1881288540D+01 -0.1608541517D+00  0.3164239610D+00
      0.5442492580D+00  0.1143456438D+01  0.7443082909D+00
 Atom C20      Shell    59 SP   1    bf  161 -   164          8.827596151480          0.190620189915          1.034363689733
      0.1687144782D+00  0.1000000000D+01  0.1000000000D+01
 Atom C20      Shell    60 D   1     bf  165 -   170          8.827596151480          0.190620189915          1.034363689733
      0.8000000000D+00  0.1000000000D+01
 Atom H21      Shell    61 S   3     bf  171 -   171          8.479670112695          2.074035657969          0.226794612564
      0.1873113696D+02  0.3349460434D-01
      0.2825394365D+01  0.2347269535D+00
      0.6401216923D+00  0.8137573261D+00
 Atom H21      Shell    62 S   1     bf  172 -   172          8.479670112695          2.074035657969          0.226794612564
      0.1612777588D+00  0.1000000000D+01
 Atom C22      Shell    63 S   6     bf  173 -   173          9.009513831299          0.546490542876          3.929468458289
      0.3047524880D+04  0.1834737132D-02
      0.4573695180D+03  0.1403732281D-01
      0.1039486850D+03  0.6884262226D-01
      0.2921015530D+02  0.2321844432D+00
      0.9286662960D+01  0.4679413484D+00
      0.3163926960D+01  0.3623119853D+00
 Atom C22      Shell    64 SP   3    bf  174 -   177          9.009513831299          0.546490542876          3.929468458289
      0.7868272350D+01 -0.1193324198D+00  0.6899906659D-01
      0.1881288540D+01 -0.1608541517D+00  0.3164239610D+00
      0.5442492580D+00  0.1143456438D+01  0.7443082909D+00
 Atom C22      Shell    65 SP   1    bf  178 -   181          9.009513831299          0.546490542876          3.929468458289
      0.1687144782D+00  0.1000000000D+01  0.1000000000D+01
 Atom C22      Shell    66 D   1     bf  182 -   187          9.009513831299          0.546490542876          3.929468458289
      0.8000000000D+00  0.1000000000D+01
 Atom H23      Shell    67 S   3     bf  188 -   188          8.979303894551         -1.289180295232          4.882461032070
      0.1873113696D+02  0.3349460434D-01
      0.2825394365D+01  0.2347269535D+00
      0.6401216923D+00  0.8137573261D+00
 Atom H23      Shell    68 S   1     bf  189 -   189          8.979303894551         -1.289180295232          4.882461032070
      0.1612777588D+00  0.1000000000D+01
 Atom H24      Shell    69 S   3     bf  190 -   190          7.331884777007          1.560095061916          4.599400145152
      0.1873113696D+02  0.3349460434D-01
      0.2825394365D+01  0.2347269535D+00
      0.6401216923D+00  0.8137573261D+00
 Atom H24      Shell    70 S   1     bf  191 -   191          7.331884777007          1.560095061916          4.599400145152
      0.1612777588D+00  0.1000000000D+01
 Atom C25      Shell    71 S   6     bf  192 -   192         11.378114613143          1.993432942456          4.810303143596
      0.3047524880D+04  0.1834737132D-02
      0.4573695180D+03  0.1403732281D-01
      0.1039486850D+03  0.6884262226D-01
      0.2921015530D+02  0.2321844432D+00
      0.9286662960D+01  0.4679413484D+00
      0.3163926960D+01  0.3623119853D+00
 Atom C25      Shell    72 SP   3    bf  193 -   196         11.378114613143          1.993432942456          4.810303143596
      0.7868272350D+01 -0.1193324198D+00  0.6899906659D-01
      0.1881288540D+01 -0.1608541517D+00  0.3164239610D+00
      0.5442492580D+00  0.1143456438D+01  0.7443082909D+00
 Atom C25      Shell    73 SP   1    bf  197 -   200         11.378114613143          1.993432942456          4.810303143596
      0.1687144782D+00  0.1000000000D+01  0.1000000000D+01
 Atom C25      Shell    74 D   1     bf  201 -   206         11.378114613143          1.993432942456          4.810303143596
      0.8000000000D+00  0.1000000000D+01
 Atom H26      Shell    75 S   3     bf  207 -   207         11.300004333015          3.951238141135          4.119882913720
      0.1873113696D+02  0.3349460434D-01
      0.2825394365D+01  0.2347269535D+00
      0.6401216923D+00  0.8137573261D+00
 Atom H26      Shell    76 S   1     bf  208 -   208         11.300004333015          3.951238141135          4.119882913720
      0.1612777588D+00  0.1000000000D+01
 Atom H27      Shell    77 S   3     bf  209 -   209         11.351714326484          2.093445639792          6.876364251771
      0.1873113696D+02  0.3349460434D-01
      0.2825394365D+01  0.2347269535D+00
      0.6401216923D+00  0.8137573261D+00
 Atom H27      Shell    78 S   1     bf  210 -   210         11.351714326484          2.093445639792          6.876364251771
      0.1612777588D+00  0.1000000000D+01
 Atom C28      Shell    79 S   6     bf  211 -   211         13.815492053182          0.750009323073          3.816811319939
      0.3047524880D+04  0.1834737132D-02
      0.4573695180D+03  0.1403732281D-01
      0.1039486850D+03  0.6884262226D-01
      0.2921015530D+02  0.2321844432D+00
      0.9286662960D+01  0.4679413484D+00
      0.3163926960D+01  0.3623119853D+00
 Atom C28      Shell    80 SP   3    bf  212 -   215         13.815492053182          0.750009323073          3.816811319939
      0.7868272350D+01 -0.1193324198D+00  0.6899906659D-01
      0.1881288540D+01 -0.1608541517D+00  0.3164239610D+00
      0.5442492580D+00  0.1143456438D+01  0.7443082909D+00
 Atom C28      Shell    81 SP   1    bf  216 -   219         13.815492053182          0.750009323073          3.816811319939
      0.1687144782D+00  0.1000000000D+01  0.1000000000D+01
 Atom C28      Shell    82 D   1     bf  220 -   225         13.815492053182          0.750009323073          3.816811319939
      0.8000000000D+00  0.1000000000D+01
 Atom C29      Shell    83 S   6     bf  226 -   226         13.618080830052          0.743150486484          0.881306814484
      0.3047524880D+04  0.1834737132D-02
      0.4573695180D+03  0.1403732281D-01
      0.1039486850D+03  0.6884262226D-01
      0.2921015530D+02  0.2321844432D+00
      0.9286662960D+01  0.4679413484D+00
      0.3163926960D+01  0.3623119853D+00
 Atom C29      Shell    84 SP   3    bf  227 -   230         13.618080830052          0.743150486484          0.881306814484
      0.7868272350D+01 -0.1193324198D+00  0.6899906659D-01
      0.1881288540D+01 -0.1608541517D+00  0.3164239610D+00
      0.5442492580D+00  0.1143456438D+01  0.7443082909D+00
 Atom C29      Shell    85 SP   1    bf  231 -   234         13.618080830052          0.743150486484          0.881306814484
      0.1687144782D+00  0.1000000000D+01  0.1000000000D+01
 Atom C29      Shell    86 D   1     bf  235 -   240         13.618080830052          0.743150486484          0.881306814484
      0.8000000000D+00  0.1000000000D+01
 Atom H30      Shell    87 S   3     bf  241 -   241         13.344232282443          2.731159385815          0.344516802766
      0.1873113696D+02  0.3349460434D-01
      0.2825394365D+01  0.2347269535D+00
      0.6401216923D+00  0.8137573261D+00
 Atom H30      Shell    88 S   1     bf  242 -   242         13.344232282443          2.731159385815          0.344516802766
      0.1612777588D+00  0.1000000000D+01
 Atom C31      Shell    89 S   6     bf  243 -   243         16.284604212191          0.000000000000          0.000000000000
      0.3047524880D+04  0.1834737132D-02
      0.4573695180D+03  0.1403732281D-01
      0.1039486850D+03  0.6884262226D-01
      0.2921015530D+02  0.2321844432D+00
      0.9286662960D+01  0.4679413484D+00
      0.3163926960D+01  0.3623119853D+00
 Atom C31      Shell    90 SP   3    bf  244 -   247         16.284604212191          0.000000000000          0.000000000000
      0.7868272350D+01 -0.1193324198D+00  0.6899906659D-01
      0.1881288540D+01 -0.1608541517D+00  0.3164239610D+00
      0.5442492580D+00  0.1143456438D+01  0.7443082909D+00
 Atom C31      Shell    91 SP   1    bf  248 -   251         16.284604212191          0.000000000000          0.000000000000
      0.1687144782D+00  0.1000000000D+01  0.1000000000D+01
 Atom C31      Shell    92 D   1     bf  252 -   257         16.284604212191          0.000000000000          0.000000000000
      0.8000000000D+00  0.1000000000D+01
 Atom H32      Shell    93 S   3     bf  258 -   258         16.675742259408          0.648340753212         -1.918561426153
      0.1873113696D+02  0.3349460434D-01
      0.2825394365D+01  0.2347269535D+00
      0.6401216923D+00  0.8137573261D+00
 Atom H32      Shell    94 S   1     bf  259 -   259         16.675742259408          0.648340753212         -1.918561426153
      0.1612777588D+00  0.1000000000D+01
 Atom H33      Shell    95 S   3     bf  260 -   260         16.511679373497         -2.062100317789          0.011198573755
      0.1873113696D+02  0.3349460434D-01
      0.2825394365D+01  0.2347269535D+00
      0.6401216923D+00  0.8137573261D+00
 Atom H33      Shell    96 S   1     bf  261 -   261         16.511679373497         -2.062100317789          0.011198573755
      0.1612777588D+00  0.1000000000D+01
 Atom C34      Shell    97 S   6     bf  262 -   262         18.045873244323          1.258522833541          1.983597465955
      0.3047524880D+04  0.1834737132D-02
      0.4573695180D+03  0.1403732281D-01
      0.1039486850D+03  0.6884262226D-01
      0.2921015530D+02  0.2321844432D+00
      0.9286662960D+01  0.4679413484D+00
      0.3163926960D+01  0.3623119853D+00
 Atom C34      Shell    98 SP   3    bf  263 -   266         18.045873244323          1.258522833541          1.983597465955
      0.7868272350D+01 -0.1193324198D+00  0.6899906659D-01
      0.1881288540D+01 -0.1608541517D+00  0.3164239610D+00
      0.5442492580D+00  0.1143456438D+01  0.7443082909D+00
 Atom C34      Shell    99 SP   1    bf  267 -   270         18.045873244323          1.258522833541          1.983597465955
      0.1687144782D+00  0.1000000000D+01  0.1000000000D+01
 Atom C34      Shell   100 D   1     bf  271 -   276         18.045873244323          1.258522833541          1.983597465955
      0.8000000000D+00  0.1000000000D+01
 Atom H35      Shell   101 S   3     bf  277 -   277         19.401457930050         -0.113377690925          2.741432957526
      0.1873113696D+02  0.3349460434D-01
      0.2825394365D+01  0.2347269535D+00
      0.6401216923D+00  0.8137573261D+00
 Atom H35      Shell   102 S   1     bf  278 -   278         19.401457930050         -0.113377690925          2.741432957526
      0.1612777588D+00  0.1000000000D+01
 Atom H36      Shell   103 S   3     bf  279 -   279         19.167408545478          2.777747484471          1.139298632317
      0.1873113696D+02  0.3349460434D-01
      0.2825394365D+01  0.2347269535D+00
      0.6401216923D+00  0.8137573261D+00
 Atom H36      Shell   104 S   1     bf  280 -   280         19.167408545478          2.777747484471          1.139298632317
      0.1612777588D+00  0.1000000000D+01
 Atom C37      Shell   105 S   6     bf  281 -   281         16.318686500141          2.299243902136          4.145361467560
      0.3047524880D+04  0.1834737132D-02
      0.4573695180D+03  0.1403732281D-01
      0.1039486850D+03  0.6884262226D-01
      0.2921015530D+02  0.2321844432D+00
      0.9286662960D+01  0.4679413484D+00
      0.3163926960D+01  0.3623119853D+00
 Atom C37      Shell   106 SP   3    bf  282 -   285         16.318686500141          2.299243902136          4.145361467560
      0.7868272350D+01 -0.1193324198D+00  0.6899906659D-01
      0.1881288540D+01 -0.1608541517D+00  0.3164239610D+00
      0.5442492580D+00  0.1143456438D+01  0.7443082909D+00
[...]
 1609 Fit      -0.005321
 1610 Fit       0.000155
 1611 Fit      -0.002167
 1612 Fit      -0.001587
 1613 Fit       0.000416
 1614 Fit       0.001111
 1615 Fit      -0.000290
 1616 Fit      -0.002532
 1617 Fit      -0.004431
 1618 Fit      -0.004586
 1619 Fit      -0.002505
 1620 Fit      -0.000132
 1621 Fit      -0.001905
 1622 Fit       0.000599
 1623 Fit      -0.001213
 1624 Fit       0.000710
 1625 Fit       0.001104
 1626 Fit       0.000223
 1627 Fit      -0.001822
 1628 Fit      -0.002478
 1629 Fit      -0.000466
 1630 Fit      -0.000282
 1631 Fit      -0.001865
 1632 Fit      -0.002789
 1633 Fit      -0.003009
 1634 Fit      -0.001901
 1635 Fit      -0.001995
 1636 Fit      -0.003262
 1637 Fit      -0.001735
 1638 Fit      -0.000987
 1639 Fit      -0.004172
 1640 Fit      -0.002806
 1641 Fit      -0.002657
 1642 Fit      -0.002301
 1643 Fit      -0.004185
 1644 Fit      -0.004661
 1645 Fit      -0.000715
 1646 Fit      -0.003857
 1647 Fit      -0.008200
 1648 Fit      -0.003283
 1649 Fit      -0.003342
 1650 Fit      -0.007451
 1651 Fit      -0.007799
 1652 Fit      -0.004850
 1653 Fit      -0.005150
 1654 Fit      -0.010424
 1655 Fit      -0.005567
 1656 Fit      -0.009908
 1657 Fit      -0.010401
 1658 Fit       0.002942
 1659 Fit       0.003732
 1660 Fit       0.003034
 1661 Fit       0.001999
 1662 Fit      -0.003821
 1663 Fit      -0.004558
 1664 Fit       0.001190
 1665 Fit       0.003467
 1666 Fit       0.005725
 1667 Fit       0.002198
 1668 Fit      -0.003679
 1669 Fit      -0.006796
 1670 Fit      -0.001212
 1671 Fit       0.003300
 1672 Fit       0.000702
 1673 Fit       0.020462
 1674 Fit       0.013521
 1675 Fit       0.009605
 1676 Fit       0.005778
 1677 Fit       0.016321
 1678 Fit       0.010395
 1679 Fit       0.007222
 1680 Fit       0.004093
 1681 Fit       0.007217
 1682 Fit       0.005759
 1683 Fit       0.003940
 1684 Fit       0.001624
 1685 Fit       0.002208
 1686 Fit       0.003506
 1687 Fit       0.001900
 1688 Fit       0.000888
 1689 Fit      -0.001129
 1690 Fit       0.000224
 1691 Fit       0.001108
 1692 Fit      -0.003384
 1693 Fit      -0.000647
 1694 Fit       0.000588
 1695 Fit      -0.008844
 1696 Fit      -0.002313
 1697 Fit      -0.009364
 1698 Fit       0.006470
 1699 Fit       0.005767
 1700 Fit       0.006271
 1701 Fit       0.007390
 1702 Fit       0.004332
 1703 Fit       0.004357
 1704 Fit       0.005035
 1705 Fit       0.005885
 1706 Fit       0.007246
 1707 Fit       0.005217
 1708 Fit       0.004177
 1709 Fit       0.002706
 1710 Fit       0.007368
 1711 Fit       0.005809
 1712 Fit       0.007814
 1713 Fit       0.006290
 1714 Fit       0.009439
 1715 Fit       0.010748
 1716 Fit       0.009434
 1717 Fit       0.013936
 1718 Fit       0.015502
 1719 Fit       0.003796
 1720 Fit       0.003458
 1721 Fit       0.002823
 1722 Fit       0.002494
 1723 Fit       0.002017
 1724 Fit       0.002135
 1725 Fit       0.001512
 1726 Fit       0.000750
 1727 Fit      -0.000323
 1728 Fit      -0.001132
 1729 Fit      -0.000011
 1730 Fit      -0.000468
 1731 Fit      -0.002578
 1732 Fit      -0.005379
 1733 Fit      -0.008395
 1734 Fit      -0.009164
 1735 Fit      -0.000945
 1736 Fit       0.001838
 1737 Fit      -0.000442
 1738 Fit       0.001808
 1739 Fit      -0.012961
 1740 Fit       0.002139
 1741 Fit       0.002833
 1742 Fit       0.005843
 1743 Fit       0.010230
 1744 Fit       0.011535
 1745 Fit      -0.002614
 1746 Fit      -0.002199
 1747 Fit       0.005604
 1748 Fit       0.006176
 1749 Fit       0.008074
 1750 Fit       0.008486
 1751 Fit       0.006656
 1752 Fit       0.003381
 1753 Fit       0.004747
 1754 Fit       0.006453
 1755 Fit       0.007370
 1756 Fit       0.006558
 1757 Fit       0.006011
 1758 Fit       0.006097
 1759 Fit       0.005532
 1760 Fit       0.002815
 1761 Fit       0.003768
 1762 Fit       0.007172
 1763 Fit       0.006075
 1764 Fit       0.008780
 1765 Fit       0.008678
 1766 Fit       0.011077
 1767 Fit       0.006741
 1768 Fit       0.004153
 1769 Fit       0.005805
 1770 Fit       0.005079
 1771 Fit       0.005609
 1772 Fit      -0.004113
 1773 Fit      -0.016429
 1774 Fit      -0.009466
 1775 Fit       0.002264
 1776 Fit       0.004051
 1777 Fit       0.002960
 1778 Fit       0.003306
 1779 Fit       0.004199
 1780 Fit       0.003031
 1781 Fit       0.005198
 1782 Fit       0.001964
 1783 Fit       0.003302
 1784 Fit       0.000629
 1785 Fit       0.002788
 1786 Fit       0.004718
 1787 Fit       0.006103
 1788 Fit       0.000477
 1789 Fit       0.002478
 1790 Fit      -0.000306
 1791 Fit       0.001462
 1792 Fit      -0.002366
 1793 Fit      -0.001876
 1794 Fit      -0.002019
 1795 Fit      -0.001580
 1796 Fit      -0.001803
 1797 Fit      -0.001630
 1798 Fit      -0.002906
 1799 Fit      -0.002969
 1800 Fit      -0.002587
 1801 Fit      -0.007073
 1802 Fit      -0.006906
 1803 Fit      -0.005990
 1804 Fit       0.000194
 1805 Fit       0.002075
 1806 Fit       0.003473
 1807 Fit      -0.000317
 1808 Fit       0.001225
 1809 Fit       0.002147
 1810 Fit       0.002868
 1811 Fit      -0.013906
 1812 Fit      -0.015681
 1813 Fit      -0.017228
 1814 Fit      -0.004096
 1815 Fit      -0.003296
 1816 Fit      -0.000057
 1817 Fit      -0.004172
 1818 Fit      -0.002384
 1819 Fit      -0.003424
 1820 Fit      -0.000676
 1821 Fit      -0.001934
 1822 Fit      -0.001094
 1823 Fit       0.000126
 1824 Fit       0.003352
 1825 Fit       0.002755
 1826 Fit       0.001778
 1827 Fit       0.003965
 1828 Fit       0.002538
 1829 Fit       0.000934
 1830 Fit      -0.001224
 1831 Fit       0.003579
 1832 Fit       0.001301
 1833 Fit      -0.001219
 1834 Fit       0.000597
 1835 Fit      -0.002484
 1836 Fit      -0.003312
 1837 Fit      -0.003483
 1838 Fit      -0.003967
 1839 Fit       0.001652
 1840 Fit       0.000285
 1841 Fit       0.002367
 1842 Fit       0.001196
 1843 Fit       0.000209
 1844 Fit      -0.001660
 1845 Fit       0.001202
 1846 Fit       0.000212
 1847 Fit      -0.000713
 1848 Fit      -0.001637
 1849 Fit      -0.002321
 1850 Fit      -0.001807
 1851 Fit      -0.000804
 1852 Fit      -0.001371
 1853 Fit      -0.002345
 1854 Fit      -0.001677
 1855 Fit      -0.002918
 1856 Fit      -0.006811
 1857 Fit      -0.003492
 1858 Fit      -0.004382
 1859 Fit      -0.001701
 1860 Fit      -0.002320
 1861 Fit      -0.005868
 1862 Fit       0.001252
 1863 Fit      -0.000064
 1864 Fit      -0.000653
 1865 Fit      -0.000470
 1866 Fit       0.000145
 1867 Fit       0.001338
 1868 Fit       0.003222
 1869 Fit       0.003383
 1870 Fit       0.005892
 1871 Fit       0.002946
 1872 Fit      -0.000248
 1873 Fit       0.000616
 1874 Fit       0.000644
 1875 Fit       0.001509
 1876 Fit       0.001994
 1877 Fit       0.001817
 1878 Fit       0.002395
 1879 Fit       0.002613
 1880 Fit       0.002915
 1881 Fit       0.003577
 1882 Fit       0.002388
 1883 Fit       0.001566
 1884 Fit       0.002857
 1885 Fit       0.001842
 1886 Fit       0.000900
 1887 Fit       0.000361
 1888 Fit       0.000270
 1889 Fit      -0.000491
 1890 Fit       0.000295
 1891 Fit       0.000190
 1892 Fit      -0.000520
 1893 Fit       0.000507
 1894 Fit       0.000371
 1895 Fit      -0.001068
 1896 Fit       0.001208
 1897 Fit      -0.000396
 1898 Fit      -0.001936
 1899 Fit      -0.001472
 1900 Fit      -0.002194
 1901 Fit      -0.002566
 1902 Fit      -0.002049
 1903 Fit      -0.000842
 1904 Fit      -0.001242
 1905 Fit      -0.002233
 1906 Fit      -0.001233
 1907 Fit      -0.000708
 1908 Fit      -0.000697
 1909 Fit      -0.001191
 1910 Fit      -0.001501
 1911 Fit      -0.000120
 1912 Fit      -0.000605
 1913 Fit      -0.001468
 1914 Fit      -0.000224
 1915 Fit      -0.000655
 1916 Fit      -0.002167
 1917 Fit      -0.001300
 1918 Fit       0.000003
 1919 Fit       0.000950
 1920 Fit       0.000351
 1921 Fit      -0.000894
 1922 Fit      -0.001407
 1923 Fit      -0.000834
 1924 Fit       0.000250
 1925 Fit       0.001393
 1926 Fit       0.000933
 1927 Fit      -0.000111
 1928 Fit      -0.001375
 1929 Fit      -0.000261
 1930 Fit       0.000776
 1931 Fit      -0.000458
 1932 Fit      -0.000391
 1933 Fit       0.000237
 1934 Fit       0.000181
 1935 Fit       0.002140
 1936 Fit       0.002638
 1937 Fit       0.001786
 1938 Fit       0.004018
 1939 Fit       0.007278
 1940 Fit       0.005675
 1941 Fit       0.004243
 1942 Fit       0.003839
 1943 Fit       0.004416
 1944 Fit       0.005137
 1945 Fit       0.004098
 1946 Fit       0.006291
 1947 Fit       0.006437
 1948 Fit       0.006840
 1949 Fit       0.006105
 1950 Fit       0.005587
 1951 Fit       0.007684
 1952 Fit       0.006891
 1953 Fit       0.005978
 1954 Fit       0.004933
 1955 Fit       0.004398
 1956 Fit       0.004957
 1957 Fit       0.009541
 1958 Fit       0.007922
 1959 Fit       0.011284
 1960 Fit       0.008146
 1961 Fit       0.015534
 1962 Fit       0.010491
 1963 Fit       0.006774
 1964 Fit       0.004606
 1965 Fit       0.004763
 1966 Fit       0.005707
 1967 Fit       0.004816
 1968 Fit       0.005786
 1969 Fit       0.003818
 1970 Fit      -0.021260
 1971 Fit      -0.018338
 1972 Fit      -0.017914
 1973 Fit      -0.018036
 1974 Fit      -0.016427
 1975 Fit      -0.013217
 1976 Fit      -0.015960
 1977 Fit      -0.016195
 1978 Fit      -0.004234
 1979 Fit      -0.010904
 1980 Fit      -0.001819
 1981 Fit      -0.013955
 1982 Fit      -0.015936
 1983 Fit      -0.018030
 1984 Fit      -0.021379
 1985 Fit      -0.006464
 1986 Fit      -0.007064
 1987 Fit      -0.008251
 1988 Fit      -0.009815
 1989 Fit      -0.011984
 1990 Fit       0.000977
 1991 Fit       0.002654
 1992 Fit       0.003579
 1993 Fit       0.000671
 1994 Fit      -0.000290
 1995 Fit       0.009182
 1996 Fit       0.008849
 1997 Fit       0.008036
 1998 Fit       0.007120
 1999 Fit       0.005299
 2000 Fit       0.001650
 2001 Fit       0.014464
 2002 Fit       0.015380
 2003 Fit       0.015189
 2004 Fit       0.013860
 2005 Fit       0.011115
 2006 Fit       0.007005
 2007 Fit       0.014151
 2008 Fit       0.013459
 2009 Fit       0.013244
 2010 Fit       0.018666
 2011 Fit       0.018875
 2012 Fit       0.017391
 2013 Fit       0.015555
 2014 Fit       0.016844
 2015 Fit       0.017934
 2016 Fit       0.019247
 2017 Fit      -0.003236
 2018 Fit      -0.016381
 2019 Fit      -0.013716
 2020 Fit      -0.004307
 2021 Fit      -0.020575
 2022 Fit      -0.022307
 2023 Fit      -0.019014
 2024 Fit      -0.011077
 2025 Fit      -0.022668
 2026 Fit      -0.025361
 2027 Fit      -0.023019
 2028 Fit      -0.016248
 2029 Fit      -0.006972
 2030 Fit      -0.018920
 2031 Fit      -0.024464
 2032 Fit      -0.026127
 2033 Fit      -0.023115
 2034 Fit      -0.017029
 2035 Fit      -0.011124
 2036 Fit      -0.008281
 2037 Fit      -0.019126
 2038 Fit      -0.024362
 2039 Fit      -0.024025
 2040 Fit      -0.019206
 2041 Fit      -0.016108
 2042 Fit      -0.021775
 2043 Fit       0.009904
 2044 Fit       0.017281
 2045 Fit       0.021826
 2046 Fit       0.025034
 2047 Fit      -0.001264
 2048 Fit       0.008863
 2049 Fit       0.015428
 2050 Fit       0.019272
 2051 Fit       0.021310
 2052 Fit       0.003196
 2053 Fit       0.010369
 2054 Fit       0.014128
 2055 Fit       0.015255
 2056 Fit       0.001190
 2057 Fit       0.005385
 2058 Fit       0.004674
 2059 Fit      -0.001623
 2060 Fit      -0.002773
 2061 Fit      -0.003533
 2062 Fit       0.001448
 2063 Fit       0.000839
 2064 Fit       0.000968
 2065 Fit       0.000701
 2066 Fit      -0.000094
 2067 Fit      -0.000408
 2068 Fit      -0.000351
 2069 Fit      -0.000349
 2070 Fit      -0.002082
 2071 Fit      -0.001381
 2072 Fit      -0.001832
 2073 Fit      -0.002051
 2074 Fit      -0.003727
 2075 Fit      -0.000761
 2076 Fit      -0.001745
 2077 Fit      -0.002522
 2078 Fit      -0.001707
 2079 Fit      -0.000617
 2080 Fit      -0.001191
 2081 Fit      -0.000675
 2082 Fit      -0.001042
 2083 Fit      -0.001928
 2084 Fit      -0.001684
 2085 Fit      -0.005993
 2086 Fit      -0.000688
 2087 Fit      -0.000252
 2088 Fit      -0.000275
 2089 Fit       0.000091
 2090 Fit      -0.000328
 2091 Fit      -0.001593
 2092 Fit      -0.001056
 2093 Fit      -0.003896
 2094 Fit      -0.003720
 2095 Fit      -0.003113
 2096 Fit      -0.002917
 2097 Fit      -0.000759
 2098 Fit      -0.001216
 2099 Fit      -0.001085
 2100 Fit       0.000471
 2101 Fit      -0.000368
 2102 Fit      -0.000003
 2103 Fit       0.000715
 2104 Fit      -0.000676
 2105 Fit      -0.000043
 2106 Fit       0.000769
 2107 Fit       0.000851
 2108 Fit       0.000978
 2109 Fit       0.000174
 2110 Fit       0.000157
 2111 Fit       0.000723
 2112 Fit       0.000058
 2113 Fit      -0.000346
 2114 Fit      -0.000413
 2115 Fit      -0.002585
 2116 Fit      -0.002219
 2117 Fit      -0.000631
 2118 Fit      -0.000299
 2119 Fit      -0.000989
 2120 Fit      -0.000196
 2121 Fit       0.000086
 2122 Fit      -0.000236
 2123 Fit      -0.000695
 2124 Fit      -0.000164
 2125 Fit       0.000059
 2126 Fit      -0.000823
 2127 Fit      -0.000770
 2128 Fit      -0.000736
 2129 Fit      -0.002451
 2130 Fit      -0.002298
 2131 Fit      -0.001785
 2132 Fit      -0.002967
 2133 Fit      -0.002900
 2134 Fit      -0.003324
 2135 Fit      -0.003482
 2136 Fit      -0.003013
 2137 Fit      -0.003249
 2138 Fit      -0.003106
 2139 Fit      -0.003325
 2140 Fit      -0.002946
 2141 Fit      -0.002651
 2142 Fit      -0.002569
 2143 Fit      -0.002235
 2144 Fit      -0.001271
 2145 Fit      -0.002304
 2146 Fit      -0.000741
 2147 Fit      -0.000723
 2148 Fit      -0.000413
 2149 Fit      -0.001656
 2150 Fit       0.000555
 2151 Fit       0.000274
 2152 Fit      -0.000219
 2153 Fit      -0.001885
 2154 Fit       0.000728
 2155 Fit      -0.001426
 2156 Fit      -0.000811
 2157 Fit      -0.001055
 2158 Fit      -0.002835
 2159 Fit      -0.001176
 2160 Fit      -0.000039
 2161 Fit       0.000379
 2162 Fit       0.000102
 2163 Fit      -0.002677
 2164 Fit      -0.000983
 2165 Fit       0.000237
 2166 Fit       0.000852
 2167 Fit      -0.002442
 2168 Fit      -0.000854
 2169 Fit       0.000283
 2170 Fit      -0.002458
 2171 Fit       0.000543
 2172 Fit       0.000345
 2173 Fit      -0.000396
 2174 Fit      -0.000634
 2175 Fit       0.000060
 2176 Fit       0.000991
 2177 Fit       0.000901
 2178 Fit      -0.000646
 2179 Fit      -0.001293
 2180 Fit      -0.001939
 2181 Fit       0.000236
 2182 Fit      -0.000210
 2183 Fit      -0.002265
 2184 Fit      -0.002798
 2185 Fit      -0.001941
 2186 Fit      -0.001953
 2187 Fit      -0.002348
 2188 Fit      -0.002162
 2189 Fit      -0.003080
 2190 Fit      -0.003518
 2191 Fit      -0.003045
 2192 Fit      -0.003930
 2193 Fit      -0.003183
 2194 Fit      -0.004048
 2195 Fit      -0.004461
 2196 Fit      -0.004815
 2197 Fit      -0.003453
 2198 Fit      -0.004106
 2199 Fit      -0.004493
 2200 Fit      -0.001544
 2201 Fit       0.000985
 2202 Fit      -0.000176
 2203 Fit      -0.001756
 2204 Fit      -0.003851
 2205 Fit      -0.001650
 2206 Fit      -0.000059
 2207 Fit       0.000495
 2208 Fit      -0.000668
 2209 Fit      -0.002213
 2210 Fit      -0.003819
 2211 Fit      -0.002356
 2212 Fit      -0.000599
 2213 Fit      -0.001888
 2214 Fit       0.000082
 2215 Fit      -0.001247
 2216 Fit       0.000911
 2217 Fit       0.000222
 2218 Fit      -0.001073
 2219 Fit      -0.000463
 2220 Fit       0.000238
 2221 Fit      -0.000103
 2222 Fit      -0.001339
 2223 Fit      -0.003119
 2224 Fit      -0.002498
 2225 Fit      -0.001161
 2226 Fit      -0.001051
 2227 Fit      -0.002211
 2228 Fit      -0.002822
 2229 Fit      -0.003066
 2230 Fit      -0.001956
 2231 Fit      -0.002265
 2232 Fit      -0.001639
 2233 Fit      -0.002745
 2234 Fit      -0.002441
 2235 Fit      -0.002294
 2236 Fit      -0.004035
 2237 Fit      -0.003549
 2238 Fit      -0.004206
 2239 Fit      -0.004581
 2240 Fit      -0.004508
 2241 Fit      -0.004932
 -----------------------------------------------------------------
 Leave Link  602 at Wed Apr 26 14:17:41 2017, MaxMem=    33554432 cpu:         3.8
 (Enter /home/michal/g09/l9999.exe)

 Test job not archived.
 1\1\GINC-LINUX\SP\RHF\6-31G(d)\C27H46O3\MICHAL\26-Apr-2017\0\\#P HF/6-
 31G* SCF(Conver=6) NoSymm Test Pop=mk IOp(6/33=2) GFInput GFPrint\\MEP
  - Input generated by R.E.D.-III.x MOLECULE\\0,1\C,0,1.01218232,-0.823
 6622,-1.71761481\H,0,1.11277338,0.15894549,-2.19398816\C,0,2.26523782,
 -1.65764237,-2.0309064\H,0,2.39335383,-1.73627528,-3.11491838\H,0,2.08
 986529,-2.67892745,-1.65790816\C,0,3.51439396,-1.07974227,-1.39404648\
 C,0,3.45490589,-0.78958279,0.10984508\C,0,2.13413605,-0.01068821,0.398
 4448\H,0,2.24346152,1.00698676,0.\H,0,2.00367364,0.09101991,1.48111984
 \C,0,0.86794175,-0.63612196,-0.20738927\H,0,0.66075155,-1.6118298,0.25
 681341\H,0,0.,0.,0.\C,0,4.59922151,-0.84058127,-2.14647759\H,0,4.56248
 546,-1.03457795,-3.21696188\C,0,5.87699823,-0.24982811,-1.62821384\H,0
 ,6.74106215,-0.70138557,-2.12787858\C,0,6.00221364,-0.37514893,-0.0975
 764\H,0,6.14699007,-1.44807052,0.09721703\C,0,4.67136269,0.10087186,0.
 54736169\H,0,4.48724816,1.0975324,0.12001454\C,0,4.76762938,0.28919034
 ,2.07938515\H,0,4.75164297,-0.68220483,2.5836871\H,0,3.87986632,0.8255
 6675,2.43389773\C,0,6.02103893,1.05487928,2.54550279\H,0,5.97970475,2.
 09090517,2.18014814\H,0,6.0070685,1.10780372,3.63881524\C,0,7.31084352
 ,0.39688784,2.01976956\C,0,7.206378,0.3932583,0.46636748\H,0,7.0614635
 9,1.4452673,0.18231044\C,0,8.6174414,0.,0.\H,0,8.82442274,0.34308715,-
 1.01525898\H,0,8.7376044,-1.09121649,0.00592603\C,0,9.54946483,0.66598
 16,1.04967457\H,0,10.26680935,-0.05999689,1.45070384\H,0,10.14295575,1
 .46992066,0.60289087\C,0,8.63547697,1.21670747,2.19363081\H,0,8.373968
 63,2.25659588,1.94918731\C,0,7.47933404,-1.02213742,2.6109134\H,0,6.68
 190409,-1.70209839,2.3004682\H,0,8.4267506,-1.48052218,2.31247585\H,0,
 7.46507575,-0.98821978,3.70580968\C,0,9.35106695,1.23052798,3.56765447
 \H,0,9.62194108,0.19152359,3.80604351\C,0,8.47413958,1.74923193,4.7228
 658\H,0,8.01875641,2.71785518,4.48830625\H,0,9.07453383,1.87631265,5.6
 3167357\H,0,7.66451194,1.05592703,4.96433034\C,0,3.43548134,-2.1461168
 4,0.86663064\H,0,3.20195426,-2.00629794,1.92615977\H,0,2.68262804,-2.8
 2548093,0.45965378\H,0,4.40124635,-2.65545363,0.79366338\O,0,5.8077053
 4,1.13520675,-2.08286279\O,0,7.16101742,1.63566862,-2.33989514\H,0,7.0
 6854073,1.8767286,-3.27565209\O,0,-0.15922732,-1.38469313,-2.31591584\
 H,0,-0.33032283,-2.24740113,-1.91265035\C,0,10.69456776,2.00713661,3.5
 2049916\H,0,11.18270623,1.88439882,4.49806421\H,0,11.36414277,1.532010
 58,2.79267288\C,0,10.61128189,3.50928327,3.20307769\H,0,10.14530989,3.
 65309985,2.22109251\H,0,9.95901892,4.01075918,3.93101089\C,0,11.990016
 3,4.18695643,3.22461742\H,0,12.63448045,3.72674083,2.45974644\H,0,12.4
 6867396,3.97359217,4.19129972\C,0,11.98170994,5.71473575,3.01353752\H,
 0,11.30379732,6.14963843,3.76442947\C,0,13.38250769,6.29983407,3.25409
 95\H,0,14.1033877,5.89678132,2.53110056\H,0,13.38207558,7.39076314,3.1
 4846196\H,0,13.7494303,6.05969507,4.25863946\C,0,11.46378654,6.1164725
 ,1.62287232\H,0,12.09268566,5.68280522,0.83430005\H,0,11.48077457,7.20
 53071,1.49856192\H,0,10.43585728,5.78178211,1.45194937\\Version=EM64L-
 G09RevD.01\HF=-1273.6809215\RMSD=5.576e-07\Dipole=0.186801,-0.680122,0
 .1771332\Quadrupole=-4.4526567,2.293103,2.1595537,-4.5991902,-7.985497
 ,-0.830452\PG=C01 [X(C27H46O3)]\\@


 IT WAS A GAME, A VERY INTERESTING GAME ONE COULD
 PLAY.  WHENEVER ONE SOLVED ONE OF THE LITTLE PROBLEMS,
 ONE COULD WRITE A PAPER ABOUT IT.  IT WAS VERY EASY IN
 THOSE DAYS FOR ANY SECOND-RATE PHYSICIST TO DO
 FIRST-RATE WORK.  THERE HAS NOT BEEN SUCH A GLORIOUS
 TIME SINCE.  IT IS VERY DIFFICULT NOW FOR A FIRST-RATE
 PHYSICIST TO DO SECOND-RATE WORK.
     P.A.M. DIRAC, ON THE EARLY DAYS OF QUANTUM MECHANICS
                   DIRECTIONS IN PHYSICS, 1978, P. 7
 Job cpu time:       0 days  0 hours 12 minutes 31.6 seconds.
 File lengths (MBytes):  RWF=    159 Int=      0 D2E=      0 Chk=     11 Scr=      1
 Normal termination of Gaussian 09 at Wed Apr 26 14:17:42 2017.
