 Entering Gaussian System, Link 0=/home/michal/g09/g09
 Input=JOB2-gau_m1-17-1.com
 Output=JOB2-gau_m1-17-1.log
 Initial command:
 /home/michal/g09/l1.exe "/home/michal/gauss_scratch/Gau-13064.inp" -scrdir="/home/michal/gauss_scratch/"
 Entering Link 1 = /home/michal/g09/l1.exe PID=     13065.
  
 Copyright (c) 1988,1990,1992,1993,1995,1998,2003,2009,2013,
            Gaussian, Inc.  All Rights Reserved.
  
 This is part of the Gaussian(R) 09 program.  It is based on
 the Gaussian(R) 03 system (copyright 2003, Gaussian, Inc.),
 the Gaussian(R) 98 system (copyright 1998, Gaussian, Inc.),
 the Gaussian(R) 94 system (copyright 1995, Gaussian, Inc.),
 the Gaussian 92(TM) system (copyright 1992, Gaussian, Inc.),
 the Gaussian 90(TM) system (copyright 1990, Gaussian, Inc.),
 the Gaussian 88(TM) system (copyright 1988, Gaussian, Inc.),
 the Gaussian 86(TM) system (copyright 1986, Carnegie Mellon
 University), and the Gaussian 82(TM) system (copyright 1983,
 Carnegie Mellon University). Gaussian is a federally registered
 trademark of Gaussian, Inc.
  
 This software contains proprietary and confidential information,
 including trade secrets, belonging to Gaussian, Inc.
  
 This software is provided under written license and may be
 used, copied, transmitted, or stored only in accord with that
 written license.
  
 The following legend is applicable only to US Government
 contracts under FAR:
  
                    RESTRICTED RIGHTS LEGEND
  
 Use, reproduction and disclosure by the US Government is
 subject to restrictions as set forth in subparagraphs (a)
 and (c) of the Commercial Computer Software - Restricted
 Rights clause in FAR 52.227-19.
  
 Gaussian, Inc.
 340 Quinnipiac St., Bldg. 40, Wallingford CT 06492
  
  
 ---------------------------------------------------------------
 Warning -- This program may not be used in any manner that
 competes with the business of Gaussian, Inc. or will provide
 assistance to any competitor of Gaussian, Inc.  The licensee
 of this program is prohibited from giving any competitor of
 Gaussian, Inc. access to this program.  By using this program,
 the user acknowledges that Gaussian, Inc. is engaged in the
 business of creating and licensing software in the field of
 computational chemistry and represents and warrants to the
 licensee that it is not a competitor of Gaussian, Inc. and that
 it will not use this program in any manner prohibited above.
 ---------------------------------------------------------------
  

 Cite this work as:
 Gaussian 09, Revision D.01,
 M. J. Frisch, G. W. Trucks, H. B. Schlegel, G. E. Scuseria, 
 M. A. Robb, J. R. Cheeseman, G. Scalmani, V. Barone, B. Mennucci, 
 G. A. Petersson, H. Nakatsuji, M. Caricato, X. Li, H. P. Hratchian, 
 A. F. Izmaylov, J. Bloino, G. Zheng, J. L. Sonnenberg, M. Hada, 
 M. Ehara, K. Toyota, R. Fukuda, J. Hasegawa, M. Ishida, T. Nakajima, 
 Y. Honda, O. Kitao, H. Nakai, T. Vreven, J. A. Montgomery, Jr., 
 J. E. Peralta, F. Ogliaro, M. Bearpark, J. J. Heyd, E. Brothers, 
 K. N. Kudin, V. N. Staroverov, T. Keith, R. Kobayashi, J. Normand, 
 K. Raghavachari, A. Rendell, J. C. Burant, S. S. Iyengar, J. Tomasi, 
 M. Cossi, N. Rega, J. M. Millam, M. Klene, J. E. Knox, J. B. Cross, 
 V. Bakken, C. Adamo, J. Jaramillo, R. Gomperts, R. E. Stratmann, 
 O. Yazyev, A. J. Austin, R. Cammi, C. Pomelli, J. W. Ochterski, 
 R. L. Martin, K. Morokuma, V. G. Zakrzewski, G. A. Voth, 
 P. Salvador, J. J. Dannenberg, S. Dapprich, A. D. Daniels, 
 O. Farkas, J. B. Foresman, J. V. Ortiz, J. Cioslowski, 
 and D. J. Fox, Gaussian, Inc., Wallingford CT, 2013.
 
 ******************************************
 Gaussian 09:  EM64L-G09RevD.01 24-Apr-2013
                26-Apr-2017 
 ******************************************
 %Mem=256MB
 %NProc=12
 Will use up to   12 processors via shared memory.
 ----------------------------------------------------------------------
 #P HF/6-31G* SCF(Conver=6) NoSymm Test Pop=mk IOp(6/33=2) GFInput GFPr
 int
 ----------------------------------------------------------------------
 1/38=1/1;
 2/12=2,15=1,17=6,18=5,40=1/2;
 3/5=1,6=6,7=1,11=9,16=1,24=110,25=1,30=1/1,2,3;
 4//1;
 5/5=2,6=6,38=5/2;
 6/7=2,8=2,9=2,10=2,15=8,20=1,28=1,33=2/1,2;
 99/5=1,9=1/99;
 Leave Link    1 at Wed Apr 26 14:26:42 2017, MaxMem=    33554432 cpu:         0.6
 (Enter /home/michal/g09/l101.exe)
 ----------------------------------------------
 MEP - Input generated by R.E.D.-III.x MOLECULE
 ----------------------------------------------
 Symbolic Z-matrix:
 Charge =  0 Multiplicity = 1
 C                     1.7559   -1.24472   0.14249 
 H                     1.88495  -1.27631  -0.94606 
 C                     3.14268  -1.21545   0.80569 
 H                     3.72261  -2.08631   0.48483 
 H                     2.99656  -1.31513   1.89271 
 C                     3.89899   0.06265   0.49874 
 C                     3.1712    1.38254   0.77737 
 C                     1.74298   1.2848    0.15665 
 H                     1.84137   1.3339   -0.93616 
 H                     1.15757   2.16063   0.45636 
 C                     0.96593   0.00908   0.51758 
 H                     0.74537  -0.0153    1.59516 
 H                     0.        0.        0. 
 C                     5.14299   0.        0. 
 H                     5.58801  -0.97096  -0.21003 
 C                     5.97269   1.19624  -0.36171 
 H                     7.02741   1.01959  -0.12403 
 C                     5.46746   2.48558   0.31395 
 H                     5.6921    2.36232   1.38369 
 C                     3.93075   2.58233   0.10841 
 H                     3.77948   2.47118  -0.97541 
 C                     3.35092   3.96236   0.49567 
 H                     3.29183   4.05795   1.58452 
 H                     2.31968   4.03657   0.13164 
 C                     4.15074   5.16041  -0.05116 
 H                     4.09536   5.17306  -1.14902 
 H                     3.67228   6.08127   0.29604 
 C                     5.63225   5.08746   0.3668 
 C                     6.18373   3.74474  -0.19655 
 H                     6.00109   3.78635  -1.27982 
 C                     7.7029    3.85855   0. 
 H                     8.25632   3.20442  -0.67614 
 H                     7.98251   3.58076   1.02456 
 C                     7.99151   5.36043  -0.26771 
 H                     8.61462   5.78903   0.5267 
 H                     8.54741   5.4913   -1.20084 
 C                     6.60848   6.09534  -0.33398 
 H                     6.29616   6.13691  -1.3894 
 C                     5.77509   5.19142   1.90364 
 H                     5.30985   4.3512    2.42545 
 H                     6.82324   5.22259   2.21525 
 H                     5.29909   6.10489   2.27576 
 C                     6.69191   7.56163   0.16557 
 H                     7.07587   7.54378   1.19724 
 C                     5.33253   8.28299   0.17905 
 H                     4.86529   8.25811  -0.8136 
 H                     5.44449   9.33272   0.46653 
 H                     4.6335    7.83311   0.88741 
 C                     3.05907   1.56156   2.3164 
 H                     2.38683   2.38585   2.572 
 H                     2.6647    0.66473   2.80025 
 H                     4.0362    1.76571   2.7648 
 O                     5.87353   1.23879  -1.8171 
 O                     7.10967   1.79206  -2.37729 
 H                     7.37672   1.04948  -2.94259 
 O                     1.0498   -2.45044   0.44667 
 H                     0.86927  -2.47253   1.39698 
 C                     7.71304   8.35716  -0.68616 
 H                     8.63905   7.77719  -0.77583 
 H                     7.31352   8.45119  -1.70636 
 C                     8.08372   9.74474  -0.13534 
 H                     7.2164    10.41435  -0.16013 
 H                     8.35066   9.63968   0.92594 
 C                     9.26796   10.41323  -0.85813 
 H                     10.14965   9.76354  -0.75907 
 H                     9.5189    11.34685  -0.33284 
 C                     9.07131   10.74115  -2.35372 
 H                     8.83769   9.80629  -2.88299 
 C                     7.911     11.72049  -2.59209 
 H                     8.0845    12.66622  -2.06209 
 H                     7.80732   11.95208  -3.65829 
 H                     6.95288   11.31718  -2.24867 
 C                     10.37501   11.29466  -2.951 
 H                     10.65998   12.23589  -2.46329 
 H                     10.26835   11.49547  -4.02319 
 H                     11.20429   10.58948  -2.82265 
 
 NAtoms=     76 NQM=       76 NQMF=       0 NMMI=      0 NMMIF=      0
                NMic=       0 NMicF=      0.
                    Isotopes and Nuclear Properties:
 (Nuclear quadrupole moments (NQMom) in fm**2, nuclear magnetic moments (NMagM)
  in nuclear magnetons)

  Atom         1           2           3           4           5           6           7           8           9          10
 IAtWgt=          12           1          12           1           1          12          12          12           1           1
 AtmWgt=  12.0000000   1.0078250  12.0000000   1.0078250   1.0078250  12.0000000  12.0000000  12.0000000   1.0078250   1.0078250
 NucSpn=           0           1           0           1           1           0           0           0           1           1
 AtZEff=   0.0000000   0.0000000   0.0000000   0.0000000   0.0000000   0.0000000   0.0000000   0.0000000   0.0000000   0.0000000
 NQMom=    0.0000000   0.0000000   0.0000000   0.0000000   0.0000000   0.0000000   0.0000000   0.0000000   0.0000000   0.0000000
 NMagM=    0.0000000   2.7928460   0.0000000   2.7928460   2.7928460   0.0000000   0.0000000   0.0000000   2.7928460   2.7928460
 AtZNuc=   6.0000000   1.0000000   6.0000000   1.0000000   1.0000000   6.0000000   6.0000000   6.0000000   1.0000000   1.0000000

  Atom        11          12          13          14          15          16          17          18          19          20
 IAtWgt=          12           1           1          12           1          12           1          12           1          12
 AtmWgt=  12.0000000   1.0078250   1.0078250  12.0000000   1.0078250  12.0000000   1.0078250  12.0000000   1.0078250  12.0000000
 NucSpn=           0           1           1           0           1           0           1           0           1           0
 AtZEff=   0.0000000   0.0000000   0.0000000   0.0000000   0.0000000   0.0000000   0.0000000   0.0000000   0.0000000   0.0000000
 NQMom=    0.0000000   0.0000000   0.0000000   0.0000000   0.0000000   0.0000000   0.0000000   0.0000000   0.0000000   0.0000000
 NMagM=    0.0000000   2.7928460   2.7928460   0.0000000   2.7928460   0.0000000   2.7928460   0.0000000   2.7928460   0.0000000
 AtZNuc=   6.0000000   1.0000000   1.0000000   6.0000000   1.0000000   6.0000000   1.0000000   6.0000000   1.0000000   6.0000000

  Atom        21          22          23          24          25          26          27          28          29          30
 IAtWgt=           1          12           1           1          12           1           1          12          12           1
 AtmWgt=   1.0078250  12.0000000   1.0078250   1.0078250  12.0000000   1.0078250   1.0078250  12.0000000  12.0000000   1.0078250
 NucSpn=           1           0           1           1           0           1           1           0           0           1
 AtZEff=   0.0000000   0.0000000   0.0000000   0.0000000   0.0000000   0.0000000   0.0000000   0.0000000   0.0000000   0.0000000
 NQMom=    0.0000000   0.0000000   0.0000000   0.0000000   0.0000000   0.0000000   0.0000000   0.0000000   0.0000000   0.0000000
 NMagM=    2.7928460   0.0000000   2.7928460   2.7928460   0.0000000   2.7928460   2.7928460   0.0000000   0.0000000   2.7928460
 AtZNuc=   1.0000000   6.0000000   1.0000000   1.0000000   6.0000000   1.0000000   1.0000000   6.0000000   6.0000000   1.0000000

  Atom        31          32          33          34          35          36          37          38          39          40
 IAtWgt=          12           1           1          12           1           1          12           1          12           1
 AtmWgt=  12.0000000   1.0078250   1.0078250  12.0000000   1.0078250   1.0078250  12.0000000   1.0078250  12.0000000   1.0078250
 NucSpn=           0           1           1           0           1           1           0           1           0           1
 AtZEff=   0.0000000   0.0000000   0.0000000   0.0000000   0.0000000   0.0000000   0.0000000   0.0000000   0.0000000   0.0000000
 NQMom=    0.0000000   0.0000000   0.0000000   0.0000000   0.0000000   0.0000000   0.0000000   0.0000000   0.0000000   0.0000000
 NMagM=    0.0000000   2.7928460   2.7928460   0.0000000   2.7928460   2.7928460   0.0000000   2.7928460   0.0000000   2.7928460
 AtZNuc=   6.0000000   1.0000000   1.0000000   6.0000000   1.0000000   1.0000000   6.0000000   1.0000000   6.0000000   1.0000000

  Atom        41          42          43          44          45          46          47          48          49          50
 IAtWgt=           1           1          12           1          12           1           1           1          12           1
 AtmWgt=   1.0078250   1.0078250  12.0000000   1.0078250  12.0000000   1.0078250   1.0078250   1.0078250  12.0000000   1.0078250
 NucSpn=           1           1           0           1           0           1           1           1           0           1
 AtZEff=   0.0000000   0.0000000   0.0000000   0.0000000   0.0000000   0.0000000   0.0000000   0.0000000   0.0000000   0.0000000
 NQMom=    0.0000000   0.0000000   0.0000000   0.0000000   0.0000000   0.0000000   0.0000000   0.0000000   0.0000000   0.0000000
 NMagM=    2.7928460   2.7928460   0.0000000   2.7928460   0.0000000   2.7928460   2.7928460   2.7928460   0.0000000   2.7928460
 AtZNuc=   1.0000000   1.0000000   6.0000000   1.0000000   6.0000000   1.0000000   1.0000000   1.0000000   6.0000000   1.0000000

  Atom        51          52          53          54          55          56          57          58          59          60
 IAtWgt=           1           1          16          16           1          16           1          12           1           1
 AtmWgt=   1.0078250   1.0078250  15.9949146  15.9949146   1.0078250  15.9949146   1.0078250  12.0000000   1.0078250   1.0078250
 NucSpn=           1           1           0           0           1           0           1           0           1           1
 AtZEff=   0.0000000   0.0000000   0.0000000   0.0000000   0.0000000   0.0000000   0.0000000   0.0000000   0.0000000   0.0000000
 NQMom=    0.0000000   0.0000000   0.0000000   0.0000000   0.0000000   0.0000000   0.0000000   0.0000000   0.0000000   0.0000000
 NMagM=    2.7928460   2.7928460   0.0000000   0.0000000   2.7928460   0.0000000   2.7928460   0.0000000   2.7928460   2.7928460
 AtZNuc=   1.0000000   1.0000000   8.0000000   8.0000000   1.0000000   8.0000000   1.0000000   6.0000000   1.0000000   1.0000000

  Atom        61          62          63          64          65          66          67          68          69          70
 IAtWgt=          12           1           1          12           1           1          12           1          12           1
 AtmWgt=  12.0000000   1.0078250   1.0078250  12.0000000   1.0078250   1.0078250  12.0000000   1.0078250  12.0000000   1.0078250
 NucSpn=           0           1           1           0           1           1           0           1           0           1
 AtZEff=   0.0000000   0.0000000   0.0000000   0.0000000   0.0000000   0.0000000   0.0000000   0.0000000   0.0000000   0.0000000
 NQMom=    0.0000000   0.0000000   0.0000000   0.0000000   0.0000000   0.0000000   0.0000000   0.0000000   0.0000000   0.0000000
 NMagM=    0.0000000   2.7928460   2.7928460   0.0000000   2.7928460   2.7928460   0.0000000   2.7928460   0.0000000   2.7928460
 AtZNuc=   6.0000000   1.0000000   1.0000000   6.0000000   1.0000000   1.0000000   6.0000000   1.0000000   6.0000000   1.0000000

  Atom        71          72          73          74          75          76
 IAtWgt=           1           1          12           1           1           1
 AtmWgt=   1.0078250   1.0078250  12.0000000   1.0078250   1.0078250   1.0078250
 NucSpn=           1           1           0           1           1           1
 AtZEff=   0.0000000   0.0000000   0.0000000   0.0000000   0.0000000   0.0000000
 NQMom=    0.0000000   0.0000000   0.0000000   0.0000000   0.0000000   0.0000000
 NMagM=    2.7928460   2.7928460   0.0000000   2.7928460   2.7928460   2.7928460
 AtZNuc=   1.0000000   1.0000000   6.0000000   1.0000000   1.0000000   1.0000000
 Leave Link  101 at Wed Apr 26 14:26:42 2017, MaxMem=    33554432 cpu:         1.1
 (Enter /home/michal/g09/l202.exe)
 Symmetry turned off by external request.
 Stoichiometry    C27H46O3
 Framework group  C1[X(C27H46O3)]
 Deg. of freedom   222
 Full point group                 C1      NOp   1
                          Input orientation:                          
 ---------------------------------------------------------------------
 Center     Atomic      Atomic             Coordinates (Angstroms)
 Number     Number       Type             X           Y           Z
 ---------------------------------------------------------------------
      1          6           0        1.755903   -1.244721    0.142486
      2          1           0        1.884946   -1.276314   -0.946063
      3          6           0        3.142677   -1.215448    0.805693
      4          1           0        3.722607   -2.086308    0.484827
      5          1           0        2.996557   -1.315129    1.892712
      6          6           0        3.898985    0.062650    0.498743
      7          6           0        3.171199    1.382537    0.777369
      8          6           0        1.742982    1.284801    0.156645
      9          1           0        1.841366    1.333905   -0.936159
     10          1           0        1.157569    2.160625    0.456365
     11          6           0        0.965931    0.009084    0.517575
     12          1           0        0.745366   -0.015295    1.595155
     13          1           0        0.000000    0.000000    0.000000
     14          6           0        5.142986    0.000000    0.000000
     15          1           0        5.588014   -0.970962   -0.210034
     16          6           0        5.972690    1.196239   -0.361708
     17          1           0        7.027415    1.019593   -0.124027
     18          6           0        5.467455    2.485579    0.313946
     19          1           0        5.692096    2.362322    1.383688
     20          6           0        3.930754    2.582329    0.108411
     21          1           0        3.779484    2.471183   -0.975406
     22          6           0        3.350924    3.962365    0.495674
     23          1           0        3.291826    4.057950    1.584524
     24          1           0        2.319676    4.036571    0.131640
     25          6           0        4.150737    5.160412   -0.051162
     26          1           0        4.095361    5.173063   -1.149025
     27          1           0        3.672277    6.081267    0.296037
     28          6           0        5.632248    5.087459    0.366797
     29          6           0        6.183726    3.744744   -0.196547
     30          1           0        6.001087    3.786350   -1.279824
     31          6           0        7.702900    3.858551    0.000000
     32          1           0        8.256321    3.204419   -0.676141
     33          1           0        7.982507    3.580758    1.024563
     34          6           0        7.991512    5.360430   -0.267711
     35          1           0        8.614618    5.789027    0.526703
     36          1           0        8.547410    5.491298   -1.200835
     37          6           0        6.608481    6.095338   -0.333980
     38          1           0        6.296158    6.136907   -1.389401
     39          6           0        5.775089    5.191416    1.903639
     40          1           0        5.309851    4.351202    2.425453
     41          1           0        6.823243    5.222588    2.215254
     42          1           0        5.299086    6.104890    2.275763
     43          6           0        6.691911    7.561630    0.165568
     44          1           0        7.075865    7.543777    1.197244
     45          6           0        5.332531    8.282994    0.179055
     46          1           0        4.865293    8.258112   -0.813599
     47          1           0        5.444490    9.332716    0.466529
     48          1           0        4.633498    7.833110    0.887414
     49          6           0        3.059066    1.561557    2.316399
     50          1           0        2.386834    2.385849    2.572002
     51          1           0        2.664698    0.664728    2.800255
     52          1           0        4.036197    1.765705    2.764800
     53          8           0        5.873526    1.238786   -1.817096
     54          8           0        7.109668    1.792062   -2.377286
     55          1           0        7.376723    1.049481   -2.942593
     56          8           0        1.049795   -2.450439    0.446674
     57          1           0        0.869268   -2.472525    1.396981
     58          6           0        7.713043    8.357155   -0.686163
     59          1           0        8.639049    7.777194   -0.775834
     60          1           0        7.313517    8.451192   -1.706358
     61          6           0        8.083724    9.744741   -0.135337
     62          1           0        7.216404   10.414355   -0.160133
     63          1           0        8.350655    9.639685    0.925944
     64          6           0        9.267956   10.413228   -0.858129
     65          1           0       10.149651    9.763539   -0.759066
     66          1           0        9.518902   11.346849   -0.332845
     67          6           0        9.071309   10.741149   -2.353721
     68          1           0        8.837694    9.806287   -2.882991
     69          6           0        7.911000   11.720490   -2.592088
     70          1           0        8.084504   12.666222   -2.062091
     71          1           0        7.807320   11.952081   -3.658288
     72          1           0        6.952883   11.317184   -2.248668
     73          6           0       10.375009   11.294659   -2.950999
     74          1           0       10.659978   12.235892   -2.463289
     75          1           0       10.268346   11.495468   -4.023187
     76          1           0       11.204293   10.589477   -2.822651
 ---------------------------------------------------------------------
 Rotational constants (GHZ):      0.4054307      0.0539806      0.0510442
 Leave Link  202 at Wed Apr 26 14:26:42 2017, MaxMem=    33554432 cpu:         0.0
 (Enter /home/michal/g09/l301.exe)
 Standard basis: 6-31G(d) (6D, 7F)
 Ernie: Thresh=  0.10000D-02 Tol=  0.10000D-05 Strict=F.
 AO basis set in the form of general basis input (Overlap normalization):
      1 0
 S   6 1.00       0.000000000000
      0.3047524880D+04  0.1834737132D-02
      0.4573695180D+03  0.1403732281D-01
      0.1039486850D+03  0.6884262226D-01
      0.2921015530D+02  0.2321844432D+00
      0.9286662960D+01  0.4679413484D+00
      0.3163926960D+01  0.3623119853D+00
 SP   3 1.00       0.000000000000
      0.7868272350D+01 -0.1193324198D+00  0.6899906659D-01
      0.1881288540D+01 -0.1608541517D+00  0.3164239610D+00
      0.5442492580D+00  0.1143456438D+01  0.7443082909D+00
 SP   1 1.00       0.000000000000
      0.1687144782D+00  0.1000000000D+01  0.1000000000D+01
 D   1 1.00       0.000000000000
      0.8000000000D+00  0.1000000000D+01
 ****
      2 0
 S   3 1.00       0.000000000000
      0.1873113696D+02  0.3349460434D-01
      0.2825394365D+01  0.2347269535D+00
      0.6401216923D+00  0.8137573261D+00
 S   1 1.00       0.000000000000
      0.1612777588D+00  0.1000000000D+01
 ****
      3 0
 S   6 1.00       0.000000000000
      0.3047524880D+04  0.1834737132D-02
      0.4573695180D+03  0.1403732281D-01
      0.1039486850D+03  0.6884262226D-01
      0.2921015530D+02  0.2321844432D+00
      0.9286662960D+01  0.4679413484D+00
      0.3163926960D+01  0.3623119853D+00
 SP   3 1.00       0.000000000000
      0.7868272350D+01 -0.1193324198D+00  0.6899906659D-01
      0.1881288540D+01 -0.1608541517D+00  0.3164239610D+00
      0.5442492580D+00  0.1143456438D+01  0.7443082909D+00
 SP   1 1.00       0.000000000000
      0.1687144782D+00  0.1000000000D+01  0.1000000000D+01
 D   1 1.00       0.000000000000
      0.8000000000D+00  0.1000000000D+01
 ****
      4 0
 S   3 1.00       0.000000000000
      0.1873113696D+02  0.3349460434D-01
      0.2825394365D+01  0.2347269535D+00
      0.6401216923D+00  0.8137573261D+00
 S   1 1.00       0.000000000000
      0.1612777588D+00  0.1000000000D+01
 ****
      5 0
 S   3 1.00       0.000000000000
      0.1873113696D+02  0.3349460434D-01
      0.2825394365D+01  0.2347269535D+00
      0.6401216923D+00  0.8137573261D+00
 S   1 1.00       0.000000000000
      0.1612777588D+00  0.1000000000D+01
 ****
      6 0
 S   6 1.00       0.000000000000
      0.3047524880D+04  0.1834737132D-02
      0.4573695180D+03  0.1403732281D-01
      0.1039486850D+03  0.6884262226D-01
      0.2921015530D+02  0.2321844432D+00
      0.9286662960D+01  0.4679413484D+00
      0.3163926960D+01  0.3623119853D+00
 SP   3 1.00       0.000000000000
      0.7868272350D+01 -0.1193324198D+00  0.6899906659D-01
      0.1881288540D+01 -0.1608541517D+00  0.3164239610D+00
      0.5442492580D+00  0.1143456438D+01  0.7443082909D+00
 SP   1 1.00       0.000000000000
      0.1687144782D+00  0.1000000000D+01  0.1000000000D+01
 D   1 1.00       0.000000000000
      0.8000000000D+00  0.1000000000D+01
 ****
      7 0
 S   6 1.00       0.000000000000
      0.3047524880D+04  0.1834737132D-02
      0.4573695180D+03  0.1403732281D-01
      0.1039486850D+03  0.6884262226D-01
      0.2921015530D+02  0.2321844432D+00
      0.9286662960D+01  0.4679413484D+00
      0.3163926960D+01  0.3623119853D+00
 SP   3 1.00       0.000000000000
      0.7868272350D+01 -0.1193324198D+00  0.6899906659D-01
      0.1881288540D+01 -0.1608541517D+00  0.3164239610D+00
      0.5442492580D+00  0.1143456438D+01  0.7443082909D+00
 SP   1 1.00       0.000000000000
      0.1687144782D+00  0.1000000000D+01  0.1000000000D+01
 D   1 1.00       0.000000000000
      0.8000000000D+00  0.1000000000D+01
 ****
      8 0
 S   6 1.00       0.000000000000
      0.3047524880D+04  0.1834737132D-02
      0.4573695180D+03  0.1403732281D-01
      0.1039486850D+03  0.6884262226D-01
      0.2921015530D+02  0.2321844432D+00
      0.9286662960D+01  0.4679413484D+00
      0.3163926960D+01  0.3623119853D+00
 SP   3 1.00       0.000000000000
      0.7868272350D+01 -0.1193324198D+00  0.6899906659D-01
      0.1881288540D+01 -0.1608541517D+00  0.3164239610D+00
      0.5442492580D+00  0.1143456438D+01  0.7443082909D+00
 SP   1 1.00       0.000000000000
      0.1687144782D+00  0.1000000000D+01  0.1000000000D+01
 D   1 1.00       0.000000000000
      0.8000000000D+00  0.1000000000D+01
 ****
      9 0
 S   3 1.00       0.000000000000
      0.1873113696D+02  0.3349460434D-01
      0.2825394365D+01  0.2347269535D+00
      0.6401216923D+00  0.8137573261D+00
 S   1 1.00       0.000000000000
      0.1612777588D+00  0.1000000000D+01
 ****
     10 0
 S   3 1.00       0.000000000000
      0.1873113696D+02  0.3349460434D-01
      0.2825394365D+01  0.2347269535D+00
      0.6401216923D+00  0.8137573261D+00
 S   1 1.00       0.000000000000
      0.1612777588D+00  0.1000000000D+01
 ****
     11 0
 S   6 1.00       0.000000000000
      0.3047524880D+04  0.1834737132D-02
      0.4573695180D+03  0.1403732281D-01
      0.1039486850D+03  0.6884262226D-01
      0.2921015530D+02  0.2321844432D+00
      0.9286662960D+01  0.4679413484D+00
      0.3163926960D+01  0.3623119853D+00
 SP   3 1.00       0.000000000000
      0.7868272350D+01 -0.1193324198D+00  0.6899906659D-01
      0.1881288540D+01 -0.1608541517D+00  0.3164239610D+00
      0.5442492580D+00  0.1143456438D+01  0.7443082909D+00
 SP   1 1.00       0.000000000000
      0.1687144782D+00  0.1000000000D+01  0.1000000000D+01
 D   1 1.00       0.000000000000
      0.8000000000D+00  0.1000000000D+01
 ****
     12 0
 S   3 1.00       0.000000000000
      0.1873113696D+02  0.3349460434D-01
      0.2825394365D+01  0.2347269535D+00
      0.6401216923D+00  0.8137573261D+00
 S   1 1.00       0.000000000000
      0.1612777588D+00  0.1000000000D+01
 ****
     13 0
 S   3 1.00       0.000000000000
      0.1873113696D+02  0.3349460434D-01
      0.2825394365D+01  0.2347269535D+00
      0.6401216923D+00  0.8137573261D+00
 S   1 1.00       0.000000000000
      0.1612777588D+00  0.1000000000D+01
 ****
     14 0
 S   6 1.00       0.000000000000
      0.3047524880D+04  0.1834737132D-02
      0.4573695180D+03  0.1403732281D-01
      0.1039486850D+03  0.6884262226D-01
      0.2921015530D+02  0.2321844432D+00
      0.9286662960D+01  0.4679413484D+00
      0.3163926960D+01  0.3623119853D+00
 SP   3 1.00       0.000000000000
      0.7868272350D+01 -0.1193324198D+00  0.6899906659D-01
      0.1881288540D+01 -0.1608541517D+00  0.3164239610D+00
      0.5442492580D+00  0.1143456438D+01  0.7443082909D+00
 SP   1 1.00       0.000000000000
      0.1687144782D+00  0.1000000000D+01  0.1000000000D+01
 D   1 1.00       0.000000000000
      0.8000000000D+00  0.1000000000D+01
 ****
     15 0
 S   3 1.00       0.000000000000
      0.1873113696D+02  0.3349460434D-01
      0.2825394365D+01  0.2347269535D+00
      0.6401216923D+00  0.8137573261D+00
 S   1 1.00       0.000000000000
      0.1612777588D+00  0.1000000000D+01
 ****
     16 0
 S   6 1.00       0.000000000000
      0.3047524880D+04  0.1834737132D-02
      0.4573695180D+03  0.1403732281D-01
      0.1039486850D+03  0.6884262226D-01
      0.2921015530D+02  0.2321844432D+00
      0.9286662960D+01  0.4679413484D+00
      0.3163926960D+01  0.3623119853D+00
 SP   3 1.00       0.000000000000
      0.7868272350D+01 -0.1193324198D+00  0.6899906659D-01
      0.1881288540D+01 -0.1608541517D+00  0.3164239610D+00
      0.5442492580D+00  0.1143456438D+01  0.7443082909D+00
 SP   1 1.00       0.000000000000
      0.1687144782D+00  0.1000000000D+01  0.1000000000D+01
 D   1 1.00       0.000000000000
      0.8000000000D+00  0.1000000000D+01
 ****
     17 0
 S   3 1.00       0.000000000000
      0.1873113696D+02  0.3349460434D-01
      0.2825394365D+01  0.2347269535D+00
      0.6401216923D+00  0.8137573261D+00
 S   1 1.00       0.000000000000
      0.1612777588D+00  0.1000000000D+01
 ****
     18 0
 S   6 1.00       0.000000000000
      0.3047524880D+04  0.1834737132D-02
      0.4573695180D+03  0.1403732281D-01
      0.1039486850D+03  0.6884262226D-01
      0.2921015530D+02  0.2321844432D+00
      0.9286662960D+01  0.4679413484D+00
      0.3163926960D+01  0.3623119853D+00
 SP   3 1.00       0.000000000000
      0.7868272350D+01 -0.1193324198D+00  0.6899906659D-01
      0.1881288540D+01 -0.1608541517D+00  0.3164239610D+00
      0.5442492580D+00  0.1143456438D+01  0.7443082909D+00
 SP   1 1.00       0.000000000000
      0.1687144782D+00  0.1000000000D+01  0.1000000000D+01
 D   1 1.00       0.000000000000
      0.8000000000D+00  0.1000000000D+01
 ****
     19 0
 S   3 1.00       0.000000000000
      0.1873113696D+02  0.3349460434D-01
      0.2825394365D+01  0.2347269535D+00
      0.6401216923D+00  0.8137573261D+00
 S   1 1.00       0.000000000000
      0.1612777588D+00  0.1000000000D+01
 ****
     20 0
 S   6 1.00       0.000000000000
      0.3047524880D+04  0.1834737132D-02
      0.4573695180D+03  0.1403732281D-01
      0.1039486850D+03  0.6884262226D-01
      0.2921015530D+02  0.2321844432D+00
      0.9286662960D+01  0.4679413484D+00
      0.3163926960D+01  0.3623119853D+00
 SP   3 1.00       0.000000000000
      0.7868272350D+01 -0.1193324198D+00  0.6899906659D-01
      0.1881288540D+01 -0.1608541517D+00  0.3164239610D+00
      0.5442492580D+00  0.1143456438D+01  0.7443082909D+00
 SP   1 1.00       0.000000000000
      0.1687144782D+00  0.1000000000D+01  0.1000000000D+01
 D   1 1.00       0.000000000000
      0.8000000000D+00  0.1000000000D+01
 ****
     21 0
 S   3 1.00       0.000000000000
      0.1873113696D+02  0.3349460434D-01
      0.2825394365D+01  0.2347269535D+00
      0.6401216923D+00  0.8137573261D+00
 S   1 1.00       0.000000000000
      0.1612777588D+00  0.1000000000D+01
 ****
     22 0
 S   6 1.00       0.000000000000
      0.3047524880D+04  0.1834737132D-02
      0.4573695180D+03  0.1403732281D-01
      0.1039486850D+03  0.6884262226D-01
      0.2921015530D+02  0.2321844432D+00
      0.9286662960D+01  0.4679413484D+00
      0.3163926960D+01  0.3623119853D+00
 SP   3 1.00       0.000000000000
      0.7868272350D+01 -0.1193324198D+00  0.6899906659D-01
      0.1881288540D+01 -0.1608541517D+00  0.3164239610D+00
      0.5442492580D+00  0.1143456438D+01  0.7443082909D+00
 SP   1 1.00       0.000000000000
      0.1687144782D+00  0.1000000000D+01  0.1000000000D+01
 D   1 1.00       0.000000000000
      0.8000000000D+00  0.1000000000D+01
 ****
     23 0
 S   3 1.00       0.000000000000
      0.1873113696D+02  0.3349460434D-01
      0.2825394365D+01  0.2347269535D+00
      0.6401216923D+00  0.8137573261D+00
 S   1 1.00       0.000000000000
      0.1612777588D+00  0.1000000000D+01
 ****
     24 0
 S   3 1.00       0.000000000000
      0.1873113696D+02  0.3349460434D-01
      0.2825394365D+01  0.2347269535D+00
      0.6401216923D+00  0.8137573261D+00
 S   1 1.00       0.000000000000
      0.1612777588D+00  0.1000000000D+01
 ****
     25 0
 S   6 1.00       0.000000000000
      0.3047524880D+04  0.1834737132D-02
      0.4573695180D+03  0.1403732281D-01
      0.1039486850D+03  0.6884262226D-01
      0.2921015530D+02  0.2321844432D+00
      0.9286662960D+01  0.4679413484D+00
      0.3163926960D+01  0.3623119853D+00
 SP   3 1.00       0.000000000000
      0.7868272350D+01 -0.1193324198D+00  0.6899906659D-01
      0.1881288540D+01 -0.1608541517D+00  0.3164239610D+00
      0.5442492580D+00  0.1143456438D+01  0.7443082909D+00
 SP   1 1.00       0.000000000000
      0.1687144782D+00  0.1000000000D+01  0.1000000000D+01
 D   1 1.00       0.000000000000
      0.8000000000D+00  0.1000000000D+01
 ****
     26 0
 S   3 1.00       0.000000000000
      0.1873113696D+02  0.3349460434D-01
      0.2825394365D+01  0.2347269535D+00
      0.6401216923D+00  0.8137573261D+00
 S   1 1.00       0.000000000000
      0.1612777588D+00  0.1000000000D+01
 ****
     27 0
 S   3 1.00       0.000000000000
      0.1873113696D+02  0.3349460434D-01
      0.2825394365D+01  0.2347269535D+00
      0.6401216923D+00  0.8137573261D+00
 S   1 1.00       0.000000000000
      0.1612777588D+00  0.1000000000D+01
 ****
     28 0
 S   6 1.00       0.000000000000
      0.3047524880D+04  0.1834737132D-02
      0.4573695180D+03  0.1403732281D-01
      0.1039486850D+03  0.6884262226D-01
      0.2921015530D+02  0.2321844432D+00
      0.9286662960D+01  0.4679413484D+00
      0.3163926960D+01  0.3623119853D+00
 SP   3 1.00       0.000000000000
      0.7868272350D+01 -0.1193324198D+00  0.6899906659D-01
      0.1881288540D+01 -0.1608541517D+00  0.3164239610D+00
      0.5442492580D+00  0.1143456438D+01  0.7443082909D+00
 SP   1 1.00       0.000000000000
      0.1687144782D+00  0.1000000000D+01  0.1000000000D+01
 D   1 1.00       0.000000000000
      0.8000000000D+00  0.1000000000D+01
 ****
     29 0
 S   6 1.00       0.000000000000
      0.3047524880D+04  0.1834737132D-02
      0.4573695180D+03  0.1403732281D-01
      0.1039486850D+03  0.6884262226D-01
      0.2921015530D+02  0.2321844432D+00
      0.9286662960D+01  0.4679413484D+00
      0.3163926960D+01  0.3623119853D+00
 SP   3 1.00       0.000000000000
      0.7868272350D+01 -0.1193324198D+00  0.6899906659D-01
      0.1881288540D+01 -0.1608541517D+00  0.3164239610D+00
      0.5442492580D+00  0.1143456438D+01  0.7443082909D+00
 SP   1 1.00       0.000000000000
      0.1687144782D+00  0.1000000000D+01  0.1000000000D+01
 D   1 1.00       0.000000000000
      0.8000000000D+00  0.1000000000D+01
 ****
     30 0
 S   3 1.00       0.000000000000
      0.1873113696D+02  0.3349460434D-01
      0.2825394365D+01  0.2347269535D+00
      0.6401216923D+00  0.8137573261D+00
 S   1 1.00       0.000000000000
      0.1612777588D+00  0.1000000000D+01
 ****
     31 0
 S   6 1.00       0.000000000000
      0.3047524880D+04  0.1834737132D-02
      0.4573695180D+03  0.1403732281D-01
      0.1039486850D+03  0.6884262226D-01
      0.2921015530D+02  0.2321844432D+00
      0.9286662960D+01  0.4679413484D+00
      0.3163926960D+01  0.3623119853D+00
 SP   3 1.00       0.000000000000
      0.7868272350D+01 -0.1193324198D+00  0.6899906659D-01
      0.1881288540D+01 -0.1608541517D+00  0.3164239610D+00
      0.5442492580D+00  0.1143456438D+01  0.7443082909D+00
 SP   1 1.00       0.000000000000
      0.1687144782D+00  0.1000000000D+01  0.1000000000D+01
 D   1 1.00       0.000000000000
      0.8000000000D+00  0.1000000000D+01
 ****
     32 0
 S   3 1.00       0.000000000000
      0.1873113696D+02  0.3349460434D-01
      0.2825394365D+01  0.2347269535D+00
      0.6401216923D+00  0.8137573261D+00
 S   1 1.00       0.000000000000
      0.1612777588D+00  0.1000000000D+01
 ****
     33 0
 S   3 1.00       0.000000000000
      0.1873113696D+02  0.3349460434D-01
      0.2825394365D+01  0.2347269535D+00
      0.6401216923D+00  0.8137573261D+00
 S   1 1.00       0.000000000000
      0.1612777588D+00  0.1000000000D+01
 ****
     34 0
 S   6 1.00       0.000000000000
      0.3047524880D+04  0.1834737132D-02
      0.4573695180D+03  0.1403732281D-01
      0.1039486850D+03  0.6884262226D-01
      0.2921015530D+02  0.2321844432D+00
      0.9286662960D+01  0.4679413484D+00
      0.3163926960D+01  0.3623119853D+00
 SP   3 1.00       0.000000000000
      0.7868272350D+01 -0.1193324198D+00  0.6899906659D-01
      0.1881288540D+01 -0.1608541517D+00  0.3164239610D+00
      0.5442492580D+00  0.1143456438D+01  0.7443082909D+00
 SP   1 1.00       0.000000000000
      0.1687144782D+00  0.1000000000D+01  0.1000000000D+01
 D   1 1.00       0.000000000000
      0.8000000000D+00  0.1000000000D+01
 ****
     35 0
 S   3 1.00       0.000000000000
      0.1873113696D+02  0.3349460434D-01
      0.2825394365D+01  0.2347269535D+00
      0.6401216923D+00  0.8137573261D+00
 S   1 1.00       0.000000000000
      0.1612777588D+00  0.1000000000D+01
 ****
     36 0
 S   3 1.00       0.000000000000
      0.1873113696D+02  0.3349460434D-01
      0.2825394365D+01  0.2347269535D+00
      0.6401216923D+00  0.8137573261D+00
 S   1 1.00       0.000000000000
      0.1612777588D+00  0.1000000000D+01
 ****
     37 0
 S   6 1.00       0.000000000000
      0.3047524880D+04  0.1834737132D-02
      0.4573695180D+03  0.1403732281D-01
      0.1039486850D+03  0.6884262226D-01
      0.2921015530D+02  0.2321844432D+00
      0.9286662960D+01  0.4679413484D+00
      0.3163926960D+01  0.3623119853D+00
 SP   3 1.00       0.000000000000
      0.7868272350D+01 -0.1193324198D+00  0.6899906659D-01
      0.1881288540D+01 -0.1608541517D+00  0.3164239610D+00
      0.5442492580D+00  0.1143456438D+01  0.7443082909D+00
 SP   1 1.00       0.000000000000
      0.1687144782D+00  0.1000000000D+01  0.1000000000D+01
 D   1 1.00       0.000000000000
      0.8000000000D+00  0.1000000000D+01
 ****
     38 0
 S   3 1.00       0.000000000000
      0.1873113696D+02  0.3349460434D-01
      0.2825394365D+01  0.2347269535D+00
      0.6401216923D+00  0.8137573261D+00
 S   1 1.00       0.000000000000
      0.1612777588D+00  0.1000000000D+01
 ****
     39 0
 S   6 1.00       0.000000000000
      0.3047524880D+04  0.1834737132D-02
      0.4573695180D+03  0.1403732281D-01
      0.1039486850D+03  0.6884262226D-01
      0.2921015530D+02  0.2321844432D+00
      0.9286662960D+01  0.4679413484D+00
      0.3163926960D+01  0.3623119853D+00
 SP   3 1.00       0.000000000000
      0.7868272350D+01 -0.1193324198D+00  0.6899906659D-01
      0.1881288540D+01 -0.1608541517D+00  0.3164239610D+00
      0.5442492580D+00  0.1143456438D+01  0.7443082909D+00
 SP   1 1.00       0.000000000000
      0.1687144782D+00  0.1000000000D+01  0.1000000000D+01
 D   1 1.00       0.000000000000
      0.8000000000D+00  0.1000000000D+01
 ****
     40 0
 S   3 1.00       0.000000000000
      0.1873113696D+02  0.3349460434D-01
      0.2825394365D+01  0.2347269535D+00
      0.6401216923D+00  0.8137573261D+00
 S   1 1.00       0.000000000000
      0.1612777588D+00  0.1000000000D+01
 ****
     41 0
 S   3 1.00       0.000000000000
      0.1873113696D+02  0.3349460434D-01
      0.2825394365D+01  0.2347269535D+00
      0.6401216923D+00  0.8137573261D+00
 S   1 1.00       0.000000000000
      0.1612777588D+00  0.1000000000D+01
 ****
     42 0
 S   3 1.00       0.000000000000
      0.1873113696D+02  0.3349460434D-01
      0.2825394365D+01  0.2347269535D+00
      0.6401216923D+00  0.8137573261D+00
 S   1 1.00       0.000000000000
      0.1612777588D+00  0.1000000000D+01
 ****
     43 0
 S   6 1.00       0.000000000000
      0.3047524880D+04  0.1834737132D-02
      0.4573695180D+03  0.1403732281D-01
      0.1039486850D+03  0.6884262226D-01
      0.2921015530D+02  0.2321844432D+00
      0.9286662960D+01  0.4679413484D+00
      0.3163926960D+01  0.3623119853D+00
 SP   3 1.00       0.000000000000
      0.7868272350D+01 -0.1193324198D+00  0.6899906659D-01
      0.1881288540D+01 -0.1608541517D+00  0.3164239610D+00
      0.5442492580D+00  0.1143456438D+01  0.7443082909D+00
 SP   1 1.00       0.000000000000
      0.1687144782D+00  0.1000000000D+01  0.1000000000D+01
 D   1 1.00       0.000000000000
      0.8000000000D+00  0.1000000000D+01
 ****
     44 0
 S   3 1.00       0.000000000000
      0.1873113696D+02  0.3349460434D-01
      0.2825394365D+01  0.2347269535D+00
      0.6401216923D+00  0.8137573261D+00
 S   1 1.00       0.000000000000
      0.1612777588D+00  0.1000000000D+01
 ****
     45 0
 S   6 1.00       0.000000000000
      0.3047524880D+04  0.1834737132D-02
      0.4573695180D+03  0.1403732281D-01
      0.1039486850D+03  0.6884262226D-01
      0.2921015530D+02  0.2321844432D+00
      0.9286662960D+01  0.4679413484D+00
      0.3163926960D+01  0.3623119853D+00
 SP   3 1.00       0.000000000000
      0.7868272350D+01 -0.1193324198D+00  0.6899906659D-01
      0.1881288540D+01 -0.1608541517D+00  0.3164239610D+00
      0.5442492580D+00  0.1143456438D+01  0.7443082909D+00
 SP   1 1.00       0.000000000000
      0.1687144782D+00  0.1000000000D+01  0.1000000000D+01
 D   1 1.00       0.000000000000
      0.8000000000D+00  0.1000000000D+01
 ****
     46 0
 S   3 1.00       0.000000000000
      0.1873113696D+02  0.3349460434D-01
      0.2825394365D+01  0.2347269535D+00
      0.6401216923D+00  0.8137573261D+00
 S   1 1.00       0.000000000000
      0.1612777588D+00  0.1000000000D+01
 ****
     47 0
 S   3 1.00       0.000000000000
      0.1873113696D+02  0.3349460434D-01
      0.2825394365D+01  0.2347269535D+00
      0.6401216923D+00  0.8137573261D+00
 S   1 1.00       0.000000000000
      0.1612777588D+00  0.1000000000D+01
 ****
     48 0
 S   3 1.00       0.000000000000
      0.1873113696D+02  0.3349460434D-01
      0.2825394365D+01  0.2347269535D+00
      0.6401216923D+00  0.8137573261D+00
 S   1 1.00       0.000000000000
      0.1612777588D+00  0.1000000000D+01
 ****
     49 0
 S   6 1.00       0.000000000000
      0.3047524880D+04  0.1834737132D-02
      0.4573695180D+03  0.1403732281D-01
      0.1039486850D+03  0.6884262226D-01
      0.2921015530D+02  0.2321844432D+00
      0.9286662960D+01  0.4679413484D+00
      0.3163926960D+01  0.3623119853D+00
 SP   3 1.00       0.000000000000
      0.7868272350D+01 -0.1193324198D+00  0.6899906659D-01
      0.1881288540D+01 -0.1608541517D+00  0.3164239610D+00
      0.5442492580D+00  0.1143456438D+01  0.7443082909D+00
 SP   1 1.00       0.000000000000
      0.1687144782D+00  0.1000000000D+01  0.1000000000D+01
 D   1 1.00       0.000000000000
      0.8000000000D+00  0.1000000000D+01
 ****
     50 0
 S   3 1.00       0.000000000000
      0.1873113696D+02  0.3349460434D-01
      0.2825394365D+01  0.2347269535D+00
      0.6401216923D+00  0.8137573261D+00
 S   1 1.00       0.000000000000
      0.1612777588D+00  0.1000000000D+01
 ****
     51 0
 S   3 1.00       0.000000000000
      0.1873113696D+02  0.3349460434D-01
      0.2825394365D+01  0.2347269535D+00
      0.6401216923D+00  0.8137573261D+00
 S   1 1.00       0.000000000000
      0.1612777588D+00  0.1000000000D+01
 ****
     52 0
 S   3 1.00       0.000000000000
      0.1873113696D+02  0.3349460434D-01
      0.2825394365D+01  0.2347269535D+00
      0.6401216923D+00  0.8137573261D+00
 S   1 1.00       0.000000000000
      0.1612777588D+00  0.1000000000D+01
 ****
     53 0
 S   6 1.00       0.000000000000
      0.5484671660D+04  0.1831074430D-02
      0.8252349460D+03  0.1395017220D-01
      0.1880469580D+03  0.6844507810D-01
      0.5296450000D+02  0.2327143360D+00
      0.1689757040D+02  0.4701928980D+00
      0.5799635340D+01  0.3585208530D+00
 SP   3 1.00       0.000000000000
      0.1553961625D+02 -0.1107775495D+00  0.7087426823D-01
      0.3599933586D+01 -0.1480262627D+00  0.3397528391D+00
      0.1013761750D+01  0.1130767015D+01  0.7271585773D+00
 SP   1 1.00       0.000000000000
      0.2700058226D+00  0.1000000000D+01  0.1000000000D+01
 D   1 1.00       0.000000000000
      0.8000000000D+00  0.1000000000D+01
 ****
     54 0
 S   6 1.00       0.000000000000
      0.5484671660D+04  0.1831074430D-02
      0.8252349460D+03  0.1395017220D-01
      0.1880469580D+03  0.6844507810D-01
      0.5296450000D+02  0.2327143360D+00
      0.1689757040D+02  0.4701928980D+00
      0.5799635340D+01  0.3585208530D+00
 SP   3 1.00       0.000000000000
      0.1553961625D+02 -0.1107775495D+00  0.7087426823D-01
      0.3599933586D+01 -0.1480262627D+00  0.3397528391D+00
      0.1013761750D+01  0.1130767015D+01  0.7271585773D+00
 SP   1 1.00       0.000000000000
      0.2700058226D+00  0.1000000000D+01  0.1000000000D+01
 D   1 1.00       0.000000000000
      0.8000000000D+00  0.1000000000D+01
 ****
     55 0
 S   3 1.00       0.000000000000
      0.1873113696D+02  0.3349460434D-01
      0.2825394365D+01  0.2347269535D+00
      0.6401216923D+00  0.8137573261D+00
 S   1 1.00       0.000000000000
      0.1612777588D+00  0.1000000000D+01
 ****
     56 0
 S   6 1.00       0.000000000000
      0.5484671660D+04  0.1831074430D-02
      0.8252349460D+03  0.1395017220D-01
      0.1880469580D+03  0.6844507810D-01
      0.5296450000D+02  0.2327143360D+00
      0.1689757040D+02  0.4701928980D+00
      0.5799635340D+01  0.3585208530D+00
 SP   3 1.00       0.000000000000
      0.1553961625D+02 -0.1107775495D+00  0.7087426823D-01
      0.3599933586D+01 -0.1480262627D+00  0.3397528391D+00
      0.1013761750D+01  0.1130767015D+01  0.7271585773D+00
 SP   1 1.00       0.000000000000
      0.2700058226D+00  0.1000000000D+01  0.1000000000D+01
 D   1 1.00       0.000000000000
      0.8000000000D+00  0.1000000000D+01
 ****
     57 0
 S   3 1.00       0.000000000000
      0.1873113696D+02  0.3349460434D-01
      0.2825394365D+01  0.2347269535D+00
      0.6401216923D+00  0.8137573261D+00
 S   1 1.00       0.000000000000
      0.1612777588D+00  0.1000000000D+01
 ****
     58 0
 S   6 1.00       0.000000000000
      0.3047524880D+04  0.1834737132D-02
      0.4573695180D+03  0.1403732281D-01
      0.1039486850D+03  0.6884262226D-01
      0.2921015530D+02  0.2321844432D+00
      0.9286662960D+01  0.4679413484D+00
      0.3163926960D+01  0.3623119853D+00
 SP   3 1.00       0.000000000000
      0.7868272350D+01 -0.1193324198D+00  0.6899906659D-01
      0.1881288540D+01 -0.1608541517D+00  0.3164239610D+00
      0.5442492580D+00  0.1143456438D+01  0.7443082909D+00
 SP   1 1.00       0.000000000000
      0.1687144782D+00  0.1000000000D+01  0.1000000000D+01
 D   1 1.00       0.000000000000
      0.8000000000D+00  0.1000000000D+01
 ****
     59 0
 S   3 1.00       0.000000000000
      0.1873113696D+02  0.3349460434D-01
      0.2825394365D+01  0.2347269535D+00
      0.6401216923D+00  0.8137573261D+00
 S   1 1.00       0.000000000000
      0.1612777588D+00  0.1000000000D+01
 ****
     60 0
 S   3 1.00       0.000000000000
      0.1873113696D+02  0.3349460434D-01
      0.2825394365D+01  0.2347269535D+00
      0.6401216923D+00  0.8137573261D+00
 S   1 1.00       0.000000000000
      0.1612777588D+00  0.1000000000D+01
 ****
     61 0
 S   6 1.00       0.000000000000
      0.3047524880D+04  0.1834737132D-02
      0.4573695180D+03  0.1403732281D-01
      0.1039486850D+03  0.6884262226D-01
      0.2921015530D+02  0.2321844432D+00
      0.9286662960D+01  0.4679413484D+00
      0.3163926960D+01  0.3623119853D+00
 SP   3 1.00       0.000000000000
      0.7868272350D+01 -0.1193324198D+00  0.6899906659D-01
      0.1881288540D+01 -0.1608541517D+00  0.3164239610D+00
      0.5442492580D+00  0.1143456438D+01  0.7443082909D+00
 SP   1 1.00       0.000000000000
      0.1687144782D+00  0.1000000000D+01  0.1000000000D+01
 D   1 1.00       0.000000000000
      0.8000000000D+00  0.1000000000D+01
 ****
     62 0
 S   3 1.00       0.000000000000
      0.1873113696D+02  0.3349460434D-01
      0.2825394365D+01  0.2347269535D+00
      0.6401216923D+00  0.8137573261D+00
 S   1 1.00       0.000000000000
      0.1612777588D+00  0.1000000000D+01
 ****
     63 0
 S   3 1.00       0.000000000000
      0.1873113696D+02  0.3349460434D-01
      0.2825394365D+01  0.2347269535D+00
      0.6401216923D+00  0.8137573261D+00
 S   1 1.00       0.000000000000
      0.1612777588D+00  0.1000000000D+01
 ****
     64 0
 S   6 1.00       0.000000000000
      0.3047524880D+04  0.1834737132D-02
      0.4573695180D+03  0.1403732281D-01
      0.1039486850D+03  0.6884262226D-01
      0.2921015530D+02  0.2321844432D+00
      0.9286662960D+01  0.4679413484D+00
      0.3163926960D+01  0.3623119853D+00
 SP   3 1.00       0.000000000000
      0.7868272350D+01 -0.1193324198D+00  0.6899906659D-01
      0.1881288540D+01 -0.1608541517D+00  0.3164239610D+00
      0.5442492580D+00  0.1143456438D+01  0.7443082909D+00
 SP   1 1.00       0.000000000000
      0.1687144782D+00  0.1000000000D+01  0.1000000000D+01
 D   1 1.00       0.000000000000
      0.8000000000D+00  0.1000000000D+01
 ****
     65 0
 S   3 1.00       0.000000000000
      0.1873113696D+02  0.3349460434D-01
      0.2825394365D+01  0.2347269535D+00
      0.6401216923D+00  0.8137573261D+00
 S   1 1.00       0.000000000000
      0.1612777588D+00  0.1000000000D+01
 ****
     66 0
 S   3 1.00       0.000000000000
      0.1873113696D+02  0.3349460434D-01
      0.2825394365D+01  0.2347269535D+00
      0.6401216923D+00  0.8137573261D+00
 S   1 1.00       0.000000000000
      0.1612777588D+00  0.1000000000D+01
 ****
     67 0
 S   6 1.00       0.000000000000
      0.3047524880D+04  0.1834737132D-02
      0.4573695180D+03  0.1403732281D-01
      0.1039486850D+03  0.6884262226D-01
      0.2921015530D+02  0.2321844432D+00
      0.9286662960D+01  0.4679413484D+00
      0.3163926960D+01  0.3623119853D+00
 SP   3 1.00       0.000000000000
      0.7868272350D+01 -0.1193324198D+00  0.6899906659D-01
      0.1881288540D+01 -0.1608541517D+00  0.3164239610D+00
      0.5442492580D+00  0.1143456438D+01  0.7443082909D+00
 SP   1 1.00       0.000000000000
      0.1687144782D+00  0.1000000000D+01  0.1000000000D+01
 D   1 1.00       0.000000000000
      0.8000000000D+00  0.1000000000D+01
 ****
     68 0
 S   3 1.00       0.000000000000
      0.1873113696D+02  0.3349460434D-01
      0.2825394365D+01  0.2347269535D+00
      0.6401216923D+00  0.8137573261D+00
 S   1 1.00       0.000000000000
      0.1612777588D+00  0.1000000000D+01
 ****
     69 0
 S   6 1.00       0.000000000000
      0.3047524880D+04  0.1834737132D-02
      0.4573695180D+03  0.1403732281D-01
      0.1039486850D+03  0.6884262226D-01
      0.2921015530D+02  0.2321844432D+00
      0.9286662960D+01  0.4679413484D+00
      0.3163926960D+01  0.3623119853D+00
 SP   3 1.00       0.000000000000
      0.7868272350D+01 -0.1193324198D+00  0.6899906659D-01
      0.1881288540D+01 -0.1608541517D+00  0.3164239610D+00
      0.5442492580D+00  0.1143456438D+01  0.7443082909D+00
 SP   1 1.00       0.000000000000
      0.1687144782D+00  0.1000000000D+01  0.1000000000D+01
 D   1 1.00       0.000000000000
      0.8000000000D+00  0.1000000000D+01
 ****
     70 0
 S   3 1.00       0.000000000000
      0.1873113696D+02  0.3349460434D-01
      0.2825394365D+01  0.2347269535D+00
      0.6401216923D+00  0.8137573261D+00
 S   1 1.00       0.000000000000
      0.1612777588D+00  0.1000000000D+01
 ****
     71 0
 S   3 1.00       0.000000000000
      0.1873113696D+02  0.3349460434D-01
      0.2825394365D+01  0.2347269535D+00
      0.6401216923D+00  0.8137573261D+00
 S   1 1.00       0.000000000000
      0.1612777588D+00  0.1000000000D+01
 ****
     72 0
 S   3 1.00       0.000000000000
      0.1873113696D+02  0.3349460434D-01
      0.2825394365D+01  0.2347269535D+00
      0.6401216923D+00  0.8137573261D+00
 S   1 1.00       0.000000000000
      0.1612777588D+00  0.1000000000D+01
 ****
     73 0
 S   6 1.00       0.000000000000
      0.3047524880D+04  0.1834737132D-02
      0.4573695180D+03  0.1403732281D-01
      0.1039486850D+03  0.6884262226D-01
      0.2921015530D+02  0.2321844432D+00
      0.9286662960D+01  0.4679413484D+00
      0.3163926960D+01  0.3623119853D+00
 SP   3 1.00       0.000000000000
      0.7868272350D+01 -0.1193324198D+00  0.6899906659D-01
      0.1881288540D+01 -0.1608541517D+00  0.3164239610D+00
      0.5442492580D+00  0.1143456438D+01  0.7443082909D+00
 SP   1 1.00       0.000000000000
      0.1687144782D+00  0.1000000000D+01  0.1000000000D+01
 D   1 1.00       0.000000000000
      0.8000000000D+00  0.1000000000D+01
 ****
     74 0
 S   3 1.00       0.000000000000
      0.1873113696D+02  0.3349460434D-01
      0.2825394365D+01  0.2347269535D+00
      0.6401216923D+00  0.8137573261D+00
 S   1 1.00       0.000000000000
      0.1612777588D+00  0.1000000000D+01
 ****
     75 0
 S   3 1.00       0.000000000000
      0.1873113696D+02  0.3349460434D-01
      0.2825394365D+01  0.2347269535D+00
      0.6401216923D+00  0.8137573261D+00
 S   1 1.00       0.000000000000
      0.1612777588D+00  0.1000000000D+01
 ****
     76 0
 S   3 1.00       0.000000000000
      0.1873113696D+02  0.3349460434D-01
      0.2825394365D+01  0.2347269535D+00
      0.6401216923D+00  0.8137573261D+00
 S   1 1.00       0.000000000000
      0.1612777588D+00  0.1000000000D+01
 ****

 AO basis set (Overlap normalization):
 Atom C1       Shell     1 S   6     bf    1 -     1          3.318175596940         -2.352181877441          0.269259876818
      0.3047524880D+04  0.1834737132D-02
      0.4573695180D+03  0.1403732281D-01
      0.1039486850D+03  0.6884262226D-01
      0.2921015530D+02  0.2321844432D+00
      0.9286662960D+01  0.4679413484D+00
      0.3163926960D+01  0.3623119853D+00
 Atom C1       Shell     2 SP   3    bf    2 -     5          3.318175596940         -2.352181877441          0.269259876818
      0.7868272350D+01 -0.1193324198D+00  0.6899906659D-01
      0.1881288540D+01 -0.1608541517D+00  0.3164239610D+00
      0.5442492580D+00  0.1143456438D+01  0.7443082909D+00
 Atom C1       Shell     3 SP   1    bf    6 -     9          3.318175596940         -2.352181877441          0.269259876818
      0.1687144782D+00  0.1000000000D+01  0.1000000000D+01
 Atom C1       Shell     4 D   1     bf   10 -    15          3.318175596940         -2.352181877441          0.269259876818
      0.8000000000D+00  0.1000000000D+01
 Atom H2       Shell     5 S   3     bf   16 -    16          3.562031488511         -2.411884751047         -1.787799861073
      0.1873113696D+02  0.3349460434D-01
      0.2825394365D+01  0.2347269535D+00
      0.6401216923D+00  0.8137573261D+00
 Atom H2       Shell     6 S   1     bf   17 -    17          3.562031488511         -2.411884751047         -1.787799861073
      0.1612777588D+00  0.1000000000D+01
 Atom C3       Shell     7 S   6     bf   18 -    18          5.938799269858         -2.296863319640          1.522538588060
      0.3047524880D+04  0.1834737132D-02
      0.4573695180D+03  0.1403732281D-01
      0.1039486850D+03  0.6884262226D-01
      0.2921015530D+02  0.2321844432D+00
      0.9286662960D+01  0.4679413484D+00
      0.3163926960D+01  0.3623119853D+00
 Atom C3       Shell     8 SP   3    bf   19 -    22          5.938799269858         -2.296863319640          1.522538588060
      0.7868272350D+01 -0.1193324198D+00  0.6899906659D-01
      0.1881288540D+01 -0.1608541517D+00  0.3164239610D+00
      0.5442492580D+00  0.1143456438D+01  0.7443082909D+00
 Atom C3       Shell     9 SP   1    bf   23 -    26          5.938799269858         -2.296863319640          1.522538588060
      0.1687144782D+00  0.1000000000D+01  0.1000000000D+01
 Atom C3       Shell    10 D   1     bf   27 -    32          5.938799269858         -2.296863319640          1.522538588060
      0.8000000000D+00  0.1000000000D+01
 Atom H4       Shell    11 S   3     bf   33 -    33          7.034708429562         -3.942551637020          0.916190459698
      0.1873113696D+02  0.3349460434D-01
      0.2825394365D+01  0.2347269535D+00
      0.6401216923D+00  0.8137573261D+00
 Atom H4       Shell    12 S   1     bf   34 -    34          7.034708429562         -3.942551637020          0.916190459698
      0.1612777588D+00  0.1000000000D+01
 Atom H5       Shell    13 S   3     bf   35 -    35          5.662671164513         -2.485233412649          3.576707970933
      0.1873113696D+02  0.3349460434D-01
      0.2825394365D+01  0.2347269535D+00
      0.6401216923D+00  0.8137573261D+00
 Atom H5       Shell    14 S   1     bf   36 -    36          5.662671164513         -2.485233412649          3.576707970933
      0.1612777588D+00  0.1000000000D+01
 Atom C6       Shell    15 S   6     bf   37 -    37          7.368013940715          0.118390472951          0.942487869666
      0.3047524880D+04  0.1834737132D-02
      0.4573695180D+03  0.1403732281D-01
      0.1039486850D+03  0.6884262226D-01
      0.2921015530D+02  0.2321844432D+00
      0.9286662960D+01  0.4679413484D+00
      0.3163926960D+01  0.3623119853D+00
 Atom C6       Shell    16 SP   3    bf   38 -    41          7.368013940715          0.118390472951          0.942487869666
      0.7868272350D+01 -0.1193324198D+00  0.6899906659D-01
      0.1881288540D+01 -0.1608541517D+00  0.3164239610D+00
      0.5442492580D+00  0.1143456438D+01  0.7443082909D+00
 Atom C6       Shell    17 SP   1    bf   42 -    45          7.368013940715          0.118390472951          0.942487869666
      0.1687144782D+00  0.1000000000D+01  0.1000000000D+01
 Atom C6       Shell    18 D   1     bf   46 -    51          7.368013940715          0.118390472951          0.942487869666
      0.8000000000D+00  0.1000000000D+01
 Atom C7       Shell    19 S   6     bf   52 -    52          5.992698322079          2.612616449759          1.469015307880
      0.3047524880D+04  0.1834737132D-02
      0.4573695180D+03  0.1403732281D-01
      0.1039486850D+03  0.6884262226D-01
      0.2921015530D+02  0.2321844432D+00
      0.9286662960D+01  0.4679413484D+00
      0.3163926960D+01  0.3623119853D+00
 Atom C7       Shell    20 SP   3    bf   53 -    56          5.992698322079          2.612616449759          1.469015307880
      0.7868272350D+01 -0.1193324198D+00  0.6899906659D-01
      0.1881288540D+01 -0.1608541517D+00  0.3164239610D+00
      0.5442492580D+00  0.1143456438D+01  0.7443082909D+00
 Atom C7       Shell    21 SP   1    bf   57 -    60          5.992698322079          2.612616449759          1.469015307880
      0.1687144782D+00  0.1000000000D+01  0.1000000000D+01
 Atom C7       Shell    22 D   1     bf   61 -    66          5.992698322079          2.612616449759          1.469015307880
      0.8000000000D+00  0.1000000000D+01
 Atom C8       Shell    23 S   6     bf   67 -    67          3.293758407782          2.427922724456          0.296016905976
      0.3047524880D+04  0.1834737132D-02
      0.4573695180D+03  0.1403732281D-01
      0.1039486850D+03  0.6884262226D-01
      0.2921015530D+02  0.2321844432D+00
      0.9286662960D+01  0.4679413484D+00
      0.3163926960D+01  0.3623119853D+00
 Atom C8       Shell    24 SP   3    bf   68 -    71          3.293758407782          2.427922724456          0.296016905976
      0.7868272350D+01 -0.1193324198D+00  0.6899906659D-01
      0.1881288540D+01 -0.1608541517D+00  0.3164239610D+00
      0.5442492580D+00  0.1143456438D+01  0.7443082909D+00
 Atom C8       Shell    25 SP   1    bf   72 -    75          3.293758407782          2.427922724456          0.296016905976
      0.1687144782D+00  0.1000000000D+01  0.1000000000D+01
 Atom C8       Shell    26 D   1     bf   76 -    81          3.293758407782          2.427922724456          0.296016905976
      0.8000000000D+00  0.1000000000D+01
 Atom H9       Shell    27 S   3     bf   82 -    82          3.479677355921          2.520714740444         -1.769084637062
      0.1873113696D+02  0.3349460434D-01
      0.2825394365D+01  0.2347269535D+00
      0.6401216923D+00  0.8137573261D+00
 Atom H9       Shell    28 S   1     bf   83 -    83          3.479677355921          2.520714740444         -1.769084637062
      0.1612777588D+00  0.1000000000D+01
 Atom H10      Shell    29 S   3     bf   84 -    84          2.187488654480          4.082989544763          0.862404583175
      0.1873113696D+02  0.3349460434D-01
      0.2825394365D+01  0.2347269535D+00
      0.6401216923D+00  0.8137573261D+00
 Atom H10      Shell    30 S   1     bf   85 -    85          2.187488654480          4.082989544763          0.862404583175
      0.1612777588D+00  0.1000000000D+01
 Atom C11      Shell    31 S   6     bf   86 -    86          1.825345091059          0.017166839109          0.978075645735
      0.3047524880D+04  0.1834737132D-02
      0.4573695180D+03  0.1403732281D-01
      0.1039486850D+03  0.6884262226D-01
      0.2921015530D+02  0.2321844432D+00
      0.9286662960D+01  0.4679413484D+00
      0.3163926960D+01  0.3623119853D+00
 Atom C11      Shell    32 SP   3    bf   87 -    90          1.825345091059          0.017166839109          0.978075645735
      0.7868272350D+01 -0.1193324198D+00  0.6899906659D-01
      0.1881288540D+01 -0.1608541517D+00  0.3164239610D+00
      0.5442492580D+00  0.1143456438D+01  0.7443082909D+00
 Atom C11      Shell    33 SP   1    bf   91 -    94          1.825345091059          0.017166839109          0.978075645735
      0.1687144782D+00  0.1000000000D+01  0.1000000000D+01
 Atom C11      Shell    34 D   1     bf   95 -   100          1.825345091059          0.017166839109          0.978075645735
      0.8000000000D+00  0.1000000000D+01
 Atom H12      Shell    35 S   3     bf  101 -   101          1.408536947360         -0.028903833634          3.014406410757
      0.1873113696D+02  0.3349460434D-01
      0.2825394365D+01  0.2347269535D+00
      0.6401216923D+00  0.8137573261D+00
 Atom H12      Shell    36 S   1     bf  102 -   102          1.408536947360         -0.028903833634          3.014406410757
      0.1612777588D+00  0.1000000000D+01
 Atom H13      Shell    37 S   3     bf  103 -   103          0.000000000000          0.000000000000          0.000000000000
      0.1873113696D+02  0.3349460434D-01
      0.2825394365D+01  0.2347269535D+00
      0.6401216923D+00  0.8137573261D+00
 Atom H13      Shell    38 S   1     bf  104 -   104          0.000000000000          0.000000000000          0.000000000000
      0.1612777588D+00  0.1000000000D+01
 Atom C14      Shell    39 S   6     bf  105 -   105          9.718834667320          0.000000000000          0.000000000000
      0.3047524880D+04  0.1834737132D-02
      0.4573695180D+03  0.1403732281D-01
      0.1039486850D+03  0.6884262226D-01
      0.2921015530D+02  0.2321844432D+00
      0.9286662960D+01  0.4679413484D+00
      0.3163926960D+01  0.3623119853D+00
 Atom C14      Shell    40 SP   3    bf  106 -   109          9.718834667320          0.000000000000          0.000000000000
      0.7868272350D+01 -0.1193324198D+00  0.6899906659D-01
      0.1881288540D+01 -0.1608541517D+00  0.3164239610D+00
      0.5442492580D+00  0.1143456438D+01  0.7443082909D+00
 Atom C14      Shell    41 SP   1    bf  110 -   113          9.718834667320          0.000000000000          0.000000000000
      0.1687144782D+00  0.1000000000D+01  0.1000000000D+01
 Atom C14      Shell    42 D   1     bf  114 -   119          9.718834667320          0.000000000000          0.000000000000
      0.8000000000D+00  0.1000000000D+01
 Atom H15      Shell    43 S   3     bf  120 -   120         10.559816596957         -1.834852246542         -0.396907154334
      0.1873113696D+02  0.3349460434D-01
      0.2825394365D+01  0.2347269535D+00
      0.6401216923D+00  0.8137573261D+00
 Atom H15      Shell    44 S   1     bf  121 -   121         10.559816596957         -1.834852246542         -0.396907154334
      0.1612777588D+00  0.1000000000D+01
 Atom C16      Shell    45 S   6     bf  122 -   122         11.286747507351          2.260564553011         -0.683529173457
      0.3047524880D+04  0.1834737132D-02
      0.4573695180D+03  0.1403732281D-01
      0.1039486850D+03  0.6884262226D-01
      0.2921015530D+02  0.2321844432D+00
      0.9286662960D+01  0.4679413484D+00
      0.3163926960D+01  0.3623119853D+00
 Atom C16      Shell    46 SP   3    bf  123 -   126         11.286747507351          2.260564553011         -0.683529173457
      0.7868272350D+01 -0.1193324198D+00  0.6899906659D-01
      0.1881288540D+01 -0.1608541517D+00  0.3164239610D+00
      0.5442492580D+00  0.1143456438D+01  0.7443082909D+00
 Atom C16      Shell    47 SP   1    bf  127 -   130         11.286747507351          2.260564553011         -0.683529173457
      0.1687144782D+00  0.1000000000D+01  0.1000000000D+01
 Atom C16      Shell    48 D   1     bf  131 -   136         11.286747507351          2.260564553011         -0.683529173457
      0.8000000000D+00  0.1000000000D+01
 Atom H17      Shell    49 S   3     bf  137 -   137         13.279888827270          1.926751272446         -0.234376779624
      0.1873113696D+02  0.3349460434D-01
      0.2825394365D+01  0.2347269535D+00
      0.6401216923D+00  0.8137573261D+00
 Atom H17      Shell    50 S   1     bf  138 -   138         13.279888827270          1.926751272446         -0.234376779624
      0.1612777588D+00  0.1000000000D+01
 Atom C18      Shell    51 S   6     bf  139 -   139         10.331993311972          4.697064234159          0.593271185727
      0.3047524880D+04  0.1834737132D-02
      0.4573695180D+03  0.1403732281D-01
      0.1039486850D+03  0.6884262226D-01
      0.2921015530D+02  0.2321844432D+00
      0.9286662960D+01  0.4679413484D+00
      0.3163926960D+01  0.3623119853D+00
 Atom C18      Shell    52 SP   3    bf  140 -   143         10.331993311972          4.697064234159          0.593271185727
      0.7868272350D+01 -0.1193324198D+00  0.6899906659D-01
      0.1881288540D+01 -0.1608541517D+00  0.3164239610D+00
      0.5442492580D+00  0.1143456438D+01  0.7443082909D+00
 Atom C18      Shell    53 SP   1    bf  144 -   147         10.331993311972          4.697064234159          0.593271185727
      0.1687144782D+00  0.1000000000D+01  0.1000000000D+01
 Atom C18      Shell    54 D   1     bf  148 -   153         10.331993311972          4.697064234159          0.593271185727
      0.8000000000D+00  0.1000000000D+01
 Atom H19      Shell    55 S   3     bf  154 -   154         10.756501995176          4.464140691725          2.614790711956
      0.1873113696D+02  0.3349460434D-01
      0.2825394365D+01  0.2347269535D+00
      0.6401216923D+00  0.8137573261D+00
 Atom H19      Shell    56 S   1     bf  155 -   155         10.756501995176          4.464140691725          2.614790711956
      0.1612777588D+00  0.1000000000D+01
 Atom C20      Shell    57 S   6     bf  156 -   156          7.428048480156          4.879894387139          0.204866873025
      0.3047524880D+04  0.1834737132D-02
      0.4573695180D+03  0.1403732281D-01
      0.1039486850D+03  0.6884262226D-01
      0.2921015530D+02  0.2321844432D+00
      0.9286662960D+01  0.4679413484D+00
      0.3163926960D+01  0.3623119853D+00
 Atom C20      Shell    58 SP   3    bf  157 -   160          7.428048480156          4.879894387139          0.204866873025
      0.7868272350D+01 -0.1193324198D+00  0.6899906659D-01
      0.1881288540D+01 -0.1608541517D+00  0.3164239610D+00
      0.5442492580D+00  0.1143456438D+01  0.7443082909D+00
 Atom C20      Shell    59 SP   1    bf  161 -   164          7.428048480156          4.879894387139          0.204866873025
      0.1687144782D+00  0.1000000000D+01  0.1000000000D+01
 Atom C20      Shell    60 D   1     bf  165 -   170          7.428048480156          4.879894387139          0.204866873025
      0.8000000000D+00  0.1000000000D+01
 Atom H21      Shell    61 S   3     bf  171 -   171          7.142189589137          4.669859566674         -1.843249660353
      0.1873113696D+02  0.3349460434D-01
      0.2825394365D+01  0.2347269535D+00
      0.6401216923D+00  0.8137573261D+00
 Atom H21      Shell    62 S   1     bf  172 -   172          7.142189589137          4.669859566674         -1.843249660353
      0.1612777588D+00  0.1000000000D+01
 Atom C22      Shell    63 S   6     bf  173 -   173          6.332329237929          7.487784272792          0.936688734802
      0.3047524880D+04  0.1834737132D-02
      0.4573695180D+03  0.1403732281D-01
      0.1039486850D+03  0.6884262226D-01
      0.2921015530D+02  0.2321844432D+00
      0.9286662960D+01  0.4679413484D+00
      0.3163926960D+01  0.3623119853D+00
 Atom C22      Shell    64 SP   3    bf  174 -   177          6.332329237929          7.487784272792          0.936688734802
      0.7868272350D+01 -0.1193324198D+00  0.6899906659D-01
      0.1881288540D+01 -0.1608541517D+00  0.3164239610D+00
      0.5442492580D+00  0.1143456438D+01  0.7443082909D+00
 Atom C22      Shell    65 SP   1    bf  178 -   181          6.332329237929          7.487784272792          0.936688734802
      0.1687144782D+00  0.1000000000D+01  0.1000000000D+01
 Atom C22      Shell    66 D   1     bf  182 -   187          6.332329237929          7.487784272792          0.936688734802
      0.8000000000D+00  0.1000000000D+01
 Atom H23      Shell    67 S   3     bf  188 -   188          6.220649352551          7.668414973526          2.994315522813
      0.1873113696D+02  0.3349460434D-01
      0.2825394365D+01  0.2347269535D+00
      0.6401216923D+00  0.8137573261D+00
 Atom H23      Shell    68 S   1     bf  189 -   189          6.220649352551          7.668414973526          2.994315522813
      0.1612777588D+00  0.1000000000D+01
 Atom H24      Shell    69 S   3     bf  190 -   190          4.383552489308          7.628013290209          0.248764001667
      0.1873113696D+02  0.3349460434D-01
      0.2825394365D+01  0.2347269535D+00
      0.6401216923D+00  0.8137573261D+00
 Atom H24      Shell    70 S   1     bf  191 -   191          4.383552489308          7.628013290209          0.248764001667
      0.1612777588D+00  0.1000000000D+01
 Atom C25      Shell    71 S   6     bf  192 -   192          7.843755744998          9.751765601829         -0.096681431418
      0.3047524880D+04  0.1834737132D-02
      0.4573695180D+03  0.1403732281D-01
      0.1039486850D+03  0.6884262226D-01
      0.2921015530D+02  0.2321844432D+00
      0.9286662960D+01  0.4679413484D+00
      0.3163926960D+01  0.3623119853D+00
 Atom C25      Shell    72 SP   3    bf  193 -   196          7.843755744998          9.751765601829         -0.096681431418
      0.7868272350D+01 -0.1193324198D+00  0.6899906659D-01
      0.1881288540D+01 -0.1608541517D+00  0.3164239610D+00
      0.5442492580D+00  0.1143456438D+01  0.7443082909D+00
 Atom C25      Shell    73 SP   1    bf  197 -   200          7.843755744998          9.751765601829         -0.096681431418
      0.1687144782D+00  0.1000000000D+01  0.1000000000D+01
 Atom C25      Shell    74 D   1     bf  201 -   206          7.843755744998          9.751765601829         -0.096681431418
      0.8000000000D+00  0.1000000000D+01
 Atom H26      Shell    75 S   3     bf  207 -   207          7.739109760438          9.775672621623         -2.171342059613
      0.1873113696D+02  0.3349460434D-01
      0.2825394365D+01  0.2347269535D+00
      0.6401216923D+00  0.8137573261D+00
 Atom H26      Shell    76 S   1     bf  208 -   208          7.739109760438          9.775672621623         -2.171342059613
      0.1612777588D+00  0.1000000000D+01
 Atom H27      Shell    77 S   3     bf  209 -   209          6.939598551088         11.491929964640          0.559428704023
      0.1873113696D+02  0.3349460434D-01
      0.2825394365D+01  0.2347269535D+00
      0.6401216923D+00  0.8137573261D+00
 Atom H27      Shell    78 S   1     bf  210 -   210          6.939598551088         11.491929964640          0.559428704023
      0.1612777588D+00  0.1000000000D+01
 Atom C28      Shell    79 S   6     bf  211 -   211         10.643406421466          9.613903541983          0.693146575563
      0.3047524880D+04  0.1834737132D-02
      0.4573695180D+03  0.1403732281D-01
      0.1039486850D+03  0.6884262226D-01
      0.2921015530D+02  0.2321844432D+00
      0.9286662960D+01  0.4679413484D+00
      0.3163926960D+01  0.3623119853D+00
 Atom C28      Shell    80 SP   3    bf  212 -   215         10.643406421466          9.613903541983          0.693146575563
      0.7868272350D+01 -0.1193324198D+00  0.6899906659D-01
      0.1881288540D+01 -0.1608541517D+00  0.3164239610D+00
      0.5442492580D+00  0.1143456438D+01  0.7443082909D+00
 Atom C28      Shell    81 SP   1    bf  216 -   219         10.643406421466          9.613903541983          0.693146575563
      0.1687144782D+00  0.1000000000D+01  0.1000000000D+01
 Atom C28      Shell    82 D   1     bf  220 -   225         10.643406421466          9.613903541983          0.693146575563
      0.8000000000D+00  0.1000000000D+01
 Atom C29      Shell    83 S   6     bf  226 -   226         11.685549149928          7.076541353657         -0.371420625850
      0.3047524880D+04  0.1834737132D-02
      0.4573695180D+03  0.1403732281D-01
      0.1039486850D+03  0.6884262226D-01
      0.2921015530D+02  0.2321844432D+00
      0.9286662960D+01  0.4679413484D+00
      0.3163926960D+01  0.3623119853D+00
 Atom C29      Shell    84 SP   3    bf  227 -   230         11.685549149928          7.076541353657         -0.371420625850
      0.7868272350D+01 -0.1193324198D+00  0.6899906659D-01
      0.1881288540D+01 -0.1608541517D+00  0.3164239610D+00
      0.5442492580D+00  0.1143456438D+01  0.7443082909D+00
 Atom C29      Shell    85 SP   1    bf  231 -   234         11.685549149928          7.076541353657         -0.371420625850
      0.1687144782D+00  0.1000000000D+01  0.1000000000D+01
 Atom C29      Shell    86 D   1     bf  235 -   240         11.685549149928          7.076541353657         -0.371420625850
      0.8000000000D+00  0.1000000000D+01
 Atom H30      Shell    87 S   3     bf  241 -   241         11.340410287113          7.155163976334         -2.418516329171
      0.1873113696D+02  0.3349460434D-01
      0.2825394365D+01  0.2347269535D+00
      0.6401216923D+00  0.8137573261D+00
 Atom H30      Shell    88 S   1     bf  242 -   242         11.340410287113          7.155163976334         -2.418516329171
      0.1612777588D+00  0.1000000000D+01
 Atom C31      Shell    89 S   6     bf  243 -   243         14.556370843190          7.291605453457          0.000000000000
      0.3047524880D+04  0.1834737132D-02
      0.4573695180D+03  0.1403732281D-01
      0.1039486850D+03  0.6884262226D-01
      0.2921015530D+02  0.2321844432D+00
      0.9286662960D+01  0.4679413484D+00
      0.3163926960D+01  0.3623119853D+00
 Atom C31      Shell    90 SP   3    bf  244 -   247         14.556370843190          7.291605453457          0.000000000000
      0.7868272350D+01 -0.1193324198D+00  0.6899906659D-01
      0.1881288540D+01 -0.1608541517D+00  0.3164239610D+00
      0.5442492580D+00  0.1143456438D+01  0.7443082909D+00
 Atom C31      Shell    91 SP   1    bf  248 -   251         14.556370843190          7.291605453457          0.000000000000
      0.1687144782D+00  0.1000000000D+01  0.1000000000D+01
 Atom C31      Shell    92 D   1     bf  252 -   257         14.556370843190          7.291605453457          0.000000000000
      0.8000000000D+00  0.1000000000D+01
 Atom H32      Shell    93 S   3     bf  258 -   258         15.602186348878          6.055475118700         -1.277721506188
      0.1873113696D+02  0.3349460434D-01
      0.2825394365D+01  0.2347269535D+00
      0.6401216923D+00  0.8137573261D+00
 Atom H32      Shell    94 S   1     bf  259 -   259         15.602186348878          6.055475118700         -1.277721506188
      0.1612777588D+00  0.1000000000D+01
 Atom H33      Shell    95 S   3     bf  260 -   260         15.084752348404          6.766651193352          1.936142606614
      0.1873113696D+02  0.3349460434D-01
      0.2825394365D+01  0.2347269535D+00
      0.6401216923D+00  0.8137573261D+00
 Atom H33      Shell    96 S   1     bf  261 -   261         15.084752348404          6.766651193352          1.936142606614
      0.1612777588D+00  0.1000000000D+01
 Atom C34      Shell    97 S   6     bf  262 -   262         15.101768595238         10.129744333251         -0.505899792460
      0.3047524880D+04  0.1834737132D-02
      0.4573695180D+03  0.1403732281D-01
      0.1039486850D+03  0.6884262226D-01
      0.2921015530D+02  0.2321844432D+00
      0.9286662960D+01  0.4679413484D+00
      0.3163926960D+01  0.3623119853D+00
 Atom C34      Shell    98 SP   3    bf  263 -   266         15.101768595238         10.129744333251         -0.505899792460
      0.7868272350D+01 -0.1193324198D+00  0.6899906659D-01
      0.1881288540D+01 -0.1608541517D+00  0.3164239610D+00
      0.5442492580D+00  0.1143456438D+01  0.7443082909D+00
 Atom C34      Shell    99 SP   1    bf  267 -   270         15.101768595238         10.129744333251         -0.505899792460
      0.1687144782D+00  0.1000000000D+01  0.1000000000D+01
 Atom C34      Shell   100 D   1     bf  271 -   276         15.101768595238         10.129744333251         -0.505899792460
      0.8000000000D+00  0.1000000000D+01
 Atom H35      Shell   101 S   3     bf  277 -   277         16.279268835016         10.939675435805          0.995325122568
      0.1873113696D+02  0.3349460434D-01
      0.2825394365D+01  0.2347269535D+00
      0.6401216923D+00  0.8137573261D+00
 Atom H35      Shell   102 S   1     bf  278 -   278         16.279268835016         10.939675435805          0.995325122568
      0.1612777588D+00  0.1000000000D+01
 Atom H36      Shell   103 S   3     bf  279 -   279         16.152263818721         10.377049523035         -2.269249431962
      0.1873113696D+02  0.3349460434D-01
      0.2825394365D+01  0.2347269535D+00
      0.6401216923D+00  0.8137573261D+00
 Atom H36      Shell   104 S   1     bf  280 -   280         16.152263818721         10.377049523035         -2.269249431962
      0.1612777588D+00  0.1000000000D+01
 Atom C37      Shell   105 S   6     bf  281 -   281         12.488219811296         11.518518921556         -0.631130960628
      0.3047524880D+04  0.1834737132D-02
      0.4573695180D+03  0.1403732281D-01
      0.1039486850D+03  0.6884262226D-01
      0.2921015530D+02  0.2321844432D+00
      0.9286662960D+01  0.4679413484D+00
      0.3163926960D+01  0.3623119853D+00
 Atom C37      Shell   106 SP   3    bf  282 -   285         12.488219811296         11.518518921556         -0.631130960628
      0.7868272350D+01 -0.1193324198D+00  0.6899906659D-01
      0.1881288540D+01 -0.1608541517D+00  0.3164239610D+00
      0.5442492580D+00  0.1143456438D+01  0.7443082909D+00
[...]
 1638 Fit      -0.000513
 1639 Fit      -0.000008
 1640 Fit      -0.000395
 1641 Fit      -0.003496
 1642 Fit      -0.002435
 1643 Fit      -0.002673
 1644 Fit      -0.003012
 1645 Fit      -0.002508
 1646 Fit      -0.001899
 1647 Fit      -0.001224
 1648 Fit      -0.000664
 1649 Fit      -0.001987
 1650 Fit      -0.003002
 1651 Fit      -0.003212
 1652 Fit      -0.000556
 1653 Fit       0.000168
 1654 Fit       0.001118
 1655 Fit       0.001549
 1656 Fit       0.000333
 1657 Fit      -0.000633
 1658 Fit       0.000983
 1659 Fit      -0.002371
 1660 Fit      -0.001026
 1661 Fit      -0.003588
 1662 Fit       0.001638
 1663 Fit       0.000827
 1664 Fit      -0.000877
 1665 Fit      -0.003302
 1666 Fit       0.000364
 1667 Fit       0.001117
 1668 Fit       0.000725
 1669 Fit      -0.001884
 1670 Fit      -0.001785
 1671 Fit      -0.000602
 1672 Fit      -0.000503
 1673 Fit      -0.002886
 1674 Fit      -0.009228
 1675 Fit      -0.003022
 1676 Fit      -0.010261
 1677 Fit      -0.015470
 1678 Fit      -0.013913
 1679 Fit      -0.008250
 1680 Fit      -0.004962
 1681 Fit      -0.005139
 1682 Fit      -0.003857
 1683 Fit      -0.001255
 1684 Fit      -0.004035
 1685 Fit      -0.006784
 1686 Fit      -0.005208
 1687 Fit      -0.003454
 1688 Fit       0.001779
 1689 Fit       0.002728
 1690 Fit       0.002260
 1691 Fit       0.002928
 1692 Fit       0.001822
 1693 Fit       0.002063
 1694 Fit       0.003156
 1695 Fit      -0.008348
 1696 Fit      -0.000783
 1697 Fit       0.003091
 1698 Fit       0.005437
 1699 Fit      -0.012610
 1700 Fit      -0.002155
 1701 Fit       0.003171
 1702 Fit      -0.008767
 1703 Fit      -0.000488
 1704 Fit      -0.001874
 1705 Fit       0.012281
 1706 Fit       0.007798
 1707 Fit       0.017775
 1708 Fit       0.014524
 1709 Fit       0.009475
 1710 Fit       0.003550
 1711 Fit       0.011341
 1712 Fit       0.006662
 1713 Fit       0.004935
 1714 Fit       0.002272
 1715 Fit       0.002634
 1716 Fit      -0.000354
 1717 Fit       0.000579
 1718 Fit       0.001040
 1719 Fit       0.001177
 1720 Fit      -0.008777
 1721 Fit      -0.003936
 1722 Fit      -0.000725
 1723 Fit       0.000059
 1724 Fit      -0.000518
 1725 Fit      -0.004240
 1726 Fit      -0.002368
 1727 Fit       0.007194
 1728 Fit       0.006674
 1729 Fit       0.006246
 1730 Fit       0.005783
 1731 Fit       0.005111
 1732 Fit       0.005227
 1733 Fit       0.004563
 1734 Fit       0.004241
 1735 Fit       0.003336
 1736 Fit       0.002871
 1737 Fit       0.005274
 1738 Fit       0.004326
 1739 Fit       0.004503
 1740 Fit       0.004006
 1741 Fit      -0.003996
 1742 Fit       0.009605
 1743 Fit       0.011408
 1744 Fit       0.017129
 1745 Fit       0.007521
 1746 Fit       0.007642
 1747 Fit       0.009966
 1748 Fit       0.018238
 1749 Fit       0.004923
 1750 Fit       0.004655
 1751 Fit       0.006404
 1752 Fit       0.004175
 1753 Fit       0.002839
 1754 Fit       0.001084
 1755 Fit      -0.002581
 1756 Fit       0.003396
 1757 Fit       0.002386
 1758 Fit       0.000324
 1759 Fit      -0.004315
 1760 Fit       0.002311
 1761 Fit       0.001047
 1762 Fit      -0.002386
 1763 Fit      -0.009799
 1764 Fit       0.001358
 1765 Fit      -0.000737
 1766 Fit      -0.004946
 1767 Fit      -0.000092
 1768 Fit       0.000502
 1769 Fit      -0.001091
 1770 Fit       0.003283
 1771 Fit       0.000354
 1772 Fit       0.001064
 1773 Fit       0.004860
 1774 Fit      -0.008609
 1775 Fit       0.004807
 1776 Fit       0.004924
 1777 Fit       0.006402
 1778 Fit       0.006916
 1779 Fit       0.007674
 1780 Fit       0.006033
 1781 Fit       0.007538
 1782 Fit       0.009102
 1783 Fit       0.002025
 1784 Fit       0.005298
 1785 Fit       0.008382
 1786 Fit      -0.004789
 1787 Fit       0.001569
 1788 Fit       0.005727
 1789 Fit       0.005326
 1790 Fit       0.004637
 1791 Fit       0.006308
 1792 Fit       0.006506
 1793 Fit       0.003281
 1794 Fit       0.008119
 1795 Fit       0.006525
 1796 Fit       0.001463
 1797 Fit       0.009680
 1798 Fit       0.006883
 1799 Fit       0.005707
 1800 Fit       0.003956
 1801 Fit       0.005416
 1802 Fit      -0.002370
 1803 Fit      -0.015479
 1804 Fit      -0.007332
 1805 Fit      -0.006128
 1806 Fit      -0.013191
 1807 Fit      -0.016355
 1808 Fit       0.002826
 1809 Fit       0.005137
 1810 Fit      -0.001655
 1811 Fit       0.004475
 1812 Fit       0.003005
 1813 Fit       0.003874
 1814 Fit       0.005951
 1815 Fit       0.005073
 1816 Fit       0.002226
 1817 Fit       0.004031
 1818 Fit       0.001545
 1819 Fit       0.003327
 1820 Fit       0.000728
 1821 Fit       0.002335
 1822 Fit      -0.000716
 1823 Fit       0.000549
 1824 Fit      -0.002055
 1825 Fit      -0.000750
 1826 Fit      -0.001528
 1827 Fit      -0.002030
 1828 Fit      -0.001783
 1829 Fit      -0.001854
 1830 Fit      -0.005839
 1831 Fit      -0.002585
 1832 Fit      -0.002179
 1833 Fit      -0.002718
 1834 Fit      -0.005692
 1835 Fit      -0.009642
 1836 Fit      -0.004225
 1837 Fit       0.002652
 1838 Fit       0.001242
 1839 Fit       0.001687
 1840 Fit      -0.000829
 1841 Fit       0.000136
 1842 Fit      -0.002098
 1843 Fit      -0.012926
 1844 Fit      -0.009952
 1845 Fit      -0.015934
 1846 Fit      -0.003454
 1847 Fit      -0.000825
 1848 Fit      -0.002629
 1849 Fit      -0.004105
 1850 Fit       0.000630
 1851 Fit      -0.001577
 1852 Fit      -0.002968
 1853 Fit      -0.000311
 1854 Fit      -0.001368
 1855 Fit      -0.003754
 1856 Fit       0.002409
 1857 Fit       0.004167
 1858 Fit       0.003168
 1859 Fit       0.000799
 1860 Fit       0.001319
 1861 Fit       0.005148
 1862 Fit       0.003165
 1863 Fit       0.001566
 1864 Fit      -0.001604
 1865 Fit       0.001329
 1866 Fit      -0.000668
 1867 Fit      -0.003715
 1868 Fit      -0.003086
 1869 Fit      -0.001642
 1870 Fit      -0.003982
 1871 Fit       0.001929
 1872 Fit       0.002169
 1873 Fit       0.000661
 1874 Fit       0.001187
 1875 Fit       0.001330
 1876 Fit      -0.000057
 1877 Fit      -0.000819
 1878 Fit       0.000098
 1879 Fit      -0.002049
 1880 Fit      -0.002460
 1881 Fit      -0.000756
 1882 Fit      -0.001979
 1883 Fit      -0.000926
 1884 Fit      -0.003121
 1885 Fit      -0.001621
 1886 Fit      -0.001103
 1887 Fit      -0.003220
 1888 Fit      -0.002551
 1889 Fit      -0.002407
 1890 Fit      -0.003864
 1891 Fit      -0.007079
 1892 Fit      -0.011456
 1893 Fit      -0.006037
 1894 Fit      -0.004771
 1895 Fit      -0.004671
 1896 Fit      -0.001681
 1897 Fit      -0.003145
 1898 Fit      -0.007152
 1899 Fit      -0.008587
 1900 Fit      -0.004115
 1901 Fit      -0.000089
 1902 Fit      -0.000119
 1903 Fit      -0.000666
 1904 Fit      -0.000145
 1905 Fit       0.000704
 1906 Fit       0.000853
 1907 Fit      -0.000583
 1908 Fit       0.001696
 1909 Fit       0.002972
 1910 Fit       0.004626
 1911 Fit       0.003479
 1912 Fit       0.003369
 1913 Fit       0.006314
 1914 Fit       0.001273
 1915 Fit       0.000097
 1916 Fit       0.001111
 1917 Fit       0.002406
 1918 Fit       0.001804
 1919 Fit       0.000478
 1920 Fit       0.002390
 1921 Fit       0.002508
 1922 Fit       0.000007
 1923 Fit       0.001176
 1924 Fit       0.001077
 1925 Fit       0.000253
 1926 Fit       0.001373
 1927 Fit       0.002452
 1928 Fit       0.002515
 1929 Fit       0.003855
 1930 Fit       0.003105
 1931 Fit       0.000116
 1932 Fit       0.001216
 1933 Fit       0.000672
 1934 Fit      -0.000060
 1935 Fit       0.001568
 1936 Fit      -0.001034
 1937 Fit      -0.000720
 1938 Fit      -0.001094
 1939 Fit      -0.001428
 1940 Fit      -0.002038
 1941 Fit      -0.001015
 1942 Fit      -0.001990
 1943 Fit      -0.002474
 1944 Fit      -0.002040
 1945 Fit      -0.001765
 1946 Fit      -0.002039
 1947 Fit      -0.001767
 1948 Fit      -0.001684
 1949 Fit      -0.000620
 1950 Fit      -0.000880
 1951 Fit      -0.000783
 1952 Fit      -0.001272
 1953 Fit      -0.000011
 1954 Fit      -0.000252
 1955 Fit      -0.000365
 1956 Fit      -0.000865
 1957 Fit      -0.000173
 1958 Fit      -0.000794
 1959 Fit      -0.000667
 1960 Fit      -0.000431
 1961 Fit       0.000420
 1962 Fit      -0.000373
 1963 Fit       0.000970
 1964 Fit      -0.000240
 1965 Fit       0.001030
 1966 Fit      -0.000700
 1967 Fit       0.000699
 1968 Fit       0.003049
 1969 Fit      -0.000268
 1970 Fit       0.001851
 1971 Fit       0.003802
 1972 Fit      -0.000028
 1973 Fit       0.002235
 1974 Fit       0.004229
 1975 Fit       0.003839
 1976 Fit       0.004029
 1977 Fit       0.005077
 1978 Fit       0.005014
 1979 Fit       0.004275
 1980 Fit       0.009193
 1981 Fit       0.003801
 1982 Fit       0.005089
 1983 Fit       0.005377
 1984 Fit       0.005023
 1985 Fit       0.005673
 1986 Fit       0.006181
 1987 Fit       0.006403
 1988 Fit       0.006787
 1989 Fit       0.006527
 1990 Fit       0.007110
 1991 Fit       0.007311
 1992 Fit       0.006177
 1993 Fit       0.007792
 1994 Fit       0.009865
 1995 Fit       0.007712
 1996 Fit       0.011826
 1997 Fit       0.015369
 1998 Fit       0.014602
 1999 Fit       0.010091
 2000 Fit       0.004253
 2001 Fit       0.005194
 2002 Fit       0.004777
 2003 Fit       0.004648
 2004 Fit       0.006180
 2005 Fit       0.006209
 2006 Fit       0.004307
 2007 Fit       0.004915
 2008 Fit       0.001530
 2009 Fit       0.004619
 2010 Fit      -0.015056
 2011 Fit      -0.016346
 2012 Fit      -0.013913
 2013 Fit      -0.005816
 2014 Fit      -0.021868
 2015 Fit      -0.019434
 2016 Fit      -0.018095
 2017 Fit      -0.016419
 2018 Fit      -0.011643
 2019 Fit      -0.000155
 2020 Fit      -0.015507
 2021 Fit      -0.007392
 2022 Fit       0.009682
 2023 Fit       0.003286
 2024 Fit       0.001094
 2025 Fit       0.008666
 2026 Fit       0.006284
 2027 Fit      -0.002819
 2028 Fit      -0.009857
 2029 Fit      -0.014869
 2030 Fit      -0.001571
 2031 Fit      -0.010015
 2032 Fit      -0.015434
 2033 Fit      -0.018134
 2034 Fit      -0.019316
 2035 Fit      -0.004889
 2036 Fit      -0.010926
 2037 Fit      -0.007317
 2038 Fit       0.013087
 2039 Fit       0.015584
 2040 Fit       0.016496
 2041 Fit       0.013445
 2042 Fit       0.012223
 2043 Fit       0.011504
 2044 Fit       0.017741
 2045 Fit       0.019175
 2046 Fit       0.017144
 2047 Fit       0.014335
 2048 Fit       0.005917
 2049 Fit       0.014795
 2050 Fit       0.018906
 2051 Fit       0.018527
 2052 Fit       0.013436
 2053 Fit       0.004733
 2054 Fit       0.002255
 2055 Fit       0.011212
 2056 Fit       0.016160
 2057 Fit       0.009538
 2058 Fit       0.000335
 2059 Fit      -0.002093
 2060 Fit      -0.004013
 2061 Fit      -0.006062
 2062 Fit      -0.008142
 2063 Fit      -0.009102
 2064 Fit      -0.007286
 2065 Fit      -0.010667
 2066 Fit      -0.014063
 2067 Fit      -0.015946
 2068 Fit      -0.017291
 2069 Fit      -0.018467
 2070 Fit      -0.019008
 2071 Fit      -0.017711
 2072 Fit      -0.015954
 2073 Fit      -0.021031
 2074 Fit      -0.023400
 2075 Fit      -0.024515
 2076 Fit      -0.024713
 2077 Fit      -0.023163
 2078 Fit      -0.018205
 2079 Fit      -0.020529
 2080 Fit      -0.024638
 2081 Fit      -0.026004
 2082 Fit      -0.025161
 2083 Fit      -0.021357
 2084 Fit      -0.018157
 2085 Fit      -0.022080
 2086 Fit      -0.018263
 2087 Fit       0.021512
 2088 Fit       0.022526
 2089 Fit       0.019177
 2090 Fit       0.017241
 2091 Fit       0.017258
 2092 Fit       0.014793
 2093 Fit       0.012622
 2094 Fit       0.010962
 2095 Fit       0.009608
 2096 Fit       0.009196
 2097 Fit       0.011080
 2098 Fit       0.006464
 2099 Fit       0.004053
 2100 Fit       0.002185
 2101 Fit       0.000481
 2102 Fit      -0.001430
 2103 Fit       0.000236
 2104 Fit      -0.000897
 2105 Fit      -0.000654
 2106 Fit      -0.000570
 2107 Fit      -0.000075
 2108 Fit      -0.000234
 2109 Fit      -0.003613
 2110 Fit      -0.000464
 2111 Fit      -0.001426
 2112 Fit      -0.001756
 2113 Fit      -0.001646
 2114 Fit      -0.001447
 2115 Fit      -0.001377
 2116 Fit      -0.000873
 2117 Fit       0.000423
 2118 Fit      -0.000538
 2119 Fit       0.000682
 2120 Fit       0.001250
 2121 Fit       0.000666
 2122 Fit       0.000714
 2123 Fit       0.000137
 2124 Fit      -0.000316
 2125 Fit      -0.000198
 2126 Fit       0.001190
 2127 Fit      -0.000081
 2128 Fit      -0.000580
 2129 Fit      -0.000768
 2130 Fit      -0.001267
 2131 Fit      -0.001492
 2132 Fit       0.001338
 2133 Fit       0.000636
 2134 Fit       0.000445
 2135 Fit      -0.000276
 2136 Fit      -0.002222
 2137 Fit      -0.003370
 2138 Fit      -0.001597
 2139 Fit      -0.000543
 2140 Fit      -0.001206
 2141 Fit       0.000215
 2142 Fit      -0.000090
 2143 Fit      -0.000721
 2144 Fit      -0.002635
 2145 Fit       0.000598
 2146 Fit       0.000381
 2147 Fit       0.000682
 2148 Fit       0.000933
 2149 Fit      -0.000068
 2150 Fit      -0.001431
 2151 Fit      -0.000426
 2152 Fit      -0.000667
 2153 Fit      -0.002221
 2154 Fit      -0.000751
 2155 Fit       0.000316
 2156 Fit       0.000392
 2157 Fit      -0.000556
 2158 Fit      -0.001450
 2159 Fit       0.000244
 2160 Fit       0.001038
 2161 Fit       0.000998
 2162 Fit      -0.001779
 2163 Fit      -0.001282
 2164 Fit      -0.001044
 2165 Fit      -0.000697
 2166 Fit      -0.001092
 2167 Fit      -0.001252
 2168 Fit      -0.000945
 2169 Fit      -0.000827
 2170 Fit      -0.001209
 2171 Fit      -0.000753
 2172 Fit      -0.001984
 2173 Fit      -0.002613
 2174 Fit      -0.002590
 2175 Fit      -0.003141
 2176 Fit      -0.003049
 2177 Fit      -0.002801
 2178 Fit      -0.002761
 2179 Fit      -0.002690
 2180 Fit      -0.002373
 2181 Fit      -0.001988
 2182 Fit      -0.001311
 2183 Fit       0.000846
 2184 Fit      -0.000175
 2185 Fit       0.001153
 2186 Fit       0.000483
 2187 Fit      -0.000619
 2188 Fit       0.000855
 2189 Fit       0.000454
 2190 Fit      -0.000197
 2191 Fit      -0.001285
 2192 Fit      -0.000868
 2193 Fit      -0.000920
 2194 Fit      -0.001432
 2195 Fit      -0.002460
 2196 Fit      -0.002618
 2197 Fit      -0.002503
 2198 Fit      -0.002546
 2199 Fit      -0.002658
 2200 Fit      -0.000834
 2201 Fit      -0.000824
 2202 Fit      -0.000890
 2203 Fit      -0.001107
 2204 Fit      -0.001353
 2205 Fit      -0.001366
 2206 Fit      -0.000949
 2207 Fit       0.000641
 2208 Fit       0.000340
 2209 Fit       0.000077
 2210 Fit       0.000041
 2211 Fit       0.000703
 2212 Fit       0.000852
 2213 Fit      -0.001085
 2214 Fit       0.000704
 2215 Fit      -0.000848
 2216 Fit      -0.000083
 2217 Fit      -0.001817
 2218 Fit      -0.000789
 2219 Fit      -0.000376
 2220 Fit      -0.001678
 2221 Fit      -0.001371
 2222 Fit      -0.003230
 2223 Fit      -0.003008
 2224 Fit      -0.003315
 2225 Fit      -0.002918
 2226 Fit      -0.002995
 2227 Fit      -0.003319
 2228 Fit      -0.003152
 2229 Fit      -0.002867
 2230 Fit      -0.002712
 2231 Fit      -0.002000
 2232 Fit      -0.001821
 2233 Fit      -0.002392
 2234 Fit      -0.002575
 2235 Fit       0.000196
 2236 Fit      -0.002415
 2237 Fit      -0.000711
 2238 Fit       0.000524
 2239 Fit       0.001196
 2240 Fit      -0.001547
 2241 Fit      -0.000354
 2242 Fit       0.000267
 2243 Fit       0.000410
 2244 Fit      -0.002526
 2245 Fit      -0.001466
 2246 Fit      -0.001023
 2247 Fit      -0.001315
 2248 Fit      -0.002716
 2249 Fit      -0.002501
 2250 Fit      -0.002074
 2251 Fit      -0.001716
 2252 Fit      -0.001237
 2253 Fit      -0.000675
 2254 Fit       0.000418
 2255 Fit      -0.000446
 2256 Fit      -0.001377
 2257 Fit      -0.002022
 2258 Fit      -0.002193
 2259 Fit      -0.000521
 2260 Fit      -0.000011
 2261 Fit       0.000698
 2262 Fit       0.000983
 2263 Fit       0.000137
 2264 Fit      -0.000542
 2265 Fit       0.000493
 2266 Fit      -0.001280
 2267 Fit       0.000239
 2268 Fit      -0.000917
 2269 Fit      -0.002626
 2270 Fit       0.000679
 2271 Fit       0.000878
 2272 Fit       0.000348
 2273 Fit      -0.001239
 2274 Fit      -0.001157
 2275 Fit      -0.000234
 2276 Fit       0.000240
 2277 Fit      -0.000094
 2278 Fit      -0.002125
 2279 Fit      -0.001220
 2280 Fit      -0.001164
 -----------------------------------------------------------------
 Leave Link  602 at Wed Apr 26 14:27:50 2017, MaxMem=    33554432 cpu:         3.6
 (Enter /home/michal/g09/l9999.exe)

 Test job not archived.
 1\1\GINC-LINUX\SP\RHF\6-31G(d)\C27H46O3\MICHAL\26-Apr-2017\0\\#P HF/6-
 31G* SCF(Conver=6) NoSymm Test Pop=mk IOp(6/33=2) GFInput GFPrint\\MEP
  - Input generated by R.E.D.-III.x MOLECULE\\0,1\C,0,1.7559029,-1.2447
 2104,0.14248619\H,0,1.88494588,-1.27631444,-0.94606294\C,0,3.14267722,
 -1.21544772,0.80569272\H,0,3.72260737,-2.08630847,0.48482711\H,0,2.996
 55652,-1.31512888,1.89271234\C,0,3.89898505,0.06264954,0.4987431\C,0,3
 .17119937,1.38253708,0.77736942\C,0,1.74298188,1.28480137,0.1566454\H,
 0,1.84136595,1.33390479,-0.93615927\H,0,1.15756914,2.16062501,0.456364
 85\C,0,0.96593102,0.0090843,0.51757534\H,0,0.74536565,-0.01529525,1.59
 515517\H,0,0.,0.,0.\C,0,5.1429858,0.,0.\H,0,5.58801427,-0.97096199,-0.
 21003422\C,0,5.97268954,1.19623924,-0.36170806\H,0,7.0274145,1.0195928
 6,-0.12402685\C,0,5.46745538,2.48557934,0.31394559\H,0,5.6920957,2.362
 32151,1.38368765\C,0,3.93075396,2.58232889,0.10841088\H,0,3.77948395,2
 .47118325,-0.97540571\C,0,3.35092431,3.96236478,0.49567433\H,0,3.29182
 586,4.05795043,1.58452353\H,0,2.31967607,4.03657078,0.13164024\C,0,4.1
 5073677,5.1604121,-0.05116161\H,0,4.0953605,5.17306315,-1.14902473\H,0
 ,3.67227739,6.08126742,0.29603692\C,0,5.6322481,5.08745864,0.36679737\
 C,0,6.18372628,3.7447444,-0.19654733\H,0,6.00108666,3.7863497,-1.27982
 372\C,0,7.70289969,3.85855142,0.\H,0,8.25632142,3.20441942,-0.6761411\
 H,0,7.98250714,3.58075759,1.02456254\C,0,7.99151175,5.36042983,-0.2677
 1064\H,0,8.61461804,5.78902691,0.52670337\H,0,8.54740988,5.4912981,-1.
 20083508\C,0,6.6084813,6.09533769,-0.33398012\H,0,6.29615815,6.1369071
 ,-1.38940135\C,0,5.77508926,5.19141619,1.90363864\H,0,5.30985092,4.351
 20221,2.42545283\H,0,6.82324285,5.22258765,2.21525355\H,0,5.29908627,6
 .10488978,2.27576314\C,0,6.69191071,7.56162952,0.16556807\H,0,7.075865
 34,7.54377658,1.19724362\C,0,5.33253126,8.28299432,0.17905473\H,0,4.86
 529293,8.25811221,-0.81359913\H,0,5.44449009,9.33271624,0.46652929\H,0
 ,4.63349835,7.83310957,0.88741364\C,0,3.05906599,1.56155726,2.31639856
 \H,0,2.38683371,2.38584942,2.57200151\H,0,2.66469789,0.66472779,2.8002
 5479\H,0,4.03619704,1.76570538,2.76480042\O,0,5.87352588,1.23878611,-1
 .81709614\O,0,7.1096679,1.79206198,-2.37728611\H,0,7.37672299,1.049481
 02,-2.94259294\O,0,1.04979521,-2.45043941,0.44667431\H,0,0.8692684,-2.
 47252545,1.39698085\C,0,7.71304318,8.35715528,-0.68616307\H,0,8.639049
 01,7.77719365,-0.77583449\H,0,7.31351694,8.45119157,-1.70635824\C,0,8.
 08372437,9.7447413,-0.13533731\H,0,7.21640385,10.41435462,-0.16013338\
 H,0,8.35065533,9.63968493,0.92594389\C,0,9.26795581,10.41322817,-0.858
 12907\H,0,10.14965119,9.76353914,-0.75906634\H,0,9.51890186,11.3468493
 3,-0.33284479\C,0,9.07130869,10.74114941,-2.35372096\H,0,8.83769361,9.
 80628732,-2.88299051\C,0,7.91100005,11.72049031,-2.59208757\H,0,8.0845
 0439,12.66622221,-2.06209107\H,0,7.80732009,11.95208139,-3.65828826\H,
 0,6.95288334,11.31718374,-2.24866769\C,0,10.37500913,11.29465948,-2.95
 099933\H,0,10.65997821,12.23589167,-2.46328932\H,0,10.26834635,11.4954
 6843,-4.02318673\H,0,11.20429266,10.58947721,-2.82265067\\Version=EM64
 L-G09RevD.01\HF=-1273.6798622\RMSD=5.465e-07\Dipole=0.234186,-0.026065
 4,0.6817166\Quadrupole=4.8578184,-8.3242492,3.4664308,-7.8317129,0.530
 9203,1.0844318\PG=C01 [X(C27H46O3)]\\@


 IT IS A CAPITAL MISTAKE TO THEORIZE BEFORE ONE HAS
 DATA.  INSENSIBLY ONE BEGINS TO TWIST FACTS TO SUIT
 THEORIES RATHER THAN THEORIES TO SUIT FACTS.

                                         -- SHERLOCK HOLMES
 Job cpu time:       0 days  0 hours 12 minutes 31.0 seconds.
 File lengths (MBytes):  RWF=    159 Int=      0 D2E=      0 Chk=     11 Scr=      1
 Normal termination of Gaussian 09 at Wed Apr 26 14:27:50 2017.
