 Entering Gaussian System, Link 0=/home/michal/g09/g09
 Input=JOB2-gau_m1-16-1.com
 Output=JOB2-gau_m1-16-1.log
 Initial command:
 /home/michal/g09/l1.exe "/home/michal/gauss_scratch/Gau-12549.inp" -scrdir="/home/michal/gauss_scratch/"
 Entering Link 1 = /home/michal/g09/l1.exe PID=     12550.
  
 Copyright (c) 1988,1990,1992,1993,1995,1998,2003,2009,2013,
            Gaussian, Inc.  All Rights Reserved.
  
 This is part of the Gaussian(R) 09 program.  It is based on
 the Gaussian(R) 03 system (copyright 2003, Gaussian, Inc.),
 the Gaussian(R) 98 system (copyright 1998, Gaussian, Inc.),
 the Gaussian(R) 94 system (copyright 1995, Gaussian, Inc.),
 the Gaussian 92(TM) system (copyright 1992, Gaussian, Inc.),
 the Gaussian 90(TM) system (copyright 1990, Gaussian, Inc.),
 the Gaussian 88(TM) system (copyright 1988, Gaussian, Inc.),
 the Gaussian 86(TM) system (copyright 1986, Carnegie Mellon
 University), and the Gaussian 82(TM) system (copyright 1983,
 Carnegie Mellon University). Gaussian is a federally registered
 trademark of Gaussian, Inc.
  
 This software contains proprietary and confidential information,
 including trade secrets, belonging to Gaussian, Inc.
  
 This software is provided under written license and may be
 used, copied, transmitted, or stored only in accord with that
 written license.
  
 The following legend is applicable only to US Government
 contracts under FAR:
  
                    RESTRICTED RIGHTS LEGEND
  
 Use, reproduction and disclosure by the US Government is
 subject to restrictions as set forth in subparagraphs (a)
 and (c) of the Commercial Computer Software - Restricted
 Rights clause in FAR 52.227-19.
  
 Gaussian, Inc.
 340 Quinnipiac St., Bldg. 40, Wallingford CT 06492
  
  
 ---------------------------------------------------------------
 Warning -- This program may not be used in any manner that
 competes with the business of Gaussian, Inc. or will provide
 assistance to any competitor of Gaussian, Inc.  The licensee
 of this program is prohibited from giving any competitor of
 Gaussian, Inc. access to this program.  By using this program,
 the user acknowledges that Gaussian, Inc. is engaged in the
 business of creating and licensing software in the field of
 computational chemistry and represents and warrants to the
 licensee that it is not a competitor of Gaussian, Inc. and that
 it will not use this program in any manner prohibited above.
 ---------------------------------------------------------------
  

 Cite this work as:
 Gaussian 09, Revision D.01,
 M. J. Frisch, G. W. Trucks, H. B. Schlegel, G. E. Scuseria, 
 M. A. Robb, J. R. Cheeseman, G. Scalmani, V. Barone, B. Mennucci, 
 G. A. Petersson, H. Nakatsuji, M. Caricato, X. Li, H. P. Hratchian, 
 A. F. Izmaylov, J. Bloino, G. Zheng, J. L. Sonnenberg, M. Hada, 
 M. Ehara, K. Toyota, R. Fukuda, J. Hasegawa, M. Ishida, T. Nakajima, 
 Y. Honda, O. Kitao, H. Nakai, T. Vreven, J. A. Montgomery, Jr., 
 J. E. Peralta, F. Ogliaro, M. Bearpark, J. J. Heyd, E. Brothers, 
 K. N. Kudin, V. N. Staroverov, T. Keith, R. Kobayashi, J. Normand, 
 K. Raghavachari, A. Rendell, J. C. Burant, S. S. Iyengar, J. Tomasi, 
 M. Cossi, N. Rega, J. M. Millam, M. Klene, J. E. Knox, J. B. Cross, 
 V. Bakken, C. Adamo, J. Jaramillo, R. Gomperts, R. E. Stratmann, 
 O. Yazyev, A. J. Austin, R. Cammi, C. Pomelli, J. W. Ochterski, 
 R. L. Martin, K. Morokuma, V. G. Zakrzewski, G. A. Voth, 
 P. Salvador, J. J. Dannenberg, S. Dapprich, A. D. Daniels, 
 O. Farkas, J. B. Foresman, J. V. Ortiz, J. Cioslowski, 
 and D. J. Fox, Gaussian, Inc., Wallingford CT, 2013.
 
 ******************************************
 Gaussian 09:  EM64L-G09RevD.01 24-Apr-2013
                26-Apr-2017 
 ******************************************
 %Mem=256MB
 %NProc=12
 Will use up to   12 processors via shared memory.
 ----------------------------------------------------------------------
 #P HF/6-31G* SCF(Conver=6) NoSymm Test Pop=mk IOp(6/33=2) GFInput GFPr
 int
 ----------------------------------------------------------------------
 1/38=1/1;
 2/12=2,15=1,17=6,18=5,40=1/2;
 3/5=1,6=6,7=1,11=9,16=1,24=110,25=1,30=1/1,2,3;
 4//1;
 5/5=2,6=6,38=5/2;
 6/7=2,8=2,9=2,10=2,15=8,20=1,28=1,33=2/1,2;
 99/5=1,9=1/99;
 Leave Link    1 at Wed Apr 26 14:22:16 2017, MaxMem=    33554432 cpu:         0.6
 (Enter /home/michal/g09/l101.exe)
 ----------------------------------------------
 MEP - Input generated by R.E.D.-III.x MOLECULE
 ----------------------------------------------
 Symbolic Z-matrix:
 Charge =  0 Multiplicity = 1
 C                     1.75594  -1.24474   0.14164 
 H                     1.88464  -1.27599  -0.94695 
 C                     3.14289  -1.21582   0.80446 
 H                     3.72275  -2.08638   0.48265 
 H                     2.9972   -1.31664   1.89141 
 C                     3.8992    0.06247   0.49828 
 C                     3.17138   1.38231   0.77705 
 C                     1.74312   1.28471   0.15645 
 H                     1.84128   1.33404  -0.93638 
 H                     1.15781   2.16048   0.45648 
 C                     0.96609   0.00894   0.51728 
 H                     0.74592  -0.01564   1.59495 
 H                     0.        0.        0. 
 C                     5.14336   0.        0. 
 H                     5.58853  -0.9709   -0.21001 
 C                     5.97304   1.19627  -0.36153 
 H                     7.02768   1.01966  -0.12341 
 C                     5.46763   2.48581   0.31374 
 H                     5.69222   2.36242   1.38351 
 C                     3.93089   2.58242   0.10839 
 H                     3.7795    2.47172  -0.97545 
 C                     3.35065   3.96206   0.49648 
 H                     3.29124   4.05693   1.58537 
 H                     2.31948   4.03621   0.1322 
 C                     4.15028   5.16064  -0.04947 
 H                     4.09467   5.17419  -1.14731 
 H                     3.672     6.08123   0.2987 
 C                     5.63189   5.08748   0.36798 
 C                     6.18367   3.74515  -0.19659 
 H                     6.00093   3.7875   -1.27981 
 C                     7.70282   3.85949   0. 
 H                     8.25651   3.2058   -0.67635 
 H                     7.9826    3.58142   1.02443 
 C                     7.99077   5.3616   -0.26742 
 H                     8.61472   5.79023   0.52632 
 H                     8.54553   5.4925   -1.20117 
 C                     6.60732   6.09613  -0.33232 
 H                     6.29466   6.13837  -1.38762 
 C                     5.77522   5.18885   1.90481 
 H                     5.31405   4.34501   2.42439 
 H                     6.82343   5.2238    2.21584 
 H                     5.29531   6.09914   2.27965 
 C                     6.68978   7.56225   0.16819 
 H                     7.0738    7.5436    1.19979 
 C                     5.32905   8.28135   0.18158 
 H                     4.85781   8.24653  -0.8088 
 H                     5.44021   9.33405   0.45818 
 H                     4.6337    7.8372    0.89731 
 C                     3.0595    1.56082   2.31614 
 H                     2.38635   2.38422   2.57234 
 H                     2.66652   0.66338   2.8 
 H                     4.03659   1.76607   2.7641 
 O                     5.87436   1.23832  -1.81692 
 O                     7.11042   1.79213  -2.37672 
 H                     7.37834   1.04942  -2.94146 
 O                     1.04987  -2.45055   0.44567 
 H                     0.86923  -2.47263   1.39595 
 C                     7.70951   8.35926  -0.68352 
 H                     8.62672   7.77023  -0.79609 
 H                     7.30131   8.48116  -1.69875 
 C                     8.10533   9.73678  -0.1262 
 H                     7.22672   10.3894  -0.07101 
 H                     8.46335   9.61056   0.90472 
 C                     9.19202   10.41476  -0.97679 
 H                     8.82693   10.49734  -2.01084 
 H                     10.06948   9.7533   -1.01856 
 C                     9.66119   11.81434  -0.51541 
 H                     10.43368   12.12501  -1.2345 
 C                     8.54092   12.86613  -0.57594 
 H                     7.75515   12.66369   0.16101 
 H                     8.93455   13.8673  -0.36606 
 H                     8.0717    12.89276  -1.5665 
 C                     10.32128   11.79006   0.87322 
 H                     9.59785   11.54865   1.66053 
 H                     10.75443   12.76711   1.11627 
 H                     11.12626   11.04708   0.91955 
 
 NAtoms=     76 NQM=       76 NQMF=       0 NMMI=      0 NMMIF=      0
                NMic=       0 NMicF=      0.
                    Isotopes and Nuclear Properties:
 (Nuclear quadrupole moments (NQMom) in fm**2, nuclear magnetic moments (NMagM)
  in nuclear magnetons)

  Atom         1           2           3           4           5           6           7           8           9          10
 IAtWgt=          12           1          12           1           1          12          12          12           1           1
 AtmWgt=  12.0000000   1.0078250  12.0000000   1.0078250   1.0078250  12.0000000  12.0000000  12.0000000   1.0078250   1.0078250
 NucSpn=           0           1           0           1           1           0           0           0           1           1
 AtZEff=   0.0000000   0.0000000   0.0000000   0.0000000   0.0000000   0.0000000   0.0000000   0.0000000   0.0000000   0.0000000
 NQMom=    0.0000000   0.0000000   0.0000000   0.0000000   0.0000000   0.0000000   0.0000000   0.0000000   0.0000000   0.0000000
 NMagM=    0.0000000   2.7928460   0.0000000   2.7928460   2.7928460   0.0000000   0.0000000   0.0000000   2.7928460   2.7928460
 AtZNuc=   6.0000000   1.0000000   6.0000000   1.0000000   1.0000000   6.0000000   6.0000000   6.0000000   1.0000000   1.0000000

  Atom        11          12          13          14          15          16          17          18          19          20
 IAtWgt=          12           1           1          12           1          12           1          12           1          12
 AtmWgt=  12.0000000   1.0078250   1.0078250  12.0000000   1.0078250  12.0000000   1.0078250  12.0000000   1.0078250  12.0000000
 NucSpn=           0           1           1           0           1           0           1           0           1           0
 AtZEff=   0.0000000   0.0000000   0.0000000   0.0000000   0.0000000   0.0000000   0.0000000   0.0000000   0.0000000   0.0000000
 NQMom=    0.0000000   0.0000000   0.0000000   0.0000000   0.0000000   0.0000000   0.0000000   0.0000000   0.0000000   0.0000000
 NMagM=    0.0000000   2.7928460   2.7928460   0.0000000   2.7928460   0.0000000   2.7928460   0.0000000   2.7928460   0.0000000
 AtZNuc=   6.0000000   1.0000000   1.0000000   6.0000000   1.0000000   6.0000000   1.0000000   6.0000000   1.0000000   6.0000000

  Atom        21          22          23          24          25          26          27          28          29          30
 IAtWgt=           1          12           1           1          12           1           1          12          12           1
 AtmWgt=   1.0078250  12.0000000   1.0078250   1.0078250  12.0000000   1.0078250   1.0078250  12.0000000  12.0000000   1.0078250
 NucSpn=           1           0           1           1           0           1           1           0           0           1
 AtZEff=   0.0000000   0.0000000   0.0000000   0.0000000   0.0000000   0.0000000   0.0000000   0.0000000   0.0000000   0.0000000
 NQMom=    0.0000000   0.0000000   0.0000000   0.0000000   0.0000000   0.0000000   0.0000000   0.0000000   0.0000000   0.0000000
 NMagM=    2.7928460   0.0000000   2.7928460   2.7928460   0.0000000   2.7928460   2.7928460   0.0000000   0.0000000   2.7928460
 AtZNuc=   1.0000000   6.0000000   1.0000000   1.0000000   6.0000000   1.0000000   1.0000000   6.0000000   6.0000000   1.0000000

  Atom        31          32          33          34          35          36          37          38          39          40
 IAtWgt=          12           1           1          12           1           1          12           1          12           1
 AtmWgt=  12.0000000   1.0078250   1.0078250  12.0000000   1.0078250   1.0078250  12.0000000   1.0078250  12.0000000   1.0078250
 NucSpn=           0           1           1           0           1           1           0           1           0           1
 AtZEff=   0.0000000   0.0000000   0.0000000   0.0000000   0.0000000   0.0000000   0.0000000   0.0000000   0.0000000   0.0000000
 NQMom=    0.0000000   0.0000000   0.0000000   0.0000000   0.0000000   0.0000000   0.0000000   0.0000000   0.0000000   0.0000000
 NMagM=    0.0000000   2.7928460   2.7928460   0.0000000   2.7928460   2.7928460   0.0000000   2.7928460   0.0000000   2.7928460
 AtZNuc=   6.0000000   1.0000000   1.0000000   6.0000000   1.0000000   1.0000000   6.0000000   1.0000000   6.0000000   1.0000000

  Atom        41          42          43          44          45          46          47          48          49          50
 IAtWgt=           1           1          12           1          12           1           1           1          12           1
 AtmWgt=   1.0078250   1.0078250  12.0000000   1.0078250  12.0000000   1.0078250   1.0078250   1.0078250  12.0000000   1.0078250
 NucSpn=           1           1           0           1           0           1           1           1           0           1
 AtZEff=   0.0000000   0.0000000   0.0000000   0.0000000   0.0000000   0.0000000   0.0000000   0.0000000   0.0000000   0.0000000
 NQMom=    0.0000000   0.0000000   0.0000000   0.0000000   0.0000000   0.0000000   0.0000000   0.0000000   0.0000000   0.0000000
 NMagM=    2.7928460   2.7928460   0.0000000   2.7928460   0.0000000   2.7928460   2.7928460   2.7928460   0.0000000   2.7928460
 AtZNuc=   1.0000000   1.0000000   6.0000000   1.0000000   6.0000000   1.0000000   1.0000000   1.0000000   6.0000000   1.0000000

  Atom        51          52          53          54          55          56          57          58          59          60
 IAtWgt=           1           1          16          16           1          16           1          12           1           1
 AtmWgt=   1.0078250   1.0078250  15.9949146  15.9949146   1.0078250  15.9949146   1.0078250  12.0000000   1.0078250   1.0078250
 NucSpn=           1           1           0           0           1           0           1           0           1           1
 AtZEff=   0.0000000   0.0000000   0.0000000   0.0000000   0.0000000   0.0000000   0.0000000   0.0000000   0.0000000   0.0000000
 NQMom=    0.0000000   0.0000000   0.0000000   0.0000000   0.0000000   0.0000000   0.0000000   0.0000000   0.0000000   0.0000000
 NMagM=    2.7928460   2.7928460   0.0000000   0.0000000   2.7928460   0.0000000   2.7928460   0.0000000   2.7928460   2.7928460
 AtZNuc=   1.0000000   1.0000000   8.0000000   8.0000000   1.0000000   8.0000000   1.0000000   6.0000000   1.0000000   1.0000000

  Atom        61          62          63          64          65          66          67          68          69          70
 IAtWgt=          12           1           1          12           1           1          12           1          12           1
 AtmWgt=  12.0000000   1.0078250   1.0078250  12.0000000   1.0078250   1.0078250  12.0000000   1.0078250  12.0000000   1.0078250
 NucSpn=           0           1           1           0           1           1           0           1           0           1
 AtZEff=   0.0000000   0.0000000   0.0000000   0.0000000   0.0000000   0.0000000   0.0000000   0.0000000   0.0000000   0.0000000
 NQMom=    0.0000000   0.0000000   0.0000000   0.0000000   0.0000000   0.0000000   0.0000000   0.0000000   0.0000000   0.0000000
 NMagM=    0.0000000   2.7928460   2.7928460   0.0000000   2.7928460   2.7928460   0.0000000   2.7928460   0.0000000   2.7928460
 AtZNuc=   6.0000000   1.0000000   1.0000000   6.0000000   1.0000000   1.0000000   6.0000000   1.0000000   6.0000000   1.0000000

  Atom        71          72          73          74          75          76
 IAtWgt=           1           1          12           1           1           1
 AtmWgt=   1.0078250   1.0078250  12.0000000   1.0078250   1.0078250   1.0078250
 NucSpn=           1           1           0           1           1           1
 AtZEff=   0.0000000   0.0000000   0.0000000   0.0000000   0.0000000   0.0000000
 NQMom=    0.0000000   0.0000000   0.0000000   0.0000000   0.0000000   0.0000000
 NMagM=    2.7928460   2.7928460   0.0000000   2.7928460   2.7928460   2.7928460
 AtZNuc=   1.0000000   1.0000000   6.0000000   1.0000000   1.0000000   1.0000000
 Leave Link  101 at Wed Apr 26 14:22:16 2017, MaxMem=    33554432 cpu:         1.0
 (Enter /home/michal/g09/l202.exe)
 Symmetry turned off by external request.
 Stoichiometry    C27H46O3
 Framework group  C1[X(C27H46O3)]
 Deg. of freedom   222
 Full point group                 C1      NOp   1
                          Input orientation:                          
 ---------------------------------------------------------------------
 Center     Atomic      Atomic             Coordinates (Angstroms)
 Number     Number       Type             X           Y           Z
 ---------------------------------------------------------------------
      1          6           0        1.755938   -1.244744    0.141644
      2          1           0        1.884643   -1.275994   -0.946951
      3          6           0        3.142891   -1.215820    0.804460
      4          1           0        3.722755   -2.086380    0.482651
      5          1           0        2.997197   -1.316642    1.891408
      6          6           0        3.899201    0.062470    0.498283
      7          6           0        3.171379    1.382312    0.777047
      8          6           0        1.743115    1.284705    0.156448
      9          1           0        1.841280    1.334037   -0.936375
     10          1           0        1.157806    2.160477    0.456476
     11          6           0        0.966089    0.008936    0.517285
     12          1           0        0.745916   -0.015636    1.594950
     13          1           0        0.000000    0.000000    0.000000
     14          6           0        5.143355    0.000000    0.000000
     15          1           0        5.588532   -0.970901   -0.210007
     16          6           0        5.973038    1.196274   -0.361532
     17          1           0        7.027683    1.019660   -0.123412
     18          6           0        5.467631    2.485812    0.313737
     19          1           0        5.692216    2.362417    1.383515
     20          6           0        3.930889    2.582415    0.108389
     21          1           0        3.779504    2.471723   -0.975453
     22          6           0        3.350653    3.962058    0.496476
     23          1           0        3.291237    4.056930    1.585368
     24          1           0        2.319477    4.036206    0.132198
     25          6           0        4.150278    5.160644   -0.049467
     26          1           0        4.094674    5.174194   -1.147310
     27          1           0        3.671999    6.081234    0.298697
     28          6           0        5.631893    5.087481    0.367984
     29          6           0        6.183668    3.745152   -0.196587
     30          1           0        6.000931    3.787498   -1.279806
     31          6           0        7.702820    3.859488    0.000000
     32          1           0        8.256509    3.205799   -0.676346
     33          1           0        7.982596    3.581424    1.024432
     34          6           0        7.990772    5.361596   -0.267418
     35          1           0        8.614724    5.790235    0.526318
     36          1           0        8.545533    5.492497   -1.201168
     37          6           0        6.607324    6.096133   -0.332323
     38          1           0        6.294663    6.138374   -1.387620
     39          6           0        5.775223    5.188847    1.904809
     40          1           0        5.314052    4.345014    2.424391
     41          1           0        6.823428    5.223799    2.215842
     42          1           0        5.295311    6.099139    2.279645
     43          6           0        6.689777    7.562252    0.168190
     44          1           0        7.073800    7.543600    1.199788
     45          6           0        5.329046    8.281349    0.181575
     46          1           0        4.857814    8.246534   -0.808804
     47          1           0        5.440211    9.334049    0.458182
     48          1           0        4.633695    7.837202    0.897307
     49          6           0        3.059497    1.560816    2.316138
     50          1           0        2.386348    2.384216    2.572339
     51          1           0        2.666524    0.663378    2.800003
     52          1           0        4.036589    1.766072    2.764098
     53          8           0        5.874363    1.238318   -1.816920
     54          8           0        7.110421    1.792126   -2.376722
     55          1           0        7.378338    1.049424   -2.941461
     56          8           0        1.049874   -2.450554    0.445666
     57          1           0        0.869227   -2.472635    1.395948
     58          6           0        7.709508    8.359259   -0.683516
     59          1           0        8.626723    7.770230   -0.796094
     60          1           0        7.301310    8.481163   -1.698746
     61          6           0        8.105329    9.736781   -0.126201
     62          1           0        7.226725   10.389403   -0.071009
     63          1           0        8.463354    9.610561    0.904725
     64          6           0        9.192020   10.414759   -0.976786
     65          1           0        8.826934   10.497338   -2.010844
     66          1           0       10.069479    9.753301   -1.018556
     67          6           0        9.661186   11.814342   -0.515409
     68          1           0       10.433678   12.125015   -1.234505
     69          6           0        8.540918   12.866134   -0.575938
     70          1           0        7.755148   12.663692    0.161013
     71          1           0        8.934550   13.867297   -0.366059
     72          1           0        8.071700   12.892759   -1.566501
     73          6           0       10.321285   11.790060    0.873224
     74          1           0        9.597854   11.548646    1.660529
     75          1           0       10.754429   12.767109    1.116271
     76          1           0       11.126265   11.047076    0.919548
 ---------------------------------------------------------------------
 Rotational constants (GHZ):      0.4360214      0.0515990      0.0486360
 Leave Link  202 at Wed Apr 26 14:22:17 2017, MaxMem=    33554432 cpu:         0.6
 (Enter /home/michal/g09/l301.exe)
 Standard basis: 6-31G(d) (6D, 7F)
 Ernie: Thresh=  0.10000D-02 Tol=  0.10000D-05 Strict=F.
 AO basis set in the form of general basis input (Overlap normalization):
      1 0
 S   6 1.00       0.000000000000
      0.3047524880D+04  0.1834737132D-02
      0.4573695180D+03  0.1403732281D-01
      0.1039486850D+03  0.6884262226D-01
      0.2921015530D+02  0.2321844432D+00
      0.9286662960D+01  0.4679413484D+00
      0.3163926960D+01  0.3623119853D+00
 SP   3 1.00       0.000000000000
      0.7868272350D+01 -0.1193324198D+00  0.6899906659D-01
      0.1881288540D+01 -0.1608541517D+00  0.3164239610D+00
      0.5442492580D+00  0.1143456438D+01  0.7443082909D+00
 SP   1 1.00       0.000000000000
      0.1687144782D+00  0.1000000000D+01  0.1000000000D+01
 D   1 1.00       0.000000000000
      0.8000000000D+00  0.1000000000D+01
 ****
      2 0
 S   3 1.00       0.000000000000
      0.1873113696D+02  0.3349460434D-01
      0.2825394365D+01  0.2347269535D+00
      0.6401216923D+00  0.8137573261D+00
 S   1 1.00       0.000000000000
      0.1612777588D+00  0.1000000000D+01
 ****
      3 0
 S   6 1.00       0.000000000000
      0.3047524880D+04  0.1834737132D-02
      0.4573695180D+03  0.1403732281D-01
      0.1039486850D+03  0.6884262226D-01
      0.2921015530D+02  0.2321844432D+00
      0.9286662960D+01  0.4679413484D+00
      0.3163926960D+01  0.3623119853D+00
 SP   3 1.00       0.000000000000
      0.7868272350D+01 -0.1193324198D+00  0.6899906659D-01
      0.1881288540D+01 -0.1608541517D+00  0.3164239610D+00
      0.5442492580D+00  0.1143456438D+01  0.7443082909D+00
 SP   1 1.00       0.000000000000
      0.1687144782D+00  0.1000000000D+01  0.1000000000D+01
 D   1 1.00       0.000000000000
      0.8000000000D+00  0.1000000000D+01
 ****
      4 0
 S   3 1.00       0.000000000000
      0.1873113696D+02  0.3349460434D-01
      0.2825394365D+01  0.2347269535D+00
      0.6401216923D+00  0.8137573261D+00
 S   1 1.00       0.000000000000
      0.1612777588D+00  0.1000000000D+01
 ****
      5 0
 S   3 1.00       0.000000000000
      0.1873113696D+02  0.3349460434D-01
      0.2825394365D+01  0.2347269535D+00
      0.6401216923D+00  0.8137573261D+00
 S   1 1.00       0.000000000000
      0.1612777588D+00  0.1000000000D+01
 ****
      6 0
 S   6 1.00       0.000000000000
      0.3047524880D+04  0.1834737132D-02
      0.4573695180D+03  0.1403732281D-01
      0.1039486850D+03  0.6884262226D-01
      0.2921015530D+02  0.2321844432D+00
      0.9286662960D+01  0.4679413484D+00
      0.3163926960D+01  0.3623119853D+00
 SP   3 1.00       0.000000000000
      0.7868272350D+01 -0.1193324198D+00  0.6899906659D-01
      0.1881288540D+01 -0.1608541517D+00  0.3164239610D+00
      0.5442492580D+00  0.1143456438D+01  0.7443082909D+00
 SP   1 1.00       0.000000000000
      0.1687144782D+00  0.1000000000D+01  0.1000000000D+01
 D   1 1.00       0.000000000000
      0.8000000000D+00  0.1000000000D+01
 ****
      7 0
 S   6 1.00       0.000000000000
      0.3047524880D+04  0.1834737132D-02
      0.4573695180D+03  0.1403732281D-01
      0.1039486850D+03  0.6884262226D-01
      0.2921015530D+02  0.2321844432D+00
      0.9286662960D+01  0.4679413484D+00
      0.3163926960D+01  0.3623119853D+00
 SP   3 1.00       0.000000000000
      0.7868272350D+01 -0.1193324198D+00  0.6899906659D-01
      0.1881288540D+01 -0.1608541517D+00  0.3164239610D+00
      0.5442492580D+00  0.1143456438D+01  0.7443082909D+00
 SP   1 1.00       0.000000000000
      0.1687144782D+00  0.1000000000D+01  0.1000000000D+01
 D   1 1.00       0.000000000000
      0.8000000000D+00  0.1000000000D+01
 ****
      8 0
 S   6 1.00       0.000000000000
      0.3047524880D+04  0.1834737132D-02
      0.4573695180D+03  0.1403732281D-01
      0.1039486850D+03  0.6884262226D-01
      0.2921015530D+02  0.2321844432D+00
      0.9286662960D+01  0.4679413484D+00
      0.3163926960D+01  0.3623119853D+00
 SP   3 1.00       0.000000000000
      0.7868272350D+01 -0.1193324198D+00  0.6899906659D-01
      0.1881288540D+01 -0.1608541517D+00  0.3164239610D+00
      0.5442492580D+00  0.1143456438D+01  0.7443082909D+00
 SP   1 1.00       0.000000000000
      0.1687144782D+00  0.1000000000D+01  0.1000000000D+01
 D   1 1.00       0.000000000000
      0.8000000000D+00  0.1000000000D+01
 ****
      9 0
 S   3 1.00       0.000000000000
      0.1873113696D+02  0.3349460434D-01
      0.2825394365D+01  0.2347269535D+00
      0.6401216923D+00  0.8137573261D+00
 S   1 1.00       0.000000000000
      0.1612777588D+00  0.1000000000D+01
 ****
     10 0
 S   3 1.00       0.000000000000
      0.1873113696D+02  0.3349460434D-01
      0.2825394365D+01  0.2347269535D+00
      0.6401216923D+00  0.8137573261D+00
 S   1 1.00       0.000000000000
      0.1612777588D+00  0.1000000000D+01
 ****
     11 0
 S   6 1.00       0.000000000000
      0.3047524880D+04  0.1834737132D-02
      0.4573695180D+03  0.1403732281D-01
      0.1039486850D+03  0.6884262226D-01
      0.2921015530D+02  0.2321844432D+00
      0.9286662960D+01  0.4679413484D+00
      0.3163926960D+01  0.3623119853D+00
 SP   3 1.00       0.000000000000
      0.7868272350D+01 -0.1193324198D+00  0.6899906659D-01
      0.1881288540D+01 -0.1608541517D+00  0.3164239610D+00
      0.5442492580D+00  0.1143456438D+01  0.7443082909D+00
 SP   1 1.00       0.000000000000
      0.1687144782D+00  0.1000000000D+01  0.1000000000D+01
 D   1 1.00       0.000000000000
      0.8000000000D+00  0.1000000000D+01
 ****
     12 0
 S   3 1.00       0.000000000000
      0.1873113696D+02  0.3349460434D-01
      0.2825394365D+01  0.2347269535D+00
      0.6401216923D+00  0.8137573261D+00
 S   1 1.00       0.000000000000
      0.1612777588D+00  0.1000000000D+01
 ****
     13 0
 S   3 1.00       0.000000000000
      0.1873113696D+02  0.3349460434D-01
      0.2825394365D+01  0.2347269535D+00
      0.6401216923D+00  0.8137573261D+00
 S   1 1.00       0.000000000000
      0.1612777588D+00  0.1000000000D+01
 ****
     14 0
 S   6 1.00       0.000000000000
      0.3047524880D+04  0.1834737132D-02
      0.4573695180D+03  0.1403732281D-01
      0.1039486850D+03  0.6884262226D-01
      0.2921015530D+02  0.2321844432D+00
      0.9286662960D+01  0.4679413484D+00
      0.3163926960D+01  0.3623119853D+00
 SP   3 1.00       0.000000000000
      0.7868272350D+01 -0.1193324198D+00  0.6899906659D-01
      0.1881288540D+01 -0.1608541517D+00  0.3164239610D+00
      0.5442492580D+00  0.1143456438D+01  0.7443082909D+00
 SP   1 1.00       0.000000000000
      0.1687144782D+00  0.1000000000D+01  0.1000000000D+01
 D   1 1.00       0.000000000000
      0.8000000000D+00  0.1000000000D+01
 ****
     15 0
 S   3 1.00       0.000000000000
      0.1873113696D+02  0.3349460434D-01
      0.2825394365D+01  0.2347269535D+00
      0.6401216923D+00  0.8137573261D+00
 S   1 1.00       0.000000000000
      0.1612777588D+00  0.1000000000D+01
 ****
     16 0
 S   6 1.00       0.000000000000
      0.3047524880D+04  0.1834737132D-02
      0.4573695180D+03  0.1403732281D-01
      0.1039486850D+03  0.6884262226D-01
      0.2921015530D+02  0.2321844432D+00
      0.9286662960D+01  0.4679413484D+00
      0.3163926960D+01  0.3623119853D+00
 SP   3 1.00       0.000000000000
      0.7868272350D+01 -0.1193324198D+00  0.6899906659D-01
      0.1881288540D+01 -0.1608541517D+00  0.3164239610D+00
      0.5442492580D+00  0.1143456438D+01  0.7443082909D+00
 SP   1 1.00       0.000000000000
      0.1687144782D+00  0.1000000000D+01  0.1000000000D+01
 D   1 1.00       0.000000000000
      0.8000000000D+00  0.1000000000D+01
 ****
     17 0
 S   3 1.00       0.000000000000
      0.1873113696D+02  0.3349460434D-01
      0.2825394365D+01  0.2347269535D+00
      0.6401216923D+00  0.8137573261D+00
 S   1 1.00       0.000000000000
      0.1612777588D+00  0.1000000000D+01
 ****
     18 0
 S   6 1.00       0.000000000000
      0.3047524880D+04  0.1834737132D-02
      0.4573695180D+03  0.1403732281D-01
      0.1039486850D+03  0.6884262226D-01
      0.2921015530D+02  0.2321844432D+00
      0.9286662960D+01  0.4679413484D+00
      0.3163926960D+01  0.3623119853D+00
 SP   3 1.00       0.000000000000
      0.7868272350D+01 -0.1193324198D+00  0.6899906659D-01
      0.1881288540D+01 -0.1608541517D+00  0.3164239610D+00
      0.5442492580D+00  0.1143456438D+01  0.7443082909D+00
 SP   1 1.00       0.000000000000
      0.1687144782D+00  0.1000000000D+01  0.1000000000D+01
 D   1 1.00       0.000000000000
      0.8000000000D+00  0.1000000000D+01
 ****
     19 0
 S   3 1.00       0.000000000000
      0.1873113696D+02  0.3349460434D-01
      0.2825394365D+01  0.2347269535D+00
      0.6401216923D+00  0.8137573261D+00
 S   1 1.00       0.000000000000
      0.1612777588D+00  0.1000000000D+01
 ****
     20 0
 S   6 1.00       0.000000000000
      0.3047524880D+04  0.1834737132D-02
      0.4573695180D+03  0.1403732281D-01
      0.1039486850D+03  0.6884262226D-01
      0.2921015530D+02  0.2321844432D+00
      0.9286662960D+01  0.4679413484D+00
      0.3163926960D+01  0.3623119853D+00
 SP   3 1.00       0.000000000000
      0.7868272350D+01 -0.1193324198D+00  0.6899906659D-01
      0.1881288540D+01 -0.1608541517D+00  0.3164239610D+00
      0.5442492580D+00  0.1143456438D+01  0.7443082909D+00
 SP   1 1.00       0.000000000000
      0.1687144782D+00  0.1000000000D+01  0.1000000000D+01
 D   1 1.00       0.000000000000
      0.8000000000D+00  0.1000000000D+01
 ****
     21 0
 S   3 1.00       0.000000000000
      0.1873113696D+02  0.3349460434D-01
      0.2825394365D+01  0.2347269535D+00
      0.6401216923D+00  0.8137573261D+00
 S   1 1.00       0.000000000000
      0.1612777588D+00  0.1000000000D+01
 ****
     22 0
 S   6 1.00       0.000000000000
      0.3047524880D+04  0.1834737132D-02
      0.4573695180D+03  0.1403732281D-01
      0.1039486850D+03  0.6884262226D-01
      0.2921015530D+02  0.2321844432D+00
      0.9286662960D+01  0.4679413484D+00
      0.3163926960D+01  0.3623119853D+00
 SP   3 1.00       0.000000000000
      0.7868272350D+01 -0.1193324198D+00  0.6899906659D-01
      0.1881288540D+01 -0.1608541517D+00  0.3164239610D+00
      0.5442492580D+00  0.1143456438D+01  0.7443082909D+00
 SP   1 1.00       0.000000000000
      0.1687144782D+00  0.1000000000D+01  0.1000000000D+01
 D   1 1.00       0.000000000000
      0.8000000000D+00  0.1000000000D+01
 ****
     23 0
 S   3 1.00       0.000000000000
      0.1873113696D+02  0.3349460434D-01
      0.2825394365D+01  0.2347269535D+00
      0.6401216923D+00  0.8137573261D+00
 S   1 1.00       0.000000000000
      0.1612777588D+00  0.1000000000D+01
 ****
     24 0
 S   3 1.00       0.000000000000
      0.1873113696D+02  0.3349460434D-01
      0.2825394365D+01  0.2347269535D+00
      0.6401216923D+00  0.8137573261D+00
 S   1 1.00       0.000000000000
      0.1612777588D+00  0.1000000000D+01
 ****
     25 0
 S   6 1.00       0.000000000000
      0.3047524880D+04  0.1834737132D-02
      0.4573695180D+03  0.1403732281D-01
      0.1039486850D+03  0.6884262226D-01
      0.2921015530D+02  0.2321844432D+00
      0.9286662960D+01  0.4679413484D+00
      0.3163926960D+01  0.3623119853D+00
 SP   3 1.00       0.000000000000
      0.7868272350D+01 -0.1193324198D+00  0.6899906659D-01
      0.1881288540D+01 -0.1608541517D+00  0.3164239610D+00
      0.5442492580D+00  0.1143456438D+01  0.7443082909D+00
 SP   1 1.00       0.000000000000
      0.1687144782D+00  0.1000000000D+01  0.1000000000D+01
 D   1 1.00       0.000000000000
      0.8000000000D+00  0.1000000000D+01
 ****
     26 0
 S   3 1.00       0.000000000000
      0.1873113696D+02  0.3349460434D-01
      0.2825394365D+01  0.2347269535D+00
      0.6401216923D+00  0.8137573261D+00
 S   1 1.00       0.000000000000
      0.1612777588D+00  0.1000000000D+01
 ****
     27 0
 S   3 1.00       0.000000000000
      0.1873113696D+02  0.3349460434D-01
      0.2825394365D+01  0.2347269535D+00
      0.6401216923D+00  0.8137573261D+00
 S   1 1.00       0.000000000000
      0.1612777588D+00  0.1000000000D+01
 ****
     28 0
 S   6 1.00       0.000000000000
      0.3047524880D+04  0.1834737132D-02
      0.4573695180D+03  0.1403732281D-01
      0.1039486850D+03  0.6884262226D-01
      0.2921015530D+02  0.2321844432D+00
      0.9286662960D+01  0.4679413484D+00
      0.3163926960D+01  0.3623119853D+00
 SP   3 1.00       0.000000000000
      0.7868272350D+01 -0.1193324198D+00  0.6899906659D-01
      0.1881288540D+01 -0.1608541517D+00  0.3164239610D+00
      0.5442492580D+00  0.1143456438D+01  0.7443082909D+00
 SP   1 1.00       0.000000000000
      0.1687144782D+00  0.1000000000D+01  0.1000000000D+01
 D   1 1.00       0.000000000000
      0.8000000000D+00  0.1000000000D+01
 ****
     29 0
 S   6 1.00       0.000000000000
      0.3047524880D+04  0.1834737132D-02
      0.4573695180D+03  0.1403732281D-01
      0.1039486850D+03  0.6884262226D-01
      0.2921015530D+02  0.2321844432D+00
      0.9286662960D+01  0.4679413484D+00
      0.3163926960D+01  0.3623119853D+00
 SP   3 1.00       0.000000000000
      0.7868272350D+01 -0.1193324198D+00  0.6899906659D-01
      0.1881288540D+01 -0.1608541517D+00  0.3164239610D+00
      0.5442492580D+00  0.1143456438D+01  0.7443082909D+00
 SP   1 1.00       0.000000000000
      0.1687144782D+00  0.1000000000D+01  0.1000000000D+01
 D   1 1.00       0.000000000000
      0.8000000000D+00  0.1000000000D+01
 ****
     30 0
 S   3 1.00       0.000000000000
      0.1873113696D+02  0.3349460434D-01
      0.2825394365D+01  0.2347269535D+00
      0.6401216923D+00  0.8137573261D+00
 S   1 1.00       0.000000000000
      0.1612777588D+00  0.1000000000D+01
 ****
     31 0
 S   6 1.00       0.000000000000
      0.3047524880D+04  0.1834737132D-02
      0.4573695180D+03  0.1403732281D-01
      0.1039486850D+03  0.6884262226D-01
      0.2921015530D+02  0.2321844432D+00
      0.9286662960D+01  0.4679413484D+00
      0.3163926960D+01  0.3623119853D+00
 SP   3 1.00       0.000000000000
      0.7868272350D+01 -0.1193324198D+00  0.6899906659D-01
      0.1881288540D+01 -0.1608541517D+00  0.3164239610D+00
      0.5442492580D+00  0.1143456438D+01  0.7443082909D+00
 SP   1 1.00       0.000000000000
      0.1687144782D+00  0.1000000000D+01  0.1000000000D+01
 D   1 1.00       0.000000000000
      0.8000000000D+00  0.1000000000D+01
 ****
     32 0
 S   3 1.00       0.000000000000
      0.1873113696D+02  0.3349460434D-01
      0.2825394365D+01  0.2347269535D+00
      0.6401216923D+00  0.8137573261D+00
 S   1 1.00       0.000000000000
      0.1612777588D+00  0.1000000000D+01
 ****
     33 0
 S   3 1.00       0.000000000000
      0.1873113696D+02  0.3349460434D-01
      0.2825394365D+01  0.2347269535D+00
      0.6401216923D+00  0.8137573261D+00
 S   1 1.00       0.000000000000
      0.1612777588D+00  0.1000000000D+01
 ****
     34 0
 S   6 1.00       0.000000000000
      0.3047524880D+04  0.1834737132D-02
      0.4573695180D+03  0.1403732281D-01
      0.1039486850D+03  0.6884262226D-01
      0.2921015530D+02  0.2321844432D+00
      0.9286662960D+01  0.4679413484D+00
      0.3163926960D+01  0.3623119853D+00
 SP   3 1.00       0.000000000000
      0.7868272350D+01 -0.1193324198D+00  0.6899906659D-01
      0.1881288540D+01 -0.1608541517D+00  0.3164239610D+00
      0.5442492580D+00  0.1143456438D+01  0.7443082909D+00
 SP   1 1.00       0.000000000000
      0.1687144782D+00  0.1000000000D+01  0.1000000000D+01
 D   1 1.00       0.000000000000
      0.8000000000D+00  0.1000000000D+01
 ****
     35 0
 S   3 1.00       0.000000000000
      0.1873113696D+02  0.3349460434D-01
      0.2825394365D+01  0.2347269535D+00
      0.6401216923D+00  0.8137573261D+00
 S   1 1.00       0.000000000000
      0.1612777588D+00  0.1000000000D+01
 ****
     36 0
 S   3 1.00       0.000000000000
      0.1873113696D+02  0.3349460434D-01
      0.2825394365D+01  0.2347269535D+00
      0.6401216923D+00  0.8137573261D+00
 S   1 1.00       0.000000000000
      0.1612777588D+00  0.1000000000D+01
 ****
     37 0
 S   6 1.00       0.000000000000
      0.3047524880D+04  0.1834737132D-02
      0.4573695180D+03  0.1403732281D-01
      0.1039486850D+03  0.6884262226D-01
      0.2921015530D+02  0.2321844432D+00
      0.9286662960D+01  0.4679413484D+00
      0.3163926960D+01  0.3623119853D+00
 SP   3 1.00       0.000000000000
      0.7868272350D+01 -0.1193324198D+00  0.6899906659D-01
      0.1881288540D+01 -0.1608541517D+00  0.3164239610D+00
      0.5442492580D+00  0.1143456438D+01  0.7443082909D+00
 SP   1 1.00       0.000000000000
      0.1687144782D+00  0.1000000000D+01  0.1000000000D+01
 D   1 1.00       0.000000000000
      0.8000000000D+00  0.1000000000D+01
 ****
     38 0
 S   3 1.00       0.000000000000
      0.1873113696D+02  0.3349460434D-01
      0.2825394365D+01  0.2347269535D+00
      0.6401216923D+00  0.8137573261D+00
 S   1 1.00       0.000000000000
      0.1612777588D+00  0.1000000000D+01
 ****
     39 0
 S   6 1.00       0.000000000000
      0.3047524880D+04  0.1834737132D-02
      0.4573695180D+03  0.1403732281D-01
      0.1039486850D+03  0.6884262226D-01
      0.2921015530D+02  0.2321844432D+00
      0.9286662960D+01  0.4679413484D+00
      0.3163926960D+01  0.3623119853D+00
 SP   3 1.00       0.000000000000
      0.7868272350D+01 -0.1193324198D+00  0.6899906659D-01
      0.1881288540D+01 -0.1608541517D+00  0.3164239610D+00
      0.5442492580D+00  0.1143456438D+01  0.7443082909D+00
 SP   1 1.00       0.000000000000
      0.1687144782D+00  0.1000000000D+01  0.1000000000D+01
 D   1 1.00       0.000000000000
      0.8000000000D+00  0.1000000000D+01
 ****
     40 0
 S   3 1.00       0.000000000000
      0.1873113696D+02  0.3349460434D-01
      0.2825394365D+01  0.2347269535D+00
      0.6401216923D+00  0.8137573261D+00
 S   1 1.00       0.000000000000
      0.1612777588D+00  0.1000000000D+01
 ****
     41 0
 S   3 1.00       0.000000000000
      0.1873113696D+02  0.3349460434D-01
      0.2825394365D+01  0.2347269535D+00
      0.6401216923D+00  0.8137573261D+00
 S   1 1.00       0.000000000000
      0.1612777588D+00  0.1000000000D+01
 ****
     42 0
 S   3 1.00       0.000000000000
      0.1873113696D+02  0.3349460434D-01
      0.2825394365D+01  0.2347269535D+00
      0.6401216923D+00  0.8137573261D+00
 S   1 1.00       0.000000000000
      0.1612777588D+00  0.1000000000D+01
 ****
     43 0
 S   6 1.00       0.000000000000
      0.3047524880D+04  0.1834737132D-02
      0.4573695180D+03  0.1403732281D-01
      0.1039486850D+03  0.6884262226D-01
      0.2921015530D+02  0.2321844432D+00
      0.9286662960D+01  0.4679413484D+00
      0.3163926960D+01  0.3623119853D+00
 SP   3 1.00       0.000000000000
      0.7868272350D+01 -0.1193324198D+00  0.6899906659D-01
      0.1881288540D+01 -0.1608541517D+00  0.3164239610D+00
      0.5442492580D+00  0.1143456438D+01  0.7443082909D+00
 SP   1 1.00       0.000000000000
      0.1687144782D+00  0.1000000000D+01  0.1000000000D+01
 D   1 1.00       0.000000000000
      0.8000000000D+00  0.1000000000D+01
 ****
     44 0
 S   3 1.00       0.000000000000
      0.1873113696D+02  0.3349460434D-01
      0.2825394365D+01  0.2347269535D+00
      0.6401216923D+00  0.8137573261D+00
 S   1 1.00       0.000000000000
      0.1612777588D+00  0.1000000000D+01
 ****
     45 0
 S   6 1.00       0.000000000000
      0.3047524880D+04  0.1834737132D-02
      0.4573695180D+03  0.1403732281D-01
      0.1039486850D+03  0.6884262226D-01
      0.2921015530D+02  0.2321844432D+00
      0.9286662960D+01  0.4679413484D+00
      0.3163926960D+01  0.3623119853D+00
 SP   3 1.00       0.000000000000
      0.7868272350D+01 -0.1193324198D+00  0.6899906659D-01
      0.1881288540D+01 -0.1608541517D+00  0.3164239610D+00
      0.5442492580D+00  0.1143456438D+01  0.7443082909D+00
 SP   1 1.00       0.000000000000
      0.1687144782D+00  0.1000000000D+01  0.1000000000D+01
 D   1 1.00       0.000000000000
      0.8000000000D+00  0.1000000000D+01
 ****
     46 0
 S   3 1.00       0.000000000000
      0.1873113696D+02  0.3349460434D-01
      0.2825394365D+01  0.2347269535D+00
      0.6401216923D+00  0.8137573261D+00
 S   1 1.00       0.000000000000
      0.1612777588D+00  0.1000000000D+01
 ****
     47 0
 S   3 1.00       0.000000000000
      0.1873113696D+02  0.3349460434D-01
      0.2825394365D+01  0.2347269535D+00
      0.6401216923D+00  0.8137573261D+00
 S   1 1.00       0.000000000000
      0.1612777588D+00  0.1000000000D+01
 ****
     48 0
 S   3 1.00       0.000000000000
      0.1873113696D+02  0.3349460434D-01
      0.2825394365D+01  0.2347269535D+00
      0.6401216923D+00  0.8137573261D+00
 S   1 1.00       0.000000000000
      0.1612777588D+00  0.1000000000D+01
 ****
     49 0
 S   6 1.00       0.000000000000
      0.3047524880D+04  0.1834737132D-02
      0.4573695180D+03  0.1403732281D-01
      0.1039486850D+03  0.6884262226D-01
      0.2921015530D+02  0.2321844432D+00
      0.9286662960D+01  0.4679413484D+00
      0.3163926960D+01  0.3623119853D+00
 SP   3 1.00       0.000000000000
      0.7868272350D+01 -0.1193324198D+00  0.6899906659D-01
      0.1881288540D+01 -0.1608541517D+00  0.3164239610D+00
      0.5442492580D+00  0.1143456438D+01  0.7443082909D+00
 SP   1 1.00       0.000000000000
      0.1687144782D+00  0.1000000000D+01  0.1000000000D+01
 D   1 1.00       0.000000000000
      0.8000000000D+00  0.1000000000D+01
 ****
     50 0
 S   3 1.00       0.000000000000
      0.1873113696D+02  0.3349460434D-01
      0.2825394365D+01  0.2347269535D+00
      0.6401216923D+00  0.8137573261D+00
 S   1 1.00       0.000000000000
      0.1612777588D+00  0.1000000000D+01
 ****
     51 0
 S   3 1.00       0.000000000000
      0.1873113696D+02  0.3349460434D-01
      0.2825394365D+01  0.2347269535D+00
      0.6401216923D+00  0.8137573261D+00
 S   1 1.00       0.000000000000
      0.1612777588D+00  0.1000000000D+01
 ****
     52 0
 S   3 1.00       0.000000000000
      0.1873113696D+02  0.3349460434D-01
      0.2825394365D+01  0.2347269535D+00
      0.6401216923D+00  0.8137573261D+00
 S   1 1.00       0.000000000000
      0.1612777588D+00  0.1000000000D+01
 ****
     53 0
 S   6 1.00       0.000000000000
      0.5484671660D+04  0.1831074430D-02
      0.8252349460D+03  0.1395017220D-01
      0.1880469580D+03  0.6844507810D-01
      0.5296450000D+02  0.2327143360D+00
      0.1689757040D+02  0.4701928980D+00
      0.5799635340D+01  0.3585208530D+00
 SP   3 1.00       0.000000000000
      0.1553961625D+02 -0.1107775495D+00  0.7087426823D-01
      0.3599933586D+01 -0.1480262627D+00  0.3397528391D+00
      0.1013761750D+01  0.1130767015D+01  0.7271585773D+00
 SP   1 1.00       0.000000000000
      0.2700058226D+00  0.1000000000D+01  0.1000000000D+01
 D   1 1.00       0.000000000000
      0.8000000000D+00  0.1000000000D+01
 ****
     54 0
 S   6 1.00       0.000000000000
      0.5484671660D+04  0.1831074430D-02
      0.8252349460D+03  0.1395017220D-01
      0.1880469580D+03  0.6844507810D-01
      0.5296450000D+02  0.2327143360D+00
      0.1689757040D+02  0.4701928980D+00
      0.5799635340D+01  0.3585208530D+00
 SP   3 1.00       0.000000000000
      0.1553961625D+02 -0.1107775495D+00  0.7087426823D-01
      0.3599933586D+01 -0.1480262627D+00  0.3397528391D+00
      0.1013761750D+01  0.1130767015D+01  0.7271585773D+00
 SP   1 1.00       0.000000000000
      0.2700058226D+00  0.1000000000D+01  0.1000000000D+01
 D   1 1.00       0.000000000000
      0.8000000000D+00  0.1000000000D+01
 ****
     55 0
 S   3 1.00       0.000000000000
      0.1873113696D+02  0.3349460434D-01
      0.2825394365D+01  0.2347269535D+00
      0.6401216923D+00  0.8137573261D+00
 S   1 1.00       0.000000000000
      0.1612777588D+00  0.1000000000D+01
 ****
     56 0
 S   6 1.00       0.000000000000
      0.5484671660D+04  0.1831074430D-02
      0.8252349460D+03  0.1395017220D-01
      0.1880469580D+03  0.6844507810D-01
      0.5296450000D+02  0.2327143360D+00
      0.1689757040D+02  0.4701928980D+00
      0.5799635340D+01  0.3585208530D+00
 SP   3 1.00       0.000000000000
      0.1553961625D+02 -0.1107775495D+00  0.7087426823D-01
      0.3599933586D+01 -0.1480262627D+00  0.3397528391D+00
      0.1013761750D+01  0.1130767015D+01  0.7271585773D+00
 SP   1 1.00       0.000000000000
      0.2700058226D+00  0.1000000000D+01  0.1000000000D+01
 D   1 1.00       0.000000000000
      0.8000000000D+00  0.1000000000D+01
 ****
     57 0
 S   3 1.00       0.000000000000
      0.1873113696D+02  0.3349460434D-01
      0.2825394365D+01  0.2347269535D+00
      0.6401216923D+00  0.8137573261D+00
 S   1 1.00       0.000000000000
      0.1612777588D+00  0.1000000000D+01
 ****
     58 0
 S   6 1.00       0.000000000000
      0.3047524880D+04  0.1834737132D-02
      0.4573695180D+03  0.1403732281D-01
      0.1039486850D+03  0.6884262226D-01
      0.2921015530D+02  0.2321844432D+00
      0.9286662960D+01  0.4679413484D+00
      0.3163926960D+01  0.3623119853D+00
 SP   3 1.00       0.000000000000
      0.7868272350D+01 -0.1193324198D+00  0.6899906659D-01
      0.1881288540D+01 -0.1608541517D+00  0.3164239610D+00
      0.5442492580D+00  0.1143456438D+01  0.7443082909D+00
 SP   1 1.00       0.000000000000
      0.1687144782D+00  0.1000000000D+01  0.1000000000D+01
 D   1 1.00       0.000000000000
      0.8000000000D+00  0.1000000000D+01
 ****
     59 0
 S   3 1.00       0.000000000000
      0.1873113696D+02  0.3349460434D-01
      0.2825394365D+01  0.2347269535D+00
      0.6401216923D+00  0.8137573261D+00
 S   1 1.00       0.000000000000
      0.1612777588D+00  0.1000000000D+01
 ****
     60 0
 S   3 1.00       0.000000000000
      0.1873113696D+02  0.3349460434D-01
      0.2825394365D+01  0.2347269535D+00
      0.6401216923D+00  0.8137573261D+00
 S   1 1.00       0.000000000000
      0.1612777588D+00  0.1000000000D+01
 ****
     61 0
 S   6 1.00       0.000000000000
      0.3047524880D+04  0.1834737132D-02
      0.4573695180D+03  0.1403732281D-01
      0.1039486850D+03  0.6884262226D-01
      0.2921015530D+02  0.2321844432D+00
      0.9286662960D+01  0.4679413484D+00
      0.3163926960D+01  0.3623119853D+00
 SP   3 1.00       0.000000000000
      0.7868272350D+01 -0.1193324198D+00  0.6899906659D-01
      0.1881288540D+01 -0.1608541517D+00  0.3164239610D+00
      0.5442492580D+00  0.1143456438D+01  0.7443082909D+00
 SP   1 1.00       0.000000000000
      0.1687144782D+00  0.1000000000D+01  0.1000000000D+01
 D   1 1.00       0.000000000000
      0.8000000000D+00  0.1000000000D+01
 ****
     62 0
 S   3 1.00       0.000000000000
      0.1873113696D+02  0.3349460434D-01
      0.2825394365D+01  0.2347269535D+00
      0.6401216923D+00  0.8137573261D+00
 S   1 1.00       0.000000000000
      0.1612777588D+00  0.1000000000D+01
 ****
     63 0
 S   3 1.00       0.000000000000
      0.1873113696D+02  0.3349460434D-01
      0.2825394365D+01  0.2347269535D+00
      0.6401216923D+00  0.8137573261D+00
 S   1 1.00       0.000000000000
      0.1612777588D+00  0.1000000000D+01
 ****
     64 0
 S   6 1.00       0.000000000000
      0.3047524880D+04  0.1834737132D-02
      0.4573695180D+03  0.1403732281D-01
      0.1039486850D+03  0.6884262226D-01
      0.2921015530D+02  0.2321844432D+00
      0.9286662960D+01  0.4679413484D+00
      0.3163926960D+01  0.3623119853D+00
 SP   3 1.00       0.000000000000
      0.7868272350D+01 -0.1193324198D+00  0.6899906659D-01
      0.1881288540D+01 -0.1608541517D+00  0.3164239610D+00
      0.5442492580D+00  0.1143456438D+01  0.7443082909D+00
 SP   1 1.00       0.000000000000
      0.1687144782D+00  0.1000000000D+01  0.1000000000D+01
 D   1 1.00       0.000000000000
      0.8000000000D+00  0.1000000000D+01
 ****
     65 0
 S   3 1.00       0.000000000000
      0.1873113696D+02  0.3349460434D-01
      0.2825394365D+01  0.2347269535D+00
      0.6401216923D+00  0.8137573261D+00
 S   1 1.00       0.000000000000
      0.1612777588D+00  0.1000000000D+01
 ****
     66 0
 S   3 1.00       0.000000000000
      0.1873113696D+02  0.3349460434D-01
      0.2825394365D+01  0.2347269535D+00
      0.6401216923D+00  0.8137573261D+00
 S   1 1.00       0.000000000000
      0.1612777588D+00  0.1000000000D+01
 ****
     67 0
 S   6 1.00       0.000000000000
      0.3047524880D+04  0.1834737132D-02
      0.4573695180D+03  0.1403732281D-01
      0.1039486850D+03  0.6884262226D-01
      0.2921015530D+02  0.2321844432D+00
      0.9286662960D+01  0.4679413484D+00
      0.3163926960D+01  0.3623119853D+00
 SP   3 1.00       0.000000000000
      0.7868272350D+01 -0.1193324198D+00  0.6899906659D-01
      0.1881288540D+01 -0.1608541517D+00  0.3164239610D+00
      0.5442492580D+00  0.1143456438D+01  0.7443082909D+00
 SP   1 1.00       0.000000000000
      0.1687144782D+00  0.1000000000D+01  0.1000000000D+01
 D   1 1.00       0.000000000000
      0.8000000000D+00  0.1000000000D+01
 ****
     68 0
 S   3 1.00       0.000000000000
      0.1873113696D+02  0.3349460434D-01
      0.2825394365D+01  0.2347269535D+00
      0.6401216923D+00  0.8137573261D+00
 S   1 1.00       0.000000000000
      0.1612777588D+00  0.1000000000D+01
 ****
     69 0
 S   6 1.00       0.000000000000
      0.3047524880D+04  0.1834737132D-02
      0.4573695180D+03  0.1403732281D-01
      0.1039486850D+03  0.6884262226D-01
      0.2921015530D+02  0.2321844432D+00
      0.9286662960D+01  0.4679413484D+00
      0.3163926960D+01  0.3623119853D+00
 SP   3 1.00       0.000000000000
      0.7868272350D+01 -0.1193324198D+00  0.6899906659D-01
      0.1881288540D+01 -0.1608541517D+00  0.3164239610D+00
      0.5442492580D+00  0.1143456438D+01  0.7443082909D+00
 SP   1 1.00       0.000000000000
      0.1687144782D+00  0.1000000000D+01  0.1000000000D+01
 D   1 1.00       0.000000000000
      0.8000000000D+00  0.1000000000D+01
 ****
     70 0
 S   3 1.00       0.000000000000
      0.1873113696D+02  0.3349460434D-01
      0.2825394365D+01  0.2347269535D+00
      0.6401216923D+00  0.8137573261D+00
 S   1 1.00       0.000000000000
      0.1612777588D+00  0.1000000000D+01
 ****
     71 0
 S   3 1.00       0.000000000000
      0.1873113696D+02  0.3349460434D-01
      0.2825394365D+01  0.2347269535D+00
      0.6401216923D+00  0.8137573261D+00
 S   1 1.00       0.000000000000
      0.1612777588D+00  0.1000000000D+01
 ****
     72 0
 S   3 1.00       0.000000000000
      0.1873113696D+02  0.3349460434D-01
      0.2825394365D+01  0.2347269535D+00
      0.6401216923D+00  0.8137573261D+00
 S   1 1.00       0.000000000000
      0.1612777588D+00  0.1000000000D+01
 ****
     73 0
 S   6 1.00       0.000000000000
      0.3047524880D+04  0.1834737132D-02
      0.4573695180D+03  0.1403732281D-01
      0.1039486850D+03  0.6884262226D-01
      0.2921015530D+02  0.2321844432D+00
      0.9286662960D+01  0.4679413484D+00
      0.3163926960D+01  0.3623119853D+00
 SP   3 1.00       0.000000000000
      0.7868272350D+01 -0.1193324198D+00  0.6899906659D-01
      0.1881288540D+01 -0.1608541517D+00  0.3164239610D+00
      0.5442492580D+00  0.1143456438D+01  0.7443082909D+00
 SP   1 1.00       0.000000000000
      0.1687144782D+00  0.1000000000D+01  0.1000000000D+01
 D   1 1.00       0.000000000000
      0.8000000000D+00  0.1000000000D+01
 ****
     74 0
 S   3 1.00       0.000000000000
      0.1873113696D+02  0.3349460434D-01
      0.2825394365D+01  0.2347269535D+00
      0.6401216923D+00  0.8137573261D+00
 S   1 1.00       0.000000000000
      0.1612777588D+00  0.1000000000D+01
 ****
     75 0
 S   3 1.00       0.000000000000
      0.1873113696D+02  0.3349460434D-01
      0.2825394365D+01  0.2347269535D+00
      0.6401216923D+00  0.8137573261D+00
 S   1 1.00       0.000000000000
      0.1612777588D+00  0.1000000000D+01
 ****
     76 0
 S   3 1.00       0.000000000000
      0.1873113696D+02  0.3349460434D-01
      0.2825394365D+01  0.2347269535D+00
      0.6401216923D+00  0.8137573261D+00
 S   1 1.00       0.000000000000
      0.1612777588D+00  0.1000000000D+01
 ****

 AO basis set (Overlap normalization):
 Atom C1       Shell     1 S   6     bf    1 -     1          3.318241246026         -2.352225189964          0.267668632928
      0.3047524880D+04  0.1834737132D-02
      0.4573695180D+03  0.1403732281D-01
      0.1039486850D+03  0.6884262226D-01
      0.2921015530D+02  0.2321844432D+00
      0.9286662960D+01  0.4679413484D+00
      0.3163926960D+01  0.3623119853D+00
 Atom C1       Shell     2 SP   3    bf    2 -     5          3.318241246026         -2.352225189964          0.267668632928
      0.7868272350D+01 -0.1193324198D+00  0.6899906659D-01
      0.1881288540D+01 -0.1608541517D+00  0.3164239610D+00
      0.5442492580D+00  0.1143456438D+01  0.7443082909D+00
 Atom C1       Shell     3 SP   1    bf    6 -     9          3.318241246026         -2.352225189964          0.267668632928
      0.1687144782D+00  0.1000000000D+01  0.1000000000D+01
 Atom C1       Shell     4 D   1     bf   10 -    15          3.318241246026         -2.352225189964          0.267668632928
      0.8000000000D+00  0.1000000000D+01
 Atom H2       Shell     5 S   3     bf   16 -    16          3.561458901493         -2.411278829260         -1.789478089057
      0.1873113696D+02  0.3349460434D-01
      0.2825394365D+01  0.2347269535D+00
      0.6401216923D+00  0.8137573261D+00
 Atom H2       Shell     6 S   1     bf   17 -    17          3.561458901493         -2.411278829260         -1.789478089057
      0.1612777588D+00  0.1000000000D+01
 Atom C3       Shell     7 S   6     bf   18 -    18          5.939203198819         -2.297566033200          1.520208631327
      0.3047524880D+04  0.1834737132D-02
      0.4573695180D+03  0.1403732281D-01
      0.1039486850D+03  0.6884262226D-01
      0.2921015530D+02  0.2321844432D+00
      0.9286662960D+01  0.4679413484D+00
      0.3163926960D+01  0.3623119853D+00
 Atom C3       Shell     8 SP   3    bf   19 -    22          5.939203198819         -2.297566033200          1.520208631327
      0.7868272350D+01 -0.1193324198D+00  0.6899906659D-01
      0.1881288540D+01 -0.1608541517D+00  0.3164239610D+00
      0.5442492580D+00  0.1143456438D+01  0.7443082909D+00
 Atom C3       Shell     9 SP   1    bf   23 -    26          5.939203198819         -2.297566033200          1.520208631327
      0.1687144782D+00  0.1000000000D+01  0.1000000000D+01
 Atom C3       Shell    10 D   1     bf   27 -    32          5.939203198819         -2.297566033200          1.520208631327
      0.8000000000D+00  0.1000000000D+01
 Atom H4       Shell    11 S   3     bf   33 -    33          7.034986559454         -3.942686828027          0.912078793578
      0.1873113696D+02  0.3349460434D-01
      0.2825394365D+01  0.2347269535D+00
      0.6401216923D+00  0.8137573261D+00
 Atom H4       Shell    12 S   1     bf   34 -    34          7.034986559454         -3.942686828027          0.912078793578
      0.1612777588D+00  0.1000000000D+01
 Atom H5       Shell    13 S   3     bf   35 -    35          5.663882214402         -2.488093645432          3.574243635775
      0.1873113696D+02  0.3349460434D-01
      0.2825394365D+01  0.2347269535D+00
      0.6401216923D+00  0.8137573261D+00
 Atom H5       Shell    14 S   1     bf   36 -    36          5.663882214402         -2.488093645432          3.574243635775
      0.1612777588D+00  0.1000000000D+01
 Atom C6       Shell    15 S   6     bf   37 -    37          7.368422027074          0.118050851371          0.941619143666
      0.3047524880D+04  0.1834737132D-02
      0.4573695180D+03  0.1403732281D-01
      0.1039486850D+03  0.6884262226D-01
      0.2921015530D+02  0.2321844432D+00
      0.9286662960D+01  0.4679413484D+00
      0.3163926960D+01  0.3623119853D+00
 Atom C6       Shell    16 SP   3    bf   38 -    41          7.368422027074          0.118050851371          0.941619143666
      0.7868272350D+01 -0.1193324198D+00  0.6899906659D-01
      0.1881288540D+01 -0.1608541517D+00  0.3164239610D+00
      0.5442492580D+00  0.1143456438D+01  0.7443082909D+00
 Atom C6       Shell    17 SP   1    bf   42 -    45          7.368422027074          0.118050851371          0.941619143666
      0.1687144782D+00  0.1000000000D+01  0.1000000000D+01
 Atom C6       Shell    18 D   1     bf   46 -    51          7.368422027074          0.118050851371          0.941619143666
      0.8000000000D+00  0.1000000000D+01
 Atom C7       Shell    19 S   6     bf   52 -    52          5.993037206667          2.612191431455          1.468405209798
      0.3047524880D+04  0.1834737132D-02
      0.4573695180D+03  0.1403732281D-01
      0.1039486850D+03  0.6884262226D-01
      0.2921015530D+02  0.2321844432D+00
      0.9286662960D+01  0.4679413484D+00
      0.3163926960D+01  0.3623119853D+00
 Atom C7       Shell    20 SP   3    bf   53 -    56          5.993037206667          2.612191431455          1.468405209798
      0.7868272350D+01 -0.1193324198D+00  0.6899906659D-01
      0.1881288540D+01 -0.1608541517D+00  0.3164239610D+00
      0.5442492580D+00  0.1143456438D+01  0.7443082909D+00
 Atom C7       Shell    21 SP   1    bf   57 -    60          5.993037206667          2.612191431455          1.468405209798
      0.1687144782D+00  0.1000000000D+01  0.1000000000D+01
 Atom C7       Shell    22 D   1     bf   61 -    66          5.993037206667          2.612191431455          1.468405209798
      0.8000000000D+00  0.1000000000D+01
 Atom C8       Shell    23 S   6     bf   67 -    67          3.294010572837          2.427741197364          0.295643533887
      0.3047524880D+04  0.1834737132D-02
      0.4573695180D+03  0.1403732281D-01
      0.1039486850D+03  0.6884262226D-01
      0.2921015530D+02  0.2321844432D+00
      0.9286662960D+01  0.4679413484D+00
      0.3163926960D+01  0.3623119853D+00
 Atom C8       Shell    24 SP   3    bf   68 -    71          3.294010572837          2.427741197364          0.295643533887
      0.7868272350D+01 -0.1193324198D+00  0.6899906659D-01
      0.1881288540D+01 -0.1608541517D+00  0.3164239610D+00
      0.5442492580D+00  0.1143456438D+01  0.7443082909D+00
 Atom C8       Shell    25 SP   1    bf   72 -    75          3.294010572837          2.427741197364          0.295643533887
      0.1687144782D+00  0.1000000000D+01  0.1000000000D+01
 Atom C8       Shell    26 D   1     bf   76 -    81          3.294010572837          2.427741197364          0.295643533887
      0.8000000000D+00  0.1000000000D+01
 Atom H9       Shell    27 S   3     bf   82 -    82          3.479514688295          2.520964033116         -1.769493025777
      0.1873113696D+02  0.3349460434D-01
      0.2825394365D+01  0.2347269535D+00
      0.6401216923D+00  0.8137573261D+00
 Atom H9       Shell    28 S   1     bf   83 -    83          3.479514688295          2.520964033116         -1.769493025777
      0.1612777588D+00  0.1000000000D+01
 Atom H10      Shell    29 S   3     bf   84 -    84          2.187936236115          4.082708977124          0.862614021523
      0.1873113696D+02  0.3349460434D-01
      0.2825394365D+01  0.2347269535D+00
      0.6401216923D+00  0.8137573261D+00
 Atom H10      Shell    30 S   1     bf   85 -    85          2.187936236115          4.082708977124          0.862614021523
      0.1612777588D+00  0.1000000000D+01
 Atom C11      Shell    31 S   6     bf   86 -    86          1.825642911897          0.016887235230          0.977526132273
      0.3047524880D+04  0.1834737132D-02
      0.4573695180D+03  0.1403732281D-01
      0.1039486850D+03  0.6884262226D-01
      0.2921015530D+02  0.2321844432D+00
      0.9286662960D+01  0.4679413484D+00
      0.3163926960D+01  0.3623119853D+00
 Atom C11      Shell    32 SP   3    bf   87 -    90          1.825642911897          0.016887235230          0.977526132273
      0.7868272350D+01 -0.1193324198D+00  0.6899906659D-01
      0.1881288540D+01 -0.1608541517D+00  0.3164239610D+00
      0.5442492580D+00  0.1143456438D+01  0.7443082909D+00
 Atom C11      Shell    33 SP   1    bf   91 -    94          1.825642911897          0.016887235230          0.977526132273
      0.1687144782D+00  0.1000000000D+01  0.1000000000D+01
 Atom C11      Shell    34 D   1     bf   95 -   100          1.825642911897          0.016887235230          0.977526132273
      0.8000000000D+00  0.1000000000D+01
 Atom H12      Shell    35 S   3     bf  101 -   101          1.409576939240         -0.029547398766          3.014017864166
      0.1873113696D+02  0.3349460434D-01
      0.2825394365D+01  0.2347269535D+00
      0.6401216923D+00  0.8137573261D+00
 Atom H12      Shell    36 S   1     bf  102 -   102          1.409576939240         -0.029547398766          3.014017864166
      0.1612777588D+00  0.1000000000D+01
 Atom H13      Shell    37 S   3     bf  103 -   103          0.000000000000          0.000000000000          0.000000000000
      0.1873113696D+02  0.3349460434D-01
      0.2825394365D+01  0.2347269535D+00
      0.6401216923D+00  0.8137573261D+00
 Atom H13      Shell    38 S   1     bf  104 -   104          0.000000000000          0.000000000000          0.000000000000
      0.1612777588D+00  0.1000000000D+01
 Atom C14      Shell    39 S   6     bf  105 -   105          9.719532826640          0.000000000000          0.000000000000
      0.3047524880D+04  0.1834737132D-02
      0.4573695180D+03  0.1403732281D-01
      0.1039486850D+03  0.6884262226D-01
      0.2921015530D+02  0.2321844432D+00
      0.9286662960D+01  0.4679413484D+00
      0.3163926960D+01  0.3623119853D+00
 Atom C14      Shell    40 SP   3    bf  106 -   109          9.719532826640          0.000000000000          0.000000000000
      0.7868272350D+01 -0.1193324198D+00  0.6899906659D-01
      0.1881288540D+01 -0.1608541517D+00  0.3164239610D+00
      0.5442492580D+00  0.1143456438D+01  0.7443082909D+00
 Atom C14      Shell    41 SP   1    bf  110 -   113          9.719532826640          0.000000000000          0.000000000000
      0.1687144782D+00  0.1000000000D+01  0.1000000000D+01
 Atom C14      Shell    42 D   1     bf  114 -   119          9.719532826640          0.000000000000          0.000000000000
      0.8000000000D+00  0.1000000000D+01
 Atom H15      Shell    43 S   3     bf  120 -   120         10.560795796347         -1.834737483474         -0.396856339599
      0.1873113696D+02  0.3349460434D-01
      0.2825394365D+01  0.2347269535D+00
      0.6401216923D+00  0.8137573261D+00
 Atom H15      Shell    44 S   1     bf  121 -   121         10.560795796347         -1.834737483474         -0.396856339599
      0.1612777588D+00  0.1000000000D+01
 Atom C16      Shell    45 S   6     bf  122 -   122         11.287406511545          2.260630901296         -0.683196090329
      0.3047524880D+04  0.1834737132D-02
      0.4573695180D+03  0.1403732281D-01
      0.1039486850D+03  0.6884262226D-01
      0.2921015530D+02  0.2321844432D+00
      0.9286662960D+01  0.4679413484D+00
      0.3163926960D+01  0.3623119853D+00
 Atom C16      Shell    46 SP   3    bf  123 -   126         11.287406511545          2.260630901296         -0.683196090329
      0.7868272350D+01 -0.1193324198D+00  0.6899906659D-01
      0.1881288540D+01 -0.1608541517D+00  0.3164239610D+00
      0.5442492580D+00  0.1143456438D+01  0.7443082909D+00
 Atom C16      Shell    47 SP   1    bf  127 -   130         11.287406511545          2.260630901296         -0.683196090329
      0.1687144782D+00  0.1000000000D+01  0.1000000000D+01
 Atom C16      Shell    48 D   1     bf  131 -   136         11.287406511545          2.260630901296         -0.683196090329
      0.8000000000D+00  0.1000000000D+01
 Atom H17      Shell    49 S   3     bf  137 -   137         13.280396464401          1.926877884097         -0.233214881512
      0.1873113696D+02  0.3349460434D-01
      0.2825394365D+01  0.2347269535D+00
      0.6401216923D+00  0.8137573261D+00
 Atom H17      Shell    50 S   1     bf  138 -   138         13.280396464401          1.926877884097         -0.233214881512
      0.1612777588D+00  0.1000000000D+01
 Atom C18      Shell    51 S   6     bf  139 -   139         10.332325091189          4.697504049019          0.592877423493
      0.3047524880D+04  0.1834737132D-02
      0.4573695180D+03  0.1403732281D-01
      0.1039486850D+03  0.6884262226D-01
      0.2921015530D+02  0.2321844432D+00
      0.9286662960D+01  0.4679413484D+00
      0.3163926960D+01  0.3623119853D+00
 Atom C18      Shell    52 SP   3    bf  140 -   143         10.332325091189          4.697504049019          0.592877423493
      0.7868272350D+01 -0.1193324198D+00  0.6899906659D-01
      0.1881288540D+01 -0.1608541517D+00  0.3164239610D+00
      0.5442492580D+00  0.1143456438D+01  0.7443082909D+00
 Atom C18      Shell    53 SP   1    bf  144 -   147         10.332325091189          4.697504049019          0.592877423493
      0.1687144782D+00  0.1000000000D+01  0.1000000000D+01
 Atom C18      Shell    54 D   1     bf  148 -   153         10.332325091189          4.697504049019          0.592877423493
      0.8000000000D+00  0.1000000000D+01
 Atom H19      Shell    55 S   3     bf  154 -   154         10.756729820559          4.464321141673          2.614464148383
      0.1873113696D+02  0.3349460434D-01
      0.2825394365D+01  0.2347269535D+00
      0.6401216923D+00  0.8137573261D+00
 Atom H19      Shell    56 S   1     bf  155 -   155         10.756729820559          4.464321141673          2.614464148383
      0.1612777588D+00  0.1000000000D+01
 Atom C20      Shell    57 S   6     bf  156 -   156          7.428304160102          4.880057621682          0.204826357297
      0.3047524880D+04  0.1834737132D-02
      0.4573695180D+03  0.1403732281D-01
      0.1039486850D+03  0.6884262226D-01
      0.2921015530D+02  0.2321844432D+00
      0.9286662960D+01  0.4679413484D+00
      0.3163926960D+01  0.3623119853D+00
 Atom C20      Shell    58 SP   3    bf  157 -   160          7.428304160102          4.880057621682          0.204826357297
      0.7868272350D+01 -0.1193324198D+00  0.6899906659D-01
      0.1881288540D+01 -0.1608541517D+00  0.3164239610D+00
      0.5442492580D+00  0.1143456438D+01  0.7443082909D+00
 Atom C20      Shell    59 SP   1    bf  161 -   164          7.428304160102          4.880057621682          0.204826357297
      0.1687144782D+00  0.1000000000D+01  0.1000000000D+01
 Atom C20      Shell    60 D   1     bf  165 -   170          7.428304160102          4.880057621682          0.204826357297
      0.8000000000D+00  0.1000000000D+01
 Atom H21      Shell    61 S   3     bf  171 -   171          7.142227591529          4.670879225101         -1.843338439687
      0.1873113696D+02  0.3349460434D-01
      0.2825394365D+01  0.2347269535D+00
      0.6401216923D+00  0.8137573261D+00
 Atom H21      Shell    62 S   1     bf  172 -   172          7.142227591529          4.670879225101         -1.843338439687
      0.1612777588D+00  0.1000000000D+01
 Atom C22      Shell    63 S   6     bf  173 -   173          6.331816252873          7.487205166218          0.938204484133
      0.3047524880D+04  0.1834737132D-02
      0.4573695180D+03  0.1403732281D-01
      0.1039486850D+03  0.6884262226D-01
      0.2921015530D+02  0.2321844432D+00
      0.9286662960D+01  0.4679413484D+00
      0.3163926960D+01  0.3623119853D+00
 Atom C22      Shell    64 SP   3    bf  174 -   177          6.331816252873          7.487205166218          0.938204484133
      0.7868272350D+01 -0.1193324198D+00  0.6899906659D-01
      0.1881288540D+01 -0.1608541517D+00  0.3164239610D+00
      0.5442492580D+00  0.1143456438D+01  0.7443082909D+00
 Atom C22      Shell    65 SP   1    bf  178 -   181          6.331816252873          7.487205166218          0.938204484133
      0.1687144782D+00  0.1000000000D+01  0.1000000000D+01
 Atom C22      Shell    66 D   1     bf  182 -   187          6.331816252873          7.487205166218          0.938204484133
      0.8000000000D+00  0.1000000000D+01
 Atom H23      Shell    67 S   3     bf  188 -   188          6.219536927468          7.666486167856          2.995911188663
      0.1873113696D+02  0.3349460434D-01
      0.2825394365D+01  0.2347269535D+00
      0.6401216923D+00  0.8137573261D+00
 Atom H23      Shell    68 S   1     bf  189 -   189          6.219536927468          7.666486167856          2.995911188663
      0.1612777588D+00  0.1000000000D+01
 Atom H24      Shell    69 S   3     bf  190 -   190          4.383176320424          7.627324730698          0.249818771206
      0.1873113696D+02  0.3349460434D-01
      0.2825394365D+01  0.2347269535D+00
      0.6401216923D+00  0.8137573261D+00
 Atom H24      Shell    70 S   1     bf  191 -   191          4.383176320424          7.627324730698          0.249818771206
      0.1612777588D+00  0.1000000000D+01
 Atom C25      Shell    71 S   6     bf  192 -   192          7.842888795340          9.752203621450         -0.093479120410
      0.3047524880D+04  0.1834737132D-02
      0.4573695180D+03  0.1403732281D-01
      0.1039486850D+03  0.6884262226D-01
      0.2921015530D+02  0.2321844432D+00
      0.9286662960D+01  0.4679413484D+00
      0.3163926960D+01  0.3623119853D+00
 Atom C25      Shell    72 SP   3    bf  193 -   196          7.842888795340          9.752203621450         -0.093479120410
      0.7868272350D+01 -0.1193324198D+00  0.6899906659D-01
      0.1881288540D+01 -0.1608541517D+00  0.3164239610D+00
      0.5442492580D+00  0.1143456438D+01  0.7443082909D+00
 Atom C25      Shell    73 SP   1    bf  197 -   200          7.842888795340          9.752203621450         -0.093479120410
      0.1687144782D+00  0.1000000000D+01  0.1000000000D+01
 Atom C25      Shell    74 D   1     bf  201 -   206          7.842888795340          9.752203621450         -0.093479120410
      0.8000000000D+00  0.1000000000D+01
 Atom H26      Shell    75 S   3     bf  207 -   207          7.737812595728          9.777810071954         -2.168101065911
      0.1873113696D+02  0.3349460434D-01
      0.2825394365D+01  0.2347269535D+00
      0.6401216923D+00  0.8137573261D+00
 Atom H26      Shell    76 S   1     bf  208 -   208          7.737812595728          9.777810071954         -2.168101065911
      0.1612777588D+00  0.1000000000D+01
 Atom H27      Shell    77 S   3     bf  209 -   209          6.939072016696         11.491866394253          0.564455753482
      0.1873113696D+02  0.3349460434D-01
      0.2825394365D+01  0.2347269535D+00
      0.6401216923D+00  0.8137573261D+00
 Atom H27      Shell    78 S   1     bf  210 -   210          6.939072016696         11.491866394253          0.564455753482
      0.1612777588D+00  0.1000000000D+01
 Atom C28      Shell    79 S   6     bf  211 -   211         10.642734491544          9.613945059266          0.695388981284
      0.3047524880D+04  0.1834737132D-02
      0.4573695180D+03  0.1403732281D-01
      0.1039486850D+03  0.6884262226D-01
      0.2921015530D+02  0.2321844432D+00
      0.9286662960D+01  0.4679413484D+00
      0.3163926960D+01  0.3623119853D+00
 Atom C28      Shell    80 SP   3    bf  212 -   215         10.642734491544          9.613945059266          0.695388981284
      0.7868272350D+01 -0.1193324198D+00  0.6899906659D-01
      0.1881288540D+01 -0.1608541517D+00  0.3164239610D+00
      0.5442492580D+00  0.1143456438D+01  0.7443082909D+00
 Atom C28      Shell    81 SP   1    bf  216 -   219         10.642734491544          9.613945059266          0.695388981284
      0.1687144782D+00  0.1000000000D+01  0.1000000000D+01
 Atom C28      Shell    82 D   1     bf  220 -   225         10.642734491544          9.613945059266          0.695388981284
      0.8000000000D+00  0.1000000000D+01
 Atom C29      Shell    83 S   6     bf  226 -   226         11.685439810374          7.077311851693         -0.371495345621
      0.3047524880D+04  0.1834737132D-02
      0.4573695180D+03  0.1403732281D-01
      0.1039486850D+03  0.6884262226D-01
      0.2921015530D+02  0.2321844432D+00
      0.9286662960D+01  0.4679413484D+00
      0.3163926960D+01  0.3623119853D+00
 Atom C29      Shell    84 SP   3    bf  227 -   230         11.685439810374          7.077311851693         -0.371495345621
      0.7868272350D+01 -0.1193324198D+00  0.6899906659D-01
      0.1881288540D+01 -0.1608541517D+00  0.3164239610D+00
      0.5442492580D+00  0.1143456438D+01  0.7443082909D+00
 Atom C29      Shell    85 SP   1    bf  231 -   234         11.685439810374          7.077311851693         -0.371495345621
      0.1687144782D+00  0.1000000000D+01  0.1000000000D+01
 Atom C29      Shell    86 D   1     bf  235 -   240         11.685439810374          7.077311851693         -0.371495345621
      0.8000000000D+00  0.1000000000D+01
 Atom H30      Shell    87 S   3     bf  241 -   241         11.340116755953          7.157334572462         -2.418482692046
      0.1873113696D+02  0.3349460434D-01
      0.2825394365D+01  0.2347269535D+00
      0.6401216923D+00  0.8137573261D+00
 Atom H30      Shell    88 S   1     bf  242 -   242         11.340116755953          7.157334572462         -2.418482692046
      0.1612777588D+00  0.1000000000D+01
 Atom C31      Shell    89 S   6     bf  243 -   243         14.556219532818          7.293374974111          0.000000000000
      0.3047524880D+04  0.1834737132D-02
      0.4573695180D+03  0.1403732281D-01
      0.1039486850D+03  0.6884262226D-01
      0.2921015530D+02  0.2321844432D+00
      0.9286662960D+01  0.4679413484D+00
      0.3163926960D+01  0.3623119853D+00
 Atom C31      Shell    90 SP   3    bf  244 -   247         14.556219532818          7.293374974111          0.000000000000
      0.7868272350D+01 -0.1193324198D+00  0.6899906659D-01
      0.1881288540D+01 -0.1608541517D+00  0.3164239610D+00
      0.5442492580D+00  0.1143456438D+01  0.7443082909D+00
 Atom C31      Shell    91 SP   1    bf  248 -   251         14.556219532818          7.293374974111          0.000000000000
      0.1687144782D+00  0.1000000000D+01  0.1000000000D+01
 Atom C31      Shell    92 D   1     bf  252 -   257         14.556219532818          7.293374974111          0.000000000000
      0.8000000000D+00  0.1000000000D+01
 Atom H32      Shell    93 S   3     bf  258 -   258         15.602540105610          6.058082940764         -1.278108956737
      0.1873113696D+02  0.3349460434D-01
      0.2825394365D+01  0.2347269535D+00
      0.6401216923D+00  0.8137573261D+00
 Atom H32      Shell    94 S   1     bf  259 -   259         15.602540105610          6.058082940764         -1.278108956737
      0.1612777588D+00  0.1000000000D+01
 Atom H33      Shell    95 S   3     bf  260 -   260         15.084919967112          6.767909807648          1.935896828833
      0.1873113696D+02  0.3349460434D-01
      0.2825394365D+01  0.2347269535D+00
      0.6401216923D+00  0.8137573261D+00
 Atom H33      Shell    96 S   1     bf  261 -   261         15.084919967112          6.767909807648          1.935896828833
      0.1612777588D+00  0.1000000000D+01
 Atom C34      Shell    97 S   6     bf  262 -   262         15.100369725468         10.131947621641         -0.505347614484
      0.3047524880D+04  0.1834737132D-02
      0.4573695180D+03  0.1403732281D-01
      0.1039486850D+03  0.6884262226D-01
      0.2921015530D+02  0.2321844432D+00
      0.9286662960D+01  0.4679413484D+00
      0.3163926960D+01  0.3623119853D+00
 Atom C34      Shell    98 SP   3    bf  263 -   266         15.100369725468         10.131947621641         -0.505347614484
      0.7868272350D+01 -0.1193324198D+00  0.6899906659D-01
      0.1881288540D+01 -0.1608541517D+00  0.3164239610D+00
      0.5442492580D+00  0.1143456438D+01  0.7443082909D+00
 Atom C34      Shell    99 SP   1    bf  267 -   270         15.100369725468         10.131947621641         -0.505347614484
      0.1687144782D+00  0.1000000000D+01  0.1000000000D+01
 Atom C34      Shell   100 D   1     bf  271 -   276         15.100369725468         10.131947621641         -0.505347614484
      0.8000000000D+00  0.1000000000D+01
 Atom H35      Shell   101 S   3     bf  277 -   277         16.279468692452         10.941957487981          0.994596765425
      0.1873113696D+02  0.3349460434D-01
      0.2825394365D+01  0.2347269535D+00
      0.6401216923D+00  0.8137573261D+00
 Atom H35      Shell   102 S   1     bf  278 -   278         16.279468692452         10.941957487981          0.994596765425
      0.1612777588D+00  0.1000000000D+01
 Atom H36      Shell   103 S   3     bf  279 -   279         16.148716953948         10.379314643264         -2.269878446202
      0.1873113696D+02  0.3349460434D-01
      0.2825394365D+01  0.2347269535D+00
      0.6401216923D+00  0.8137573261D+00
 Atom H36      Shell   104 S   1     bf  280 -   280         16.148716953948         10.379314643264         -2.269878446202
      0.1612777588D+00  0.1000000000D+01
 Atom C37      Shell   105 S   6     bf  281 -   281         12.486032113147         11.520020913681         -0.627999174200
      0.3047524880D+04  0.1834737132D-02
      0.4573695180D+03  0.1403732281D-01
      0.1039486850D+03  0.6884262226D-01
      0.2921015530D+02  0.2321844432D+00
      0.9286662960D+01  0.4679413484D+00
      0.3163926960D+01  0.3623119853D+00
 Atom C37      Shell   106 SP   3    bf  282 -   285         12.486032113147         11.520020913681         -0.627999174200
      0.7868272350D+01 -0.1193324198D+00  0.6899906659D-01
      0.1881288540D+01 -0.1608541517D+00  0.3164239610D+00
      0.5442492580D+00  0.1143456438D+01  0.7443082909D+00
[...]
 1609 Fit      -0.000132
 1610 Fit      -0.000367
 1611 Fit       0.000536
 1612 Fit       0.001305
 1613 Fit       0.001543
 1614 Fit       0.001164
 1615 Fit      -0.003502
 1616 Fit      -0.003241
 1617 Fit      -0.002851
 1618 Fit      -0.003299
 1619 Fit      -0.001774
 1620 Fit      -0.000409
 1621 Fit      -0.002664
 1622 Fit      -0.000671
 1623 Fit       0.001231
 1624 Fit       0.001161
 1625 Fit      -0.001068
 1626 Fit      -0.001031
 1627 Fit       0.001161
 1628 Fit       0.001527
 1629 Fit      -0.002577
 1630 Fit      -0.000860
 1631 Fit      -0.001974
 1632 Fit      -0.002145
 1633 Fit       0.000085
 1634 Fit       0.001132
 1635 Fit       0.000513
 1636 Fit      -0.001809
 1637 Fit      -0.002179
 1638 Fit       0.000098
 1639 Fit       0.001600
 1640 Fit       0.002034
 1641 Fit      -0.000030
 1642 Fit       0.001400
 1643 Fit      -0.002357
 1644 Fit      -0.001432
 1645 Fit      -0.000877
 1646 Fit      -0.000569
 1647 Fit       0.000615
 1648 Fit       0.000621
 1649 Fit      -0.000168
 1650 Fit      -0.002442
 1651 Fit       0.001026
 1652 Fit       0.001814
 1653 Fit       0.001417
 1654 Fit      -0.000199
 1655 Fit       0.001328
 1656 Fit      -0.009322
 1657 Fit      -0.003094
 1658 Fit      -0.010327
 1659 Fit      -0.015537
 1660 Fit      -0.013983
 1661 Fit      -0.008325
 1662 Fit      -0.005046
 1663 Fit      -0.005225
 1664 Fit      -0.003944
 1665 Fit      -0.001335
 1666 Fit      -0.004107
 1667 Fit      -0.006855
 1668 Fit      -0.005285
 1669 Fit      -0.003533
 1670 Fit       0.001694
 1671 Fit       0.002657
 1672 Fit       0.002190
 1673 Fit       0.002855
 1674 Fit       0.001744
 1675 Fit       0.001991
 1676 Fit       0.003082
 1677 Fit      -0.008425
 1678 Fit      -0.000854
 1679 Fit       0.003020
 1680 Fit       0.005364
 1681 Fit      -0.012679
 1682 Fit      -0.002224
 1683 Fit       0.003097
 1684 Fit      -0.008834
 1685 Fit      -0.000563
 1686 Fit      -0.001957
 1687 Fit       0.012213
 1688 Fit       0.007725
 1689 Fit       0.017706
 1690 Fit       0.014456
 1691 Fit       0.009408
 1692 Fit       0.003470
 1693 Fit       0.011269
 1694 Fit       0.006594
 1695 Fit       0.004864
 1696 Fit       0.002186
 1697 Fit       0.002557
 1698 Fit      -0.000466
 1699 Fit       0.000485
 1700 Fit       0.000957
 1701 Fit       0.001099
 1702 Fit      -0.008883
 1703 Fit      -0.004047
 1704 Fit      -0.000822
 1705 Fit      -0.000027
 1706 Fit      -0.000602
 1707 Fit      -0.004333
 1708 Fit      -0.002463
 1709 Fit       0.007110
 1710 Fit       0.006599
 1711 Fit       0.006158
 1712 Fit       0.005706
 1713 Fit       0.005039
 1714 Fit       0.005136
 1715 Fit       0.004483
 1716 Fit       0.004167
 1717 Fit       0.003243
 1718 Fit       0.002789
 1719 Fit       0.005205
 1720 Fit       0.004263
 1721 Fit       0.004444
 1722 Fit       0.003939
 1723 Fit      -0.004047
 1724 Fit       0.009530
 1725 Fit       0.011340
 1726 Fit       0.017058
 1727 Fit       0.007451
 1728 Fit       0.007577
 1729 Fit       0.009906
 1730 Fit       0.018177
 1731 Fit       0.004595
 1732 Fit       0.006350
 1733 Fit       0.004105
 1734 Fit       0.002778
 1735 Fit       0.001028
 1736 Fit      -0.002633
 1737 Fit       0.003326
 1738 Fit       0.002324
 1739 Fit       0.000267
 1740 Fit      -0.004371
 1741 Fit       0.002240
 1742 Fit       0.000984
 1743 Fit      -0.002447
 1744 Fit      -0.009865
 1745 Fit       0.001284
 1746 Fit      -0.000804
 1747 Fit      -0.005016
 1748 Fit      -0.000166
 1749 Fit       0.000412
 1750 Fit      -0.001176
 1751 Fit       0.003192
 1752 Fit       0.000273
 1753 Fit       0.000982
 1754 Fit       0.004775
 1755 Fit      -0.008704
 1756 Fit       0.004728
 1757 Fit       0.004845
 1758 Fit       0.006325
 1759 Fit       0.006839
 1760 Fit       0.007593
 1761 Fit       0.005956
 1762 Fit       0.007459
 1763 Fit       0.009019
 1764 Fit       0.001943
 1765 Fit       0.005213
 1766 Fit       0.008292
 1767 Fit      -0.004888
 1768 Fit       0.001467
 1769 Fit       0.005622
 1770 Fit       0.005230
 1771 Fit       0.004532
 1772 Fit       0.006218
 1773 Fit       0.006412
 1774 Fit       0.003171
 1775 Fit       0.008030
 1776 Fit       0.006430
 1777 Fit       0.001349
 1778 Fit       0.009592
 1779 Fit       0.006789
 1780 Fit       0.005608
 1781 Fit       0.003861
 1782 Fit       0.005316
 1783 Fit      -0.002508
 1784 Fit      -0.015636
 1785 Fit      -0.007472
 1786 Fit      -0.006245
 1787 Fit      -0.013303
 1788 Fit      -0.016484
 1789 Fit       0.002721
 1790 Fit       0.005036
 1791 Fit      -0.001787
 1792 Fit       0.004372
 1793 Fit       0.002914
 1794 Fit       0.003776
 1795 Fit       0.005854
 1796 Fit       0.004974
 1797 Fit       0.002111
 1798 Fit       0.003931
 1799 Fit       0.001425
 1800 Fit       0.003224
 1801 Fit       0.000605
 1802 Fit       0.002229
 1803 Fit      -0.000849
 1804 Fit       0.000435
 1805 Fit      -0.002211
 1806 Fit      -0.000886
 1807 Fit      -0.001769
 1808 Fit      -0.002208
 1809 Fit      -0.001931
 1810 Fit      -0.001992
 1811 Fit      -0.006107
 1812 Fit      -0.002869
 1813 Fit      -0.002384
 1814 Fit      -0.002882
 1815 Fit      -0.005853
 1816 Fit      -0.009834
 1817 Fit      -0.004432
 1818 Fit       0.002535
 1819 Fit       0.001080
 1820 Fit       0.001554
 1821 Fit      -0.001012
 1822 Fit      -0.000010
 1823 Fit      -0.002279
 1824 Fit      -0.013234
 1825 Fit      -0.010208
 1826 Fit      -0.016117
 1827 Fit      -0.003594
 1828 Fit      -0.000947
 1829 Fit      -0.002757
 1830 Fit      -0.004276
 1831 Fit       0.000506
 1832 Fit      -0.001705
 1833 Fit      -0.003134
 1834 Fit      -0.000437
 1835 Fit      -0.001506
 1836 Fit      -0.003946
 1837 Fit       0.002296
 1838 Fit       0.004051
 1839 Fit       0.003058
 1840 Fit       0.000688
 1841 Fit       0.001197
 1842 Fit       0.005039
 1843 Fit       0.003059
 1844 Fit       0.001460
 1845 Fit      -0.001724
 1846 Fit       0.001218
 1847 Fit      -0.000780
 1848 Fit      -0.003870
 1849 Fit      -0.003328
 1850 Fit      -0.001976
 1851 Fit      -0.004179
 1852 Fit       0.001827
 1853 Fit       0.002081
 1854 Fit       0.000568
 1855 Fit       0.001120
 1856 Fit       0.001289
 1857 Fit      -0.000174
 1858 Fit      -0.000928
 1859 Fit       0.000017
 1860 Fit      -0.002178
 1861 Fit      -0.002647
 1862 Fit      -0.000990
 1863 Fit      -0.002317
 1864 Fit      -0.001453
 1865 Fit      -0.003373
 1866 Fit      -0.002059
 1867 Fit      -0.001872
 1868 Fit      -0.003527
 1869 Fit      -0.003067
 1870 Fit      -0.003312
 1871 Fit      -0.004772
 1872 Fit      -0.007587
 1873 Fit      -0.011814
 1874 Fit      -0.006400
 1875 Fit      -0.005320
 1876 Fit      -0.005360
 1877 Fit      -0.002244
 1878 Fit      -0.003500
 1879 Fit      -0.007469
 1880 Fit      -0.008991
 1881 Fit      -0.004617
 1882 Fit      -0.000176
 1883 Fit      -0.000207
 1884 Fit      -0.000736
 1885 Fit      -0.000210
 1886 Fit       0.000613
 1887 Fit       0.000756
 1888 Fit      -0.000635
 1889 Fit       0.001598
 1890 Fit       0.002866
 1891 Fit       0.004531
 1892 Fit       0.003388
 1893 Fit       0.003257
 1894 Fit       0.006223
 1895 Fit       0.001180
 1896 Fit       0.000023
 1897 Fit       0.001004
 1898 Fit       0.002305
 1899 Fit       0.001722
 1900 Fit       0.000420
 1901 Fit       0.002269
 1902 Fit       0.002394
 1903 Fit      -0.000035
 1904 Fit       0.001140
 1905 Fit       0.001020
 1906 Fit       0.000239
 1907 Fit       0.001372
 1908 Fit       0.002425
 1909 Fit       0.002458
 1910 Fit       0.003775
 1911 Fit       0.003010
 1912 Fit       0.000080
 1913 Fit       0.001169
 1914 Fit       0.000695
 1915 Fit      -0.000023
 1916 Fit       0.001519
 1917 Fit      -0.000806
 1918 Fit      -0.000887
 1919 Fit      -0.000640
 1920 Fit      -0.001034
 1921 Fit      -0.001467
 1922 Fit      -0.002162
 1923 Fit      -0.001161
 1924 Fit      -0.002286
 1925 Fit      -0.002692
 1926 Fit      -0.002228
 1927 Fit      -0.002494
 1928 Fit      -0.002468
 1929 Fit      -0.002024
 1930 Fit      -0.001882
 1931 Fit      -0.001700
 1932 Fit      -0.001310
 1933 Fit      -0.001050
 1934 Fit      -0.001500
 1935 Fit      -0.000665
 1936 Fit      -0.000686
 1937 Fit      -0.000673
 1938 Fit      -0.001204
 1939 Fit      -0.000626
 1940 Fit      -0.000228
 1941 Fit      -0.000407
 1942 Fit       0.001110
 1943 Fit      -0.000192
 1944 Fit       0.001499
 1945 Fit      -0.000174
 1946 Fit       0.000802
 1947 Fit      -0.000944
 1948 Fit      -0.000616
 1949 Fit       0.000708
 1950 Fit       0.002989
 1951 Fit      -0.000279
 1952 Fit       0.001778
 1953 Fit       0.003695
 1954 Fit      -0.000135
 1955 Fit       0.002097
 1956 Fit       0.004152
 1957 Fit       0.003754
 1958 Fit       0.003951
 1959 Fit       0.005003
 1960 Fit       0.004937
 1961 Fit       0.004174
 1962 Fit       0.009116
 1963 Fit       0.003716
 1964 Fit       0.005011
 1965 Fit       0.005306
 1966 Fit       0.004911
 1967 Fit       0.005582
 1968 Fit       0.006103
 1969 Fit       0.006332
 1970 Fit       0.006717
 1971 Fit       0.006440
 1972 Fit       0.007032
 1973 Fit       0.007238
 1974 Fit       0.006102
 1975 Fit       0.007719
 1976 Fit       0.009792
 1977 Fit       0.007637
 1978 Fit       0.011754
 1979 Fit       0.015294
 1980 Fit       0.014522
 1981 Fit       0.010011
 1982 Fit       0.004170
 1983 Fit       0.005109
 1984 Fit       0.004686
 1985 Fit       0.004565
 1986 Fit       0.006091
 1987 Fit       0.006115
 1988 Fit       0.004221
 1989 Fit       0.004828
 1990 Fit       0.001437
 1991 Fit       0.004526
 1992 Fit      -0.015175
 1993 Fit      -0.016456
 1994 Fit      -0.014020
 1995 Fit      -0.005926
 1996 Fit      -0.022048
 1997 Fit      -0.019584
 1998 Fit      -0.018225
 1999 Fit      -0.016541
 2000 Fit      -0.011764
 2001 Fit      -0.000287
 2002 Fit      -0.015653
 2003 Fit      -0.007536
 2004 Fit       0.009597
 2005 Fit       0.003187
 2006 Fit       0.000969
 2007 Fit       0.008575
 2008 Fit       0.006153
 2009 Fit      -0.003007
 2010 Fit      -0.010117
 2011 Fit      -0.015183
 2012 Fit      -0.001767
 2013 Fit      -0.010262
 2014 Fit      -0.015693
 2015 Fit      -0.018359
 2016 Fit      -0.019503
 2017 Fit      -0.005091
 2018 Fit      -0.011126
 2019 Fit      -0.007495
 2020 Fit       0.012996
 2021 Fit       0.015493
 2022 Fit       0.016409
 2023 Fit       0.013355
 2024 Fit       0.012108
 2025 Fit       0.011398
 2026 Fit       0.017647
 2027 Fit       0.019084
 2028 Fit       0.017047
 2029 Fit       0.014211
 2030 Fit       0.005789
 2031 Fit       0.014686
 2032 Fit       0.018804
 2033 Fit       0.018422
 2034 Fit       0.013303
 2035 Fit       0.004567
 2036 Fit       0.002101
 2037 Fit       0.011085
 2038 Fit       0.016042
 2039 Fit       0.009396
 2040 Fit       0.000279
 2041 Fit      -0.002143
 2042 Fit      -0.004062
 2043 Fit      -0.006112
 2044 Fit      -0.008195
 2045 Fit      -0.009161
 2046 Fit      -0.007353
 2047 Fit      -0.010722
 2048 Fit      -0.014115
 2049 Fit      -0.015996
 2050 Fit      -0.017341
 2051 Fit      -0.018518
 2052 Fit      -0.019063
 2053 Fit      -0.017772
 2054 Fit      -0.016013
 2055 Fit      -0.021085
 2056 Fit      -0.023452
 2057 Fit      -0.024567
 2058 Fit      -0.024767
 2059 Fit      -0.023222
 2060 Fit      -0.018272
 2061 Fit      -0.020589
 2062 Fit      -0.024695
 2063 Fit      -0.026060
 2064 Fit      -0.025220
 2065 Fit      -0.021422
 2066 Fit      -0.018223
 2067 Fit      -0.022143
 2068 Fit      -0.018332
 2069 Fit       0.021451
 2070 Fit       0.022459
 2071 Fit       0.019119
 2072 Fit       0.017186
 2073 Fit       0.017200
 2074 Fit       0.014734
 2075 Fit       0.012569
 2076 Fit       0.010911
 2077 Fit       0.009555
 2078 Fit       0.009139
 2079 Fit       0.011018
 2080 Fit       0.006403
 2081 Fit       0.004000
 2082 Fit       0.002135
 2083 Fit       0.000431
 2084 Fit      -0.001483
 2085 Fit       0.000157
 2086 Fit      -0.001198
 2087 Fit      -0.001144
 2088 Fit      -0.003924
 2089 Fit      -0.001623
 2090 Fit      -0.000630
 2091 Fit      -0.000612
 2092 Fit      -0.000821
 2093 Fit      -0.002894
 2094 Fit      -0.000595
 2095 Fit      -0.001029
 2096 Fit      -0.002359
 2097 Fit      -0.003348
 2098 Fit      -0.001674
 2099 Fit       0.000590
 2100 Fit       0.000877
 2101 Fit      -0.001366
 2102 Fit       0.001218
 2103 Fit       0.001272
 2104 Fit       0.000276
 2105 Fit       0.001238
 2106 Fit       0.001271
 2107 Fit       0.000482
 2108 Fit       0.000421
 2109 Fit      -0.000044
 2110 Fit      -0.002267
 2111 Fit      -0.003988
 2112 Fit      -0.003094
 2113 Fit      -0.000397
 2114 Fit       0.000317
 2115 Fit      -0.003886
 2116 Fit      -0.001438
 2117 Fit      -0.000322
 2118 Fit       0.000445
 2119 Fit       0.000051
 2120 Fit      -0.001128
 2121 Fit      -0.001972
 2122 Fit      -0.000485
 2123 Fit       0.000387
 2124 Fit       0.001202
 2125 Fit       0.000586
 2126 Fit       0.001049
 2127 Fit       0.000099
 2128 Fit      -0.000083
 2129 Fit       0.000276
 2130 Fit      -0.001079
 2131 Fit      -0.001877
 2132 Fit      -0.001079
 2133 Fit      -0.003266
 2134 Fit      -0.000733
 2135 Fit       0.000105
 2136 Fit      -0.000108
 2137 Fit       0.000117
 2138 Fit       0.000144
 2139 Fit      -0.000282
 2140 Fit      -0.000349
 2141 Fit       0.000124
 2142 Fit       0.000314
 2143 Fit      -0.000105
 2144 Fit      -0.000627
 2145 Fit      -0.000172
 2146 Fit      -0.000150
 2147 Fit      -0.000669
 2148 Fit      -0.001338
 2149 Fit      -0.000589
 2150 Fit      -0.002319
 2151 Fit      -0.002705
 2152 Fit      -0.002451
 2153 Fit      -0.002819
 2154 Fit      -0.002688
 2155 Fit      -0.002138
 2156 Fit      -0.001279
 2157 Fit      -0.002190
 2158 Fit      -0.002401
 2159 Fit      -0.001210
 2160 Fit      -0.001845
 2161 Fit      -0.000532
 2162 Fit       0.000971
 2163 Fit       0.001258
 2164 Fit      -0.000801
 2165 Fit       0.000690
 2166 Fit       0.001882
 2167 Fit      -0.001979
 2168 Fit      -0.000566
 2169 Fit       0.000874
 2170 Fit      -0.001943
 2171 Fit      -0.000597
 2172 Fit      -0.000628
 2173 Fit      -0.001815
 2174 Fit       0.000845
 2175 Fit      -0.000229
 2176 Fit      -0.001795
 2177 Fit       0.001470
 2178 Fit       0.000931
 2179 Fit      -0.000167
 2180 Fit      -0.001743
 2181 Fit       0.000669
 2182 Fit       0.000812
 2183 Fit       0.000415
 2184 Fit      -0.000627
 2185 Fit      -0.002164
 2186 Fit      -0.000511
 2187 Fit      -0.000626
 2188 Fit      -0.001451
 2189 Fit      -0.001999
 2190 Fit      -0.001435
 2191 Fit      -0.001055
 2192 Fit      -0.000909
 2193 Fit      -0.001638
 2194 Fit      -0.001172
 2195 Fit      -0.000500
 2196 Fit       0.000019
 2197 Fit       0.000227
 2198 Fit       0.000396
 2199 Fit      -0.000093
 2200 Fit      -0.000263
 2201 Fit       0.000292
 2202 Fit       0.000823
 2203 Fit       0.001058
 2204 Fit       0.000698
 2205 Fit      -0.002607
 2206 Fit      -0.002446
 2207 Fit      -0.002047
 2208 Fit      -0.002547
 2209 Fit      -0.001671
 2210 Fit      -0.002037
 2211 Fit      -0.002134
 2212 Fit      -0.002315
 2213 Fit      -0.001574
 2214 Fit      -0.001049
 2215 Fit      -0.001031
 2216 Fit      -0.000472
 2217 Fit      -0.001969
 2218 Fit      -0.000609
 2219 Fit       0.000707
 2220 Fit       0.000684
 2221 Fit      -0.000819
 2222 Fit      -0.000711
 2223 Fit       0.000783
 2224 Fit       0.001226
 2225 Fit       0.000912
 2226 Fit      -0.001078
 2227 Fit      -0.001148
 2228 Fit      -0.001820
 2229 Fit      -0.001895
 2230 Fit      -0.000379
 2231 Fit       0.000338
 2232 Fit      -0.000124
 2233 Fit      -0.001676
 2234 Fit      -0.001755
 2235 Fit      -0.000211
 2236 Fit       0.000902
 2237 Fit       0.001260
 2238 Fit       0.000777
 2239 Fit      -0.000257
 2240 Fit       0.000926
 2241 Fit       0.001600
 2242 Fit      -0.000191
 2243 Fit       0.000825
 2244 Fit      -0.001494
 2245 Fit      -0.001140
 2246 Fit      -0.000620
 2247 Fit       0.000001
 2248 Fit      -0.000075
 2249 Fit      -0.000452
 2250 Fit       0.000687
 2251 Fit       0.001080
 2252 Fit       0.000697
 2253 Fit      -0.000223
 2254 Fit       0.001402
 2255 Fit       0.000918
 2256 Fit      -0.000312
 2257 Fit       0.000757
 -----------------------------------------------------------------
 Leave Link  602 at Wed Apr 26 14:23:23 2017, MaxMem=    33554432 cpu:         4.1
 (Enter /home/michal/g09/l9999.exe)

 Test job not archived.
 1\1\GINC-LINUX\SP\RHF\6-31G(d)\C27H46O3\MICHAL\26-Apr-2017\0\\#P HF/6-
 31G* SCF(Conver=6) NoSymm Test Pop=mk IOp(6/33=2) GFInput GFPrint\\MEP
  - Input generated by R.E.D.-III.x MOLECULE\\0,1\C,0,1.75593764,-1.244
 74396,0.14164414\H,0,1.88464288,-1.2759938,-0.94695102\C,0,3.14289097,
 -1.21581958,0.80445976\H,0,3.72275455,-2.08638001,0.48265131\H,0,2.997
 19738,-1.31664245,1.89140827\C,0,3.899201,0.06246982,0.49828339\C,0,3.
 1713787,1.38231217,0.77704657\C,0,1.74311532,1.28470531,0.15644782\H,0
 ,1.84127987,1.33403671,-0.93637538\H,0,1.15780599,2.16047654,0.4564756
 8\C,0,0.96608862,0.00893634,0.51728455\H,0,0.74591599,-0.01563581,1.59
 494956\H,0,0.,0.,0.\C,0,5.14335525,0.,0.\H,0,5.58853244,-0.97090126,-0
 .21000733\C,0,5.97303827,1.19627435,-0.3615318\H,0,7.02768313,1.019659
 86,-0.123412\C,0,5.46763095,2.48581208,0.31373722\H,0,5.69221626,2.362
 417,1.38351484\C,0,3.93088926,2.58241527,0.10838944\H,0,3.77950406,2.4
 7172283,-0.97545269\C,0,3.35065285,3.96205833,0.49647643\H,0,3.2912371
 9,4.05692975,1.58536792\H,0,2.31947701,4.03620641,0.1321984\C,0,4.1502
 78,5.16064389,-0.04946702\H,0,4.09467407,5.17419424,-1.14730967\H,0,3.
 67199876,6.08123378,0.29869712\C,0,5.63189253,5.08748061,0.367984\C,0,
 6.18366842,3.74515213,-0.19658687\H,0,6.00093133,3.78749833,-1.2798059
 2\C,0,7.70281962,3.85948781,0.\H,0,8.25650862,3.20579942,-0.67634613\H
 ,0,7.98259584,3.58142362,1.02443248\C,0,7.9907715,5.36159576,-0.267418
 44\H,0,8.6147238,5.79023452,0.52631794\H,0,8.54553296,5.49249675,-1.20
 116794\C,0,6.60732362,6.09613251,-0.33232285\H,0,6.29466281,6.1383737,
 -1.38762\C,0,5.77522323,5.18884691,1.90480934\H,0,5.31405169,4.3450136
 1,2.42439149\H,0,6.82342827,5.22379886,2.21584212\H,0,5.29531103,6.099
 13883,2.27964545\C,0,6.68977703,7.56225248,0.16819041\H,0,7.07380018,7
 .54360029,1.19978812\C,0,5.32904584,8.28134928,0.1815754\H,0,4.8578135
 8,8.24653356,-0.80880371\H,0,5.44021086,9.33404853,0.45818249\H,0,4.63
 36953,7.83720217,0.89730708\C,0,3.05949652,1.56081607,2.31613819\H,0,2
 .38634829,2.38421567,2.57233861\H,0,2.66652396,0.6633779,2.80000342\H,
 0,4.03658939,1.76607245,2.76409792\O,0,5.87436293,1.23831803,-1.816920
 48\O,0,7.11042101,1.79212635,-2.37672181\H,0,7.3783383,1.04942377,-2.9
 4146096\O,0,1.04987374,-2.45055385,0.44566636\H,0,0.86922729,-2.472634
 7,1.39594794\C,0,7.70950751,8.35925866,-0.68351573\H,0,8.62672284,7.77
 022997,-0.79609426\H,0,7.3013096,8.48116282,-1.69874562\C,0,8.10532949
 ,9.73678108,-0.12620137\H,0,7.22672482,10.38940274,-0.07100948\H,0,8.4
 6335394,9.61056072,0.90472479\C,0,9.1920196,10.41475853,-0.97678582\H,
 0,8.82693373,10.49733785,-2.01084378\H,0,10.06947891,9.75330064,-1.018
 55557\C,0,9.66118643,11.81434221,-0.51540899\H,0,10.43367805,12.125014
 79,-1.23450465\C,0,8.54091806,12.86613366,-0.57593775\H,0,7.75514767,1
 2.66369189,0.16101282\H,0,8.93454999,13.86729675,-0.36605948\H,0,8.071
 69955,12.89275942,-1.56650119\C,0,10.32128473,11.79005981,0.8732235\H,
 0,9.5978536,11.54864618,1.66052852\H,0,10.75442934,12.76710917,1.11627
 117\H,0,11.12626468,11.04707606,0.91954815\\Version=EM64L-G09RevD.01\H
 F=-1273.6797152\RMSD=5.560e-07\Dipole=0.2655511,0.0135077,0.6528937\Qu
 adrupole=5.3300034,-7.8490066,2.5190032,-6.4641204,-0.2451899,0.044822
 5\PG=C01 [X(C27H46O3)]\\@


 TIMES HAVE CHANGED. IN THE BIBLE WHEN AN ASS
 SPOKE IT WAS CONSIDERED A MIRACLE.
 Job cpu time:       0 days  0 hours 12 minutes 11.3 seconds.
 File lengths (MBytes):  RWF=    159 Int=      0 D2E=      0 Chk=     11 Scr=      1
 Normal termination of Gaussian 09 at Wed Apr 26 14:23:23 2017.
