 Entering Gaussian System, Link 0=/home/michal/g09/g09
 Input=JOB2-gau_m1-24-3.com
 Output=JOB2-gau_m1-24-3.log
 Initial command:
 /home/michal/g09/l1.exe "/home/michal/gauss_scratch/Gau-17058.inp" -scrdir="/home/michal/gauss_scratch/"
 Entering Link 1 = /home/michal/g09/l1.exe PID=     17059.
  
 Copyright (c) 1988,1990,1992,1993,1995,1998,2003,2009,2013,
            Gaussian, Inc.  All Rights Reserved.
  
 This is part of the Gaussian(R) 09 program.  It is based on
 the Gaussian(R) 03 system (copyright 2003, Gaussian, Inc.),
 the Gaussian(R) 98 system (copyright 1998, Gaussian, Inc.),
 the Gaussian(R) 94 system (copyright 1995, Gaussian, Inc.),
 the Gaussian 92(TM) system (copyright 1992, Gaussian, Inc.),
 the Gaussian 90(TM) system (copyright 1990, Gaussian, Inc.),
 the Gaussian 88(TM) system (copyright 1988, Gaussian, Inc.),
 the Gaussian 86(TM) system (copyright 1986, Carnegie Mellon
 University), and the Gaussian 82(TM) system (copyright 1983,
 Carnegie Mellon University). Gaussian is a federally registered
 trademark of Gaussian, Inc.
  
 This software contains proprietary and confidential information,
 including trade secrets, belonging to Gaussian, Inc.
  
 This software is provided under written license and may be
 used, copied, transmitted, or stored only in accord with that
 written license.
  
 The following legend is applicable only to US Government
 contracts under FAR:
  
                    RESTRICTED RIGHTS LEGEND
  
 Use, reproduction and disclosure by the US Government is
 subject to restrictions as set forth in subparagraphs (a)
 and (c) of the Commercial Computer Software - Restricted
 Rights clause in FAR 52.227-19.
  
 Gaussian, Inc.
 340 Quinnipiac St., Bldg. 40, Wallingford CT 06492
  
  
 ---------------------------------------------------------------
 Warning -- This program may not be used in any manner that
 competes with the business of Gaussian, Inc. or will provide
 assistance to any competitor of Gaussian, Inc.  The licensee
 of this program is prohibited from giving any competitor of
 Gaussian, Inc. access to this program.  By using this program,
 the user acknowledges that Gaussian, Inc. is engaged in the
 business of creating and licensing software in the field of
 computational chemistry and represents and warrants to the
 licensee that it is not a competitor of Gaussian, Inc. and that
 it will not use this program in any manner prohibited above.
 ---------------------------------------------------------------
  

 Cite this work as:
 Gaussian 09, Revision D.01,
 M. J. Frisch, G. W. Trucks, H. B. Schlegel, G. E. Scuseria, 
 M. A. Robb, J. R. Cheeseman, G. Scalmani, V. Barone, B. Mennucci, 
 G. A. Petersson, H. Nakatsuji, M. Caricato, X. Li, H. P. Hratchian, 
 A. F. Izmaylov, J. Bloino, G. Zheng, J. L. Sonnenberg, M. Hada, 
 M. Ehara, K. Toyota, R. Fukuda, J. Hasegawa, M. Ishida, T. Nakajima, 
 Y. Honda, O. Kitao, H. Nakai, T. Vreven, J. A. Montgomery, Jr., 
 J. E. Peralta, F. Ogliaro, M. Bearpark, J. J. Heyd, E. Brothers, 
 K. N. Kudin, V. N. Staroverov, T. Keith, R. Kobayashi, J. Normand, 
 K. Raghavachari, A. Rendell, J. C. Burant, S. S. Iyengar, J. Tomasi, 
 M. Cossi, N. Rega, J. M. Millam, M. Klene, J. E. Knox, J. B. Cross, 
 V. Bakken, C. Adamo, J. Jaramillo, R. Gomperts, R. E. Stratmann, 
 O. Yazyev, A. J. Austin, R. Cammi, C. Pomelli, J. W. Ochterski, 
 R. L. Martin, K. Morokuma, V. G. Zakrzewski, G. A. Voth, 
 P. Salvador, J. J. Dannenberg, S. Dapprich, A. D. Daniels, 
 O. Farkas, J. B. Foresman, J. V. Ortiz, J. Cioslowski, 
 and D. J. Fox, Gaussian, Inc., Wallingford CT, 2013.
 
 ******************************************
 Gaussian 09:  EM64L-G09RevD.01 24-Apr-2013
                26-Apr-2017 
 ******************************************
 %Mem=256MB
 %NProc=12
 Will use up to   12 processors via shared memory.
 ----------------------------------------------------------------------
 #P HF/6-31G* SCF(Conver=6) NoSymm Test Pop=mk IOp(6/33=2) GFInput GFPr
 int
 ----------------------------------------------------------------------
 1/38=1/1;
 2/12=2,15=1,17=6,18=5,40=1/2;
 3/5=1,6=6,7=1,11=9,16=1,24=110,25=1,30=1/1,2,3;
 4//1;
 5/5=2,6=6,38=5/2;
 6/7=2,8=2,9=2,10=2,15=8,20=1,28=1,33=2/1,2;
 99/5=1,9=1/99;
 Leave Link    1 at Wed Apr 26 15:00:21 2017, MaxMem=    33554432 cpu:         0.6
 (Enter /home/michal/g09/l101.exe)
 ----------------------------------------------
 MEP - Input generated by R.E.D.-III.x MOLECULE
 ----------------------------------------------
 Symbolic Z-matrix:
 Charge =  0 Multiplicity = 1
 C                    -0.97506   1.98041   1.69874 
 H                    -0.98573   0.99679   2.1832 
 C                     0.37091   2.66266   1.98523 
 H                     0.52396   2.73744   3.06624 
 H                     0.30892   3.69446   1.60315 
 C                     1.54231   1.94601   1.33885 
 C                     1.42316   1.62964  -0.1575 
 C                     0.01178   1.01622  -0.41632 
 H                     0.        0.        0. 
 H                    -0.14523   0.91301  -1.49548 
 C                    -1.16048   1.80017   0.19264 
 H                    -1.24985   2.79011  -0.2792 
 H                    -2.10281   1.27478   0. 
 C                     2.61601   1.62985   2.07691 
 H                     2.61948   1.85425   3.14246 
 C                     3.85408   0.96689   1.55592 
 H                     4.73501   1.52694   1.90244 
 C                     3.90158   0.88503   0.01647 
 H                     4.20927   1.88989  -0.30912 
 C                     2.50381   0.57456  -0.58123 
 H                     2.19014  -0.37303  -0.12559 
 C                     2.57364   0.34474  -2.1087 
 H                     2.74121   1.29504  -2.62681 
 H                     1.60668  -0.02603  -2.46746 
 C                     3.66889  -0.64889  -2.54713 
 H                     3.43452  -1.65007  -2.15729 
 H                     3.64683  -0.72795  -3.63842 
 C                     5.0612   -0.23188  -2.03023 
 C                     4.94305  -0.12605  -0.48201 
 H                     4.59064  -1.11584  -0.15444 
 C                     6.39522   0.        0. 
 H                     6.51386  -0.31618   1.03972 
 H                     6.73535   1.04172  -0.05926 
 C                     7.18605  -0.90058  -0.98788 
 H                     8.05267  -0.36712  -1.39617 
 H                     7.58117  -1.78725  -0.48319 
 C                     6.20228  -1.30323  -2.14011 
 H                     5.74084  -2.2674   -1.87238 
 C                     5.51321   1.09411  -2.68506 
 H                     4.84881   1.92767  -2.44396 
 H                     6.52067   1.38343  -2.37136 
 H                     5.52754   0.99968  -3.77592 
 C                     6.9306   -1.51855  -3.49309 
 H                     7.44831  -0.58126  -3.7408 
 C                     5.97784  -1.85518  -4.65272 
 H                     5.37768  -2.74495  -4.42362 
 H                     6.5315   -2.05944  -5.57411 
 H                     5.28959  -1.03604  -4.87144 
 C                     1.56829   2.95601  -0.95164 
 H                     1.31134   2.81912  -2.00648 
 H                     0.90968   3.73475  -0.5587 
 H                     2.59081   3.34247  -0.89595 
 O                     4.11155  -0.27133   2.26192 
 O                     2.96579  -1.17378   2.08332 
 H                     3.44857  -2.00466   1.94684 
 O                    -2.06382   2.68231   2.30569 
 H                    -2.12401   3.56253   1.90852 
 C                     8.0036   -2.62705  -3.33798 
 H                     8.64376  -2.3903   -2.48017 
 H                     7.48894  -3.56563  -3.08286 
 C                     8.92371  -2.88784  -4.54759 
 H                     9.57316  -3.73241  -4.28477 
 H                     8.33274  -3.22419  -5.40744 
 C                     9.79188  -1.68285  -4.94582 
 H                     10.31329  -1.3151   -4.04968 
 H                     9.14332  -0.86066  -5.27672 
 C                     10.84544  -1.93188  -6.05145 
 H                     11.34854  -0.96647  -6.21009 
 C                     11.92848  -2.9379   -5.6275 
 H                     11.52119  -3.94878  -5.5113 
 H                     12.72407  -2.99224  -6.37937 
 H                     12.38878  -2.65077  -4.67475 
 C                     10.2114  -2.33581  -7.393 
 H                     9.73912  -3.3233   -7.33569 
 H                     10.96865  -2.38159  -8.18398 
 H                     9.44574  -1.61595  -7.70569 
 
 NAtoms=     76 NQM=       76 NQMF=       0 NMMI=      0 NMMIF=      0
                NMic=       0 NMicF=      0.
                    Isotopes and Nuclear Properties:
 (Nuclear quadrupole moments (NQMom) in fm**2, nuclear magnetic moments (NMagM)
  in nuclear magnetons)

  Atom         1           2           3           4           5           6           7           8           9          10
 IAtWgt=          12           1          12           1           1          12          12          12           1           1
 AtmWgt=  12.0000000   1.0078250  12.0000000   1.0078250   1.0078250  12.0000000  12.0000000  12.0000000   1.0078250   1.0078250
 NucSpn=           0           1           0           1           1           0           0           0           1           1
 AtZEff=   0.0000000   0.0000000   0.0000000   0.0000000   0.0000000   0.0000000   0.0000000   0.0000000   0.0000000   0.0000000
 NQMom=    0.0000000   0.0000000   0.0000000   0.0000000   0.0000000   0.0000000   0.0000000   0.0000000   0.0000000   0.0000000
 NMagM=    0.0000000   2.7928460   0.0000000   2.7928460   2.7928460   0.0000000   0.0000000   0.0000000   2.7928460   2.7928460
 AtZNuc=   6.0000000   1.0000000   6.0000000   1.0000000   1.0000000   6.0000000   6.0000000   6.0000000   1.0000000   1.0000000

  Atom        11          12          13          14          15          16          17          18          19          20
 IAtWgt=          12           1           1          12           1          12           1          12           1          12
 AtmWgt=  12.0000000   1.0078250   1.0078250  12.0000000   1.0078250  12.0000000   1.0078250  12.0000000   1.0078250  12.0000000
 NucSpn=           0           1           1           0           1           0           1           0           1           0
 AtZEff=   0.0000000   0.0000000   0.0000000   0.0000000   0.0000000   0.0000000   0.0000000   0.0000000   0.0000000   0.0000000
 NQMom=    0.0000000   0.0000000   0.0000000   0.0000000   0.0000000   0.0000000   0.0000000   0.0000000   0.0000000   0.0000000
 NMagM=    0.0000000   2.7928460   2.7928460   0.0000000   2.7928460   0.0000000   2.7928460   0.0000000   2.7928460   0.0000000
 AtZNuc=   6.0000000   1.0000000   1.0000000   6.0000000   1.0000000   6.0000000   1.0000000   6.0000000   1.0000000   6.0000000

  Atom        21          22          23          24          25          26          27          28          29          30
 IAtWgt=           1          12           1           1          12           1           1          12          12           1
 AtmWgt=   1.0078250  12.0000000   1.0078250   1.0078250  12.0000000   1.0078250   1.0078250  12.0000000  12.0000000   1.0078250
 NucSpn=           1           0           1           1           0           1           1           0           0           1
 AtZEff=   0.0000000   0.0000000   0.0000000   0.0000000   0.0000000   0.0000000   0.0000000   0.0000000   0.0000000   0.0000000
 NQMom=    0.0000000   0.0000000   0.0000000   0.0000000   0.0000000   0.0000000   0.0000000   0.0000000   0.0000000   0.0000000
 NMagM=    2.7928460   0.0000000   2.7928460   2.7928460   0.0000000   2.7928460   2.7928460   0.0000000   0.0000000   2.7928460
 AtZNuc=   1.0000000   6.0000000   1.0000000   1.0000000   6.0000000   1.0000000   1.0000000   6.0000000   6.0000000   1.0000000

  Atom        31          32          33          34          35          36          37          38          39          40
 IAtWgt=          12           1           1          12           1           1          12           1          12           1
 AtmWgt=  12.0000000   1.0078250   1.0078250  12.0000000   1.0078250   1.0078250  12.0000000   1.0078250  12.0000000   1.0078250
 NucSpn=           0           1           1           0           1           1           0           1           0           1
 AtZEff=   0.0000000   0.0000000   0.0000000   0.0000000   0.0000000   0.0000000   0.0000000   0.0000000   0.0000000   0.0000000
 NQMom=    0.0000000   0.0000000   0.0000000   0.0000000   0.0000000   0.0000000   0.0000000   0.0000000   0.0000000   0.0000000
 NMagM=    0.0000000   2.7928460   2.7928460   0.0000000   2.7928460   2.7928460   0.0000000   2.7928460   0.0000000   2.7928460
 AtZNuc=   6.0000000   1.0000000   1.0000000   6.0000000   1.0000000   1.0000000   6.0000000   1.0000000   6.0000000   1.0000000

  Atom        41          42          43          44          45          46          47          48          49          50
 IAtWgt=           1           1          12           1          12           1           1           1          12           1
 AtmWgt=   1.0078250   1.0078250  12.0000000   1.0078250  12.0000000   1.0078250   1.0078250   1.0078250  12.0000000   1.0078250
 NucSpn=           1           1           0           1           0           1           1           1           0           1
 AtZEff=   0.0000000   0.0000000   0.0000000   0.0000000   0.0000000   0.0000000   0.0000000   0.0000000   0.0000000   0.0000000
 NQMom=    0.0000000   0.0000000   0.0000000   0.0000000   0.0000000   0.0000000   0.0000000   0.0000000   0.0000000   0.0000000
 NMagM=    2.7928460   2.7928460   0.0000000   2.7928460   0.0000000   2.7928460   2.7928460   2.7928460   0.0000000   2.7928460
 AtZNuc=   1.0000000   1.0000000   6.0000000   1.0000000   6.0000000   1.0000000   1.0000000   1.0000000   6.0000000   1.0000000

  Atom        51          52          53          54          55          56          57          58          59          60
 IAtWgt=           1           1          16          16           1          16           1          12           1           1
 AtmWgt=   1.0078250   1.0078250  15.9949146  15.9949146   1.0078250  15.9949146   1.0078250  12.0000000   1.0078250   1.0078250
 NucSpn=           1           1           0           0           1           0           1           0           1           1
 AtZEff=   0.0000000   0.0000000   0.0000000   0.0000000   0.0000000   0.0000000   0.0000000   0.0000000   0.0000000   0.0000000
 NQMom=    0.0000000   0.0000000   0.0000000   0.0000000   0.0000000   0.0000000   0.0000000   0.0000000   0.0000000   0.0000000
 NMagM=    2.7928460   2.7928460   0.0000000   0.0000000   2.7928460   0.0000000   2.7928460   0.0000000   2.7928460   2.7928460
 AtZNuc=   1.0000000   1.0000000   8.0000000   8.0000000   1.0000000   8.0000000   1.0000000   6.0000000   1.0000000   1.0000000

  Atom        61          62          63          64          65          66          67          68          69          70
 IAtWgt=          12           1           1          12           1           1          12           1          12           1
 AtmWgt=  12.0000000   1.0078250   1.0078250  12.0000000   1.0078250   1.0078250  12.0000000   1.0078250  12.0000000   1.0078250
 NucSpn=           0           1           1           0           1           1           0           1           0           1
 AtZEff=   0.0000000   0.0000000   0.0000000   0.0000000   0.0000000   0.0000000   0.0000000   0.0000000   0.0000000   0.0000000
 NQMom=    0.0000000   0.0000000   0.0000000   0.0000000   0.0000000   0.0000000   0.0000000   0.0000000   0.0000000   0.0000000
 NMagM=    0.0000000   2.7928460   2.7928460   0.0000000   2.7928460   2.7928460   0.0000000   2.7928460   0.0000000   2.7928460
 AtZNuc=   6.0000000   1.0000000   1.0000000   6.0000000   1.0000000   1.0000000   6.0000000   1.0000000   6.0000000   1.0000000

  Atom        71          72          73          74          75          76
 IAtWgt=           1           1          12           1           1           1
 AtmWgt=   1.0078250   1.0078250  12.0000000   1.0078250   1.0078250   1.0078250
 NucSpn=           1           1           0           1           1           1
 AtZEff=   0.0000000   0.0000000   0.0000000   0.0000000   0.0000000   0.0000000
 NQMom=    0.0000000   0.0000000   0.0000000   0.0000000   0.0000000   0.0000000
 NMagM=    2.7928460   2.7928460   0.0000000   2.7928460   2.7928460   2.7928460
 AtZNuc=   1.0000000   1.0000000   6.0000000   1.0000000   1.0000000   1.0000000
 Leave Link  101 at Wed Apr 26 15:00:22 2017, MaxMem=    33554432 cpu:         1.8
 (Enter /home/michal/g09/l202.exe)
 Symmetry turned off by external request.
 Stoichiometry    C27H46O3
 Framework group  C1[X(C27H46O3)]
 Deg. of freedom   222
 Full point group                 C1      NOp   1
                          Input orientation:                          
 ---------------------------------------------------------------------
 Center     Atomic      Atomic             Coordinates (Angstroms)
 Number     Number       Type             X           Y           Z
 ---------------------------------------------------------------------
      1          6           0       -0.975062    1.980409    1.698740
      2          1           0       -0.985732    0.996786    2.183201
      3          6           0        0.370905    2.662659    1.985233
      4          1           0        0.523963    2.737443    3.066245
      5          1           0        0.308924    3.694461    1.603151
      6          6           0        1.542315    1.946007    1.338847
      7          6           0        1.423159    1.629643   -0.157503
      8          6           0        0.011777    1.016224   -0.416320
      9          1           0        0.000000    0.000000    0.000000
     10          1           0       -0.145227    0.913013   -1.495476
     11          6           0       -1.160479    1.800172    0.192643
     12          1           0       -1.249853    2.790115   -0.279205
     13          1           0       -2.102810    1.274782    0.000000
     14          6           0        2.616009    1.629846    2.076915
     15          1           0        2.619477    1.854254    3.142458
     16          6           0        3.854082    0.966886    1.555916
     17          1           0        4.735011    1.526942    1.902443
     18          6           0        3.901584    0.885030    0.016469
     19          1           0        4.209266    1.889886   -0.309121
     20          6           0        2.503814    0.574563   -0.581228
     21          1           0        2.190143   -0.373027   -0.125592
     22          6           0        2.573639    0.344741   -2.108701
     23          1           0        2.741208    1.295039   -2.626813
     24          1           0        1.606683   -0.026034   -2.467458
     25          6           0        3.668887   -0.648894   -2.547127
     26          1           0        3.434516   -1.650068   -2.157289
     27          1           0        3.646830   -0.727954   -3.638422
     28          6           0        5.061196   -0.231879   -2.030230
     29          6           0        4.943045   -0.126049   -0.482010
     30          1           0        4.590641   -1.115839   -0.154442
     31          6           0        6.395224    0.000000    0.000000
     32          1           0        6.513859   -0.316177    1.039715
     33          1           0        6.735347    1.041720   -0.059256
     34          6           0        7.186054   -0.900583   -0.987881
     35          1           0        8.052671   -0.367116   -1.396167
     36          1           0        7.581170   -1.787246   -0.483186
     37          6           0        6.202277   -1.303231   -2.140113
     38          1           0        5.740838   -2.267400   -1.872383
     39          6           0        5.513211    1.094108   -2.685058
     40          1           0        4.848809    1.927674   -2.443963
     41          1           0        6.520666    1.383434   -2.371363
     42          1           0        5.527543    0.999683   -3.775922
     43          6           0        6.930596   -1.518554   -3.493092
     44          1           0        7.448313   -0.581264   -3.740799
     45          6           0        5.977845   -1.855176   -4.652720
     46          1           0        5.377677   -2.744951   -4.423619
     47          1           0        6.531503   -2.059438   -5.574107
     48          1           0        5.289589   -1.036037   -4.871444
     49          6           0        1.568294    2.956014   -0.951639
     50          1           0        1.311336    2.819120   -2.006481
     51          1           0        0.909675    3.734748   -0.558703
     52          1           0        2.590810    3.342469   -0.895946
     53          8           0        4.111554   -0.271333    2.261921
     54          8           0        2.965789   -1.173777    2.083321
     55          1           0        3.448573   -2.004656    1.946839
     56          8           0       -2.063818    2.682309    2.305688
     57          1           0       -2.124012    3.562527    1.908516
     58          6           0        8.003601   -2.627047   -3.337981
     59          1           0        8.643764   -2.390297   -2.480172
     60          1           0        7.488937   -3.565631   -3.082865
     61          6           0        8.923714   -2.887844   -4.547586
     62          1           0        9.573164   -3.732405   -4.284772
     63          1           0        8.332740   -3.224190   -5.407439
     64          6           0        9.791882   -1.682848   -4.945817
     65          1           0       10.313295   -1.315100   -4.049675
     66          1           0        9.143321   -0.860661   -5.276719
     67          6           0       10.845438   -1.931884   -6.051452
     68          1           0       11.348537   -0.966474   -6.210089
     69          6           0       11.928481   -2.937904   -5.627503
     70          1           0       11.521187   -3.948784   -5.511302
     71          1           0       12.724070   -2.992245   -6.379374
     72          1           0       12.388777   -2.650773   -4.674751
     73          6           0       10.211395   -2.335806   -7.392995
     74          1           0        9.739121   -3.323296   -7.335687
     75          1           0       10.968646   -2.381586   -8.183979
     76          1           0        9.445742   -1.615950   -7.705686
 ---------------------------------------------------------------------
 Rotational constants (GHZ):      0.4434265      0.0535765      0.0507109
 Leave Link  202 at Wed Apr 26 15:00:22 2017, MaxMem=    33554432 cpu:         0.0
 (Enter /home/michal/g09/l301.exe)
 Standard basis: 6-31G(d) (6D, 7F)
 Ernie: Thresh=  0.10000D-02 Tol=  0.10000D-05 Strict=F.
 AO basis set in the form of general basis input (Overlap normalization):
      1 0
 S   6 1.00       0.000000000000
      0.3047524880D+04  0.1834737132D-02
      0.4573695180D+03  0.1403732281D-01
      0.1039486850D+03  0.6884262226D-01
      0.2921015530D+02  0.2321844432D+00
      0.9286662960D+01  0.4679413484D+00
      0.3163926960D+01  0.3623119853D+00
 SP   3 1.00       0.000000000000
      0.7868272350D+01 -0.1193324198D+00  0.6899906659D-01
      0.1881288540D+01 -0.1608541517D+00  0.3164239610D+00
      0.5442492580D+00  0.1143456438D+01  0.7443082909D+00
 SP   1 1.00       0.000000000000
      0.1687144782D+00  0.1000000000D+01  0.1000000000D+01
 D   1 1.00       0.000000000000
      0.8000000000D+00  0.1000000000D+01
 ****
      2 0
 S   3 1.00       0.000000000000
      0.1873113696D+02  0.3349460434D-01
      0.2825394365D+01  0.2347269535D+00
      0.6401216923D+00  0.8137573261D+00
 S   1 1.00       0.000000000000
      0.1612777588D+00  0.1000000000D+01
 ****
      3 0
 S   6 1.00       0.000000000000
      0.3047524880D+04  0.1834737132D-02
      0.4573695180D+03  0.1403732281D-01
      0.1039486850D+03  0.6884262226D-01
      0.2921015530D+02  0.2321844432D+00
      0.9286662960D+01  0.4679413484D+00
      0.3163926960D+01  0.3623119853D+00
 SP   3 1.00       0.000000000000
      0.7868272350D+01 -0.1193324198D+00  0.6899906659D-01
      0.1881288540D+01 -0.1608541517D+00  0.3164239610D+00
      0.5442492580D+00  0.1143456438D+01  0.7443082909D+00
 SP   1 1.00       0.000000000000
      0.1687144782D+00  0.1000000000D+01  0.1000000000D+01
 D   1 1.00       0.000000000000
      0.8000000000D+00  0.1000000000D+01
 ****
      4 0
 S   3 1.00       0.000000000000
      0.1873113696D+02  0.3349460434D-01
      0.2825394365D+01  0.2347269535D+00
      0.6401216923D+00  0.8137573261D+00
 S   1 1.00       0.000000000000
      0.1612777588D+00  0.1000000000D+01
 ****
      5 0
 S   3 1.00       0.000000000000
      0.1873113696D+02  0.3349460434D-01
      0.2825394365D+01  0.2347269535D+00
      0.6401216923D+00  0.8137573261D+00
 S   1 1.00       0.000000000000
      0.1612777588D+00  0.1000000000D+01
 ****
      6 0
 S   6 1.00       0.000000000000
      0.3047524880D+04  0.1834737132D-02
      0.4573695180D+03  0.1403732281D-01
      0.1039486850D+03  0.6884262226D-01
      0.2921015530D+02  0.2321844432D+00
      0.9286662960D+01  0.4679413484D+00
      0.3163926960D+01  0.3623119853D+00
 SP   3 1.00       0.000000000000
      0.7868272350D+01 -0.1193324198D+00  0.6899906659D-01
      0.1881288540D+01 -0.1608541517D+00  0.3164239610D+00
      0.5442492580D+00  0.1143456438D+01  0.7443082909D+00
 SP   1 1.00       0.000000000000
      0.1687144782D+00  0.1000000000D+01  0.1000000000D+01
 D   1 1.00       0.000000000000
      0.8000000000D+00  0.1000000000D+01
 ****
      7 0
 S   6 1.00       0.000000000000
      0.3047524880D+04  0.1834737132D-02
      0.4573695180D+03  0.1403732281D-01
      0.1039486850D+03  0.6884262226D-01
      0.2921015530D+02  0.2321844432D+00
      0.9286662960D+01  0.4679413484D+00
      0.3163926960D+01  0.3623119853D+00
 SP   3 1.00       0.000000000000
      0.7868272350D+01 -0.1193324198D+00  0.6899906659D-01
      0.1881288540D+01 -0.1608541517D+00  0.3164239610D+00
      0.5442492580D+00  0.1143456438D+01  0.7443082909D+00
 SP   1 1.00       0.000000000000
      0.1687144782D+00  0.1000000000D+01  0.1000000000D+01
 D   1 1.00       0.000000000000
      0.8000000000D+00  0.1000000000D+01
 ****
      8 0
 S   6 1.00       0.000000000000
      0.3047524880D+04  0.1834737132D-02
      0.4573695180D+03  0.1403732281D-01
      0.1039486850D+03  0.6884262226D-01
      0.2921015530D+02  0.2321844432D+00
      0.9286662960D+01  0.4679413484D+00
      0.3163926960D+01  0.3623119853D+00
 SP   3 1.00       0.000000000000
      0.7868272350D+01 -0.1193324198D+00  0.6899906659D-01
      0.1881288540D+01 -0.1608541517D+00  0.3164239610D+00
      0.5442492580D+00  0.1143456438D+01  0.7443082909D+00
 SP   1 1.00       0.000000000000
      0.1687144782D+00  0.1000000000D+01  0.1000000000D+01
 D   1 1.00       0.000000000000
      0.8000000000D+00  0.1000000000D+01
 ****
      9 0
 S   3 1.00       0.000000000000
      0.1873113696D+02  0.3349460434D-01
      0.2825394365D+01  0.2347269535D+00
      0.6401216923D+00  0.8137573261D+00
 S   1 1.00       0.000000000000
      0.1612777588D+00  0.1000000000D+01
 ****
     10 0
 S   3 1.00       0.000000000000
      0.1873113696D+02  0.3349460434D-01
      0.2825394365D+01  0.2347269535D+00
      0.6401216923D+00  0.8137573261D+00
 S   1 1.00       0.000000000000
      0.1612777588D+00  0.1000000000D+01
 ****
     11 0
 S   6 1.00       0.000000000000
      0.3047524880D+04  0.1834737132D-02
      0.4573695180D+03  0.1403732281D-01
      0.1039486850D+03  0.6884262226D-01
      0.2921015530D+02  0.2321844432D+00
      0.9286662960D+01  0.4679413484D+00
      0.3163926960D+01  0.3623119853D+00
 SP   3 1.00       0.000000000000
      0.7868272350D+01 -0.1193324198D+00  0.6899906659D-01
      0.1881288540D+01 -0.1608541517D+00  0.3164239610D+00
      0.5442492580D+00  0.1143456438D+01  0.7443082909D+00
 SP   1 1.00       0.000000000000
      0.1687144782D+00  0.1000000000D+01  0.1000000000D+01
 D   1 1.00       0.000000000000
      0.8000000000D+00  0.1000000000D+01
 ****
     12 0
 S   3 1.00       0.000000000000
      0.1873113696D+02  0.3349460434D-01
      0.2825394365D+01  0.2347269535D+00
      0.6401216923D+00  0.8137573261D+00
 S   1 1.00       0.000000000000
      0.1612777588D+00  0.1000000000D+01
 ****
     13 0
 S   3 1.00       0.000000000000
      0.1873113696D+02  0.3349460434D-01
      0.2825394365D+01  0.2347269535D+00
      0.6401216923D+00  0.8137573261D+00
 S   1 1.00       0.000000000000
      0.1612777588D+00  0.1000000000D+01
 ****
     14 0
 S   6 1.00       0.000000000000
      0.3047524880D+04  0.1834737132D-02
      0.4573695180D+03  0.1403732281D-01
      0.1039486850D+03  0.6884262226D-01
      0.2921015530D+02  0.2321844432D+00
      0.9286662960D+01  0.4679413484D+00
      0.3163926960D+01  0.3623119853D+00
 SP   3 1.00       0.000000000000
      0.7868272350D+01 -0.1193324198D+00  0.6899906659D-01
      0.1881288540D+01 -0.1608541517D+00  0.3164239610D+00
      0.5442492580D+00  0.1143456438D+01  0.7443082909D+00
 SP   1 1.00       0.000000000000
      0.1687144782D+00  0.1000000000D+01  0.1000000000D+01
 D   1 1.00       0.000000000000
      0.8000000000D+00  0.1000000000D+01
 ****
     15 0
 S   3 1.00       0.000000000000
      0.1873113696D+02  0.3349460434D-01
      0.2825394365D+01  0.2347269535D+00
      0.6401216923D+00  0.8137573261D+00
 S   1 1.00       0.000000000000
      0.1612777588D+00  0.1000000000D+01
 ****
     16 0
 S   6 1.00       0.000000000000
      0.3047524880D+04  0.1834737132D-02
      0.4573695180D+03  0.1403732281D-01
      0.1039486850D+03  0.6884262226D-01
      0.2921015530D+02  0.2321844432D+00
      0.9286662960D+01  0.4679413484D+00
      0.3163926960D+01  0.3623119853D+00
 SP   3 1.00       0.000000000000
      0.7868272350D+01 -0.1193324198D+00  0.6899906659D-01
      0.1881288540D+01 -0.1608541517D+00  0.3164239610D+00
      0.5442492580D+00  0.1143456438D+01  0.7443082909D+00
 SP   1 1.00       0.000000000000
      0.1687144782D+00  0.1000000000D+01  0.1000000000D+01
 D   1 1.00       0.000000000000
      0.8000000000D+00  0.1000000000D+01
 ****
     17 0
 S   3 1.00       0.000000000000
      0.1873113696D+02  0.3349460434D-01
      0.2825394365D+01  0.2347269535D+00
      0.6401216923D+00  0.8137573261D+00
 S   1 1.00       0.000000000000
      0.1612777588D+00  0.1000000000D+01
 ****
     18 0
 S   6 1.00       0.000000000000
      0.3047524880D+04  0.1834737132D-02
      0.4573695180D+03  0.1403732281D-01
      0.1039486850D+03  0.6884262226D-01
      0.2921015530D+02  0.2321844432D+00
      0.9286662960D+01  0.4679413484D+00
      0.3163926960D+01  0.3623119853D+00
 SP   3 1.00       0.000000000000
      0.7868272350D+01 -0.1193324198D+00  0.6899906659D-01
      0.1881288540D+01 -0.1608541517D+00  0.3164239610D+00
      0.5442492580D+00  0.1143456438D+01  0.7443082909D+00
 SP   1 1.00       0.000000000000
      0.1687144782D+00  0.1000000000D+01  0.1000000000D+01
 D   1 1.00       0.000000000000
      0.8000000000D+00  0.1000000000D+01
 ****
     19 0
 S   3 1.00       0.000000000000
      0.1873113696D+02  0.3349460434D-01
      0.2825394365D+01  0.2347269535D+00
      0.6401216923D+00  0.8137573261D+00
 S   1 1.00       0.000000000000
      0.1612777588D+00  0.1000000000D+01
 ****
     20 0
 S   6 1.00       0.000000000000
      0.3047524880D+04  0.1834737132D-02
      0.4573695180D+03  0.1403732281D-01
      0.1039486850D+03  0.6884262226D-01
      0.2921015530D+02  0.2321844432D+00
      0.9286662960D+01  0.4679413484D+00
      0.3163926960D+01  0.3623119853D+00
 SP   3 1.00       0.000000000000
      0.7868272350D+01 -0.1193324198D+00  0.6899906659D-01
      0.1881288540D+01 -0.1608541517D+00  0.3164239610D+00
      0.5442492580D+00  0.1143456438D+01  0.7443082909D+00
 SP   1 1.00       0.000000000000
      0.1687144782D+00  0.1000000000D+01  0.1000000000D+01
 D   1 1.00       0.000000000000
      0.8000000000D+00  0.1000000000D+01
 ****
     21 0
 S   3 1.00       0.000000000000
      0.1873113696D+02  0.3349460434D-01
      0.2825394365D+01  0.2347269535D+00
      0.6401216923D+00  0.8137573261D+00
 S   1 1.00       0.000000000000
      0.1612777588D+00  0.1000000000D+01
 ****
     22 0
 S   6 1.00       0.000000000000
      0.3047524880D+04  0.1834737132D-02
      0.4573695180D+03  0.1403732281D-01
      0.1039486850D+03  0.6884262226D-01
      0.2921015530D+02  0.2321844432D+00
      0.9286662960D+01  0.4679413484D+00
      0.3163926960D+01  0.3623119853D+00
 SP   3 1.00       0.000000000000
      0.7868272350D+01 -0.1193324198D+00  0.6899906659D-01
      0.1881288540D+01 -0.1608541517D+00  0.3164239610D+00
      0.5442492580D+00  0.1143456438D+01  0.7443082909D+00
 SP   1 1.00       0.000000000000
      0.1687144782D+00  0.1000000000D+01  0.1000000000D+01
 D   1 1.00       0.000000000000
      0.8000000000D+00  0.1000000000D+01
 ****
     23 0
 S   3 1.00       0.000000000000
      0.1873113696D+02  0.3349460434D-01
      0.2825394365D+01  0.2347269535D+00
      0.6401216923D+00  0.8137573261D+00
 S   1 1.00       0.000000000000
      0.1612777588D+00  0.1000000000D+01
 ****
     24 0
 S   3 1.00       0.000000000000
      0.1873113696D+02  0.3349460434D-01
      0.2825394365D+01  0.2347269535D+00
      0.6401216923D+00  0.8137573261D+00
 S   1 1.00       0.000000000000
      0.1612777588D+00  0.1000000000D+01
 ****
     25 0
 S   6 1.00       0.000000000000
      0.3047524880D+04  0.1834737132D-02
      0.4573695180D+03  0.1403732281D-01
      0.1039486850D+03  0.6884262226D-01
      0.2921015530D+02  0.2321844432D+00
      0.9286662960D+01  0.4679413484D+00
      0.3163926960D+01  0.3623119853D+00
 SP   3 1.00       0.000000000000
      0.7868272350D+01 -0.1193324198D+00  0.6899906659D-01
      0.1881288540D+01 -0.1608541517D+00  0.3164239610D+00
      0.5442492580D+00  0.1143456438D+01  0.7443082909D+00
 SP   1 1.00       0.000000000000
      0.1687144782D+00  0.1000000000D+01  0.1000000000D+01
 D   1 1.00       0.000000000000
      0.8000000000D+00  0.1000000000D+01
 ****
     26 0
 S   3 1.00       0.000000000000
      0.1873113696D+02  0.3349460434D-01
      0.2825394365D+01  0.2347269535D+00
      0.6401216923D+00  0.8137573261D+00
 S   1 1.00       0.000000000000
      0.1612777588D+00  0.1000000000D+01
 ****
     27 0
 S   3 1.00       0.000000000000
      0.1873113696D+02  0.3349460434D-01
      0.2825394365D+01  0.2347269535D+00
      0.6401216923D+00  0.8137573261D+00
 S   1 1.00       0.000000000000
      0.1612777588D+00  0.1000000000D+01
 ****
     28 0
 S   6 1.00       0.000000000000
      0.3047524880D+04  0.1834737132D-02
      0.4573695180D+03  0.1403732281D-01
      0.1039486850D+03  0.6884262226D-01
      0.2921015530D+02  0.2321844432D+00
      0.9286662960D+01  0.4679413484D+00
      0.3163926960D+01  0.3623119853D+00
 SP   3 1.00       0.000000000000
      0.7868272350D+01 -0.1193324198D+00  0.6899906659D-01
      0.1881288540D+01 -0.1608541517D+00  0.3164239610D+00
      0.5442492580D+00  0.1143456438D+01  0.7443082909D+00
 SP   1 1.00       0.000000000000
      0.1687144782D+00  0.1000000000D+01  0.1000000000D+01
 D   1 1.00       0.000000000000
      0.8000000000D+00  0.1000000000D+01
 ****
     29 0
 S   6 1.00       0.000000000000
      0.3047524880D+04  0.1834737132D-02
      0.4573695180D+03  0.1403732281D-01
      0.1039486850D+03  0.6884262226D-01
      0.2921015530D+02  0.2321844432D+00
      0.9286662960D+01  0.4679413484D+00
      0.3163926960D+01  0.3623119853D+00
 SP   3 1.00       0.000000000000
      0.7868272350D+01 -0.1193324198D+00  0.6899906659D-01
      0.1881288540D+01 -0.1608541517D+00  0.3164239610D+00
      0.5442492580D+00  0.1143456438D+01  0.7443082909D+00
 SP   1 1.00       0.000000000000
      0.1687144782D+00  0.1000000000D+01  0.1000000000D+01
 D   1 1.00       0.000000000000
      0.8000000000D+00  0.1000000000D+01
 ****
     30 0
 S   3 1.00       0.000000000000
      0.1873113696D+02  0.3349460434D-01
      0.2825394365D+01  0.2347269535D+00
      0.6401216923D+00  0.8137573261D+00
 S   1 1.00       0.000000000000
      0.1612777588D+00  0.1000000000D+01
 ****
     31 0
 S   6 1.00       0.000000000000
      0.3047524880D+04  0.1834737132D-02
      0.4573695180D+03  0.1403732281D-01
      0.1039486850D+03  0.6884262226D-01
      0.2921015530D+02  0.2321844432D+00
      0.9286662960D+01  0.4679413484D+00
      0.3163926960D+01  0.3623119853D+00
 SP   3 1.00       0.000000000000
      0.7868272350D+01 -0.1193324198D+00  0.6899906659D-01
      0.1881288540D+01 -0.1608541517D+00  0.3164239610D+00
      0.5442492580D+00  0.1143456438D+01  0.7443082909D+00
 SP   1 1.00       0.000000000000
      0.1687144782D+00  0.1000000000D+01  0.1000000000D+01
 D   1 1.00       0.000000000000
      0.8000000000D+00  0.1000000000D+01
 ****
     32 0
 S   3 1.00       0.000000000000
      0.1873113696D+02  0.3349460434D-01
      0.2825394365D+01  0.2347269535D+00
      0.6401216923D+00  0.8137573261D+00
 S   1 1.00       0.000000000000
      0.1612777588D+00  0.1000000000D+01
 ****
     33 0
 S   3 1.00       0.000000000000
      0.1873113696D+02  0.3349460434D-01
      0.2825394365D+01  0.2347269535D+00
      0.6401216923D+00  0.8137573261D+00
 S   1 1.00       0.000000000000
      0.1612777588D+00  0.1000000000D+01
 ****
     34 0
 S   6 1.00       0.000000000000
      0.3047524880D+04  0.1834737132D-02
      0.4573695180D+03  0.1403732281D-01
      0.1039486850D+03  0.6884262226D-01
      0.2921015530D+02  0.2321844432D+00
      0.9286662960D+01  0.4679413484D+00
      0.3163926960D+01  0.3623119853D+00
 SP   3 1.00       0.000000000000
      0.7868272350D+01 -0.1193324198D+00  0.6899906659D-01
      0.1881288540D+01 -0.1608541517D+00  0.3164239610D+00
      0.5442492580D+00  0.1143456438D+01  0.7443082909D+00
 SP   1 1.00       0.000000000000
      0.1687144782D+00  0.1000000000D+01  0.1000000000D+01
 D   1 1.00       0.000000000000
      0.8000000000D+00  0.1000000000D+01
 ****
     35 0
 S   3 1.00       0.000000000000
      0.1873113696D+02  0.3349460434D-01
      0.2825394365D+01  0.2347269535D+00
      0.6401216923D+00  0.8137573261D+00
 S   1 1.00       0.000000000000
      0.1612777588D+00  0.1000000000D+01
 ****
     36 0
 S   3 1.00       0.000000000000
      0.1873113696D+02  0.3349460434D-01
      0.2825394365D+01  0.2347269535D+00
      0.6401216923D+00  0.8137573261D+00
 S   1 1.00       0.000000000000
      0.1612777588D+00  0.1000000000D+01
 ****
     37 0
 S   6 1.00       0.000000000000
      0.3047524880D+04  0.1834737132D-02
      0.4573695180D+03  0.1403732281D-01
      0.1039486850D+03  0.6884262226D-01
      0.2921015530D+02  0.2321844432D+00
      0.9286662960D+01  0.4679413484D+00
      0.3163926960D+01  0.3623119853D+00
 SP   3 1.00       0.000000000000
      0.7868272350D+01 -0.1193324198D+00  0.6899906659D-01
      0.1881288540D+01 -0.1608541517D+00  0.3164239610D+00
      0.5442492580D+00  0.1143456438D+01  0.7443082909D+00
 SP   1 1.00       0.000000000000
      0.1687144782D+00  0.1000000000D+01  0.1000000000D+01
 D   1 1.00       0.000000000000
      0.8000000000D+00  0.1000000000D+01
 ****
     38 0
 S   3 1.00       0.000000000000
      0.1873113696D+02  0.3349460434D-01
      0.2825394365D+01  0.2347269535D+00
      0.6401216923D+00  0.8137573261D+00
 S   1 1.00       0.000000000000
      0.1612777588D+00  0.1000000000D+01
 ****
     39 0
 S   6 1.00       0.000000000000
      0.3047524880D+04  0.1834737132D-02
      0.4573695180D+03  0.1403732281D-01
      0.1039486850D+03  0.6884262226D-01
      0.2921015530D+02  0.2321844432D+00
      0.9286662960D+01  0.4679413484D+00
      0.3163926960D+01  0.3623119853D+00
 SP   3 1.00       0.000000000000
      0.7868272350D+01 -0.1193324198D+00  0.6899906659D-01
      0.1881288540D+01 -0.1608541517D+00  0.3164239610D+00
      0.5442492580D+00  0.1143456438D+01  0.7443082909D+00
 SP   1 1.00       0.000000000000
      0.1687144782D+00  0.1000000000D+01  0.1000000000D+01
 D   1 1.00       0.000000000000
      0.8000000000D+00  0.1000000000D+01
 ****
     40 0
 S   3 1.00       0.000000000000
      0.1873113696D+02  0.3349460434D-01
      0.2825394365D+01  0.2347269535D+00
      0.6401216923D+00  0.8137573261D+00
 S   1 1.00       0.000000000000
      0.1612777588D+00  0.1000000000D+01
 ****
     41 0
 S   3 1.00       0.000000000000
      0.1873113696D+02  0.3349460434D-01
      0.2825394365D+01  0.2347269535D+00
      0.6401216923D+00  0.8137573261D+00
 S   1 1.00       0.000000000000
      0.1612777588D+00  0.1000000000D+01
 ****
     42 0
 S   3 1.00       0.000000000000
      0.1873113696D+02  0.3349460434D-01
      0.2825394365D+01  0.2347269535D+00
      0.6401216923D+00  0.8137573261D+00
 S   1 1.00       0.000000000000
      0.1612777588D+00  0.1000000000D+01
 ****
     43 0
 S   6 1.00       0.000000000000
      0.3047524880D+04  0.1834737132D-02
      0.4573695180D+03  0.1403732281D-01
      0.1039486850D+03  0.6884262226D-01
      0.2921015530D+02  0.2321844432D+00
      0.9286662960D+01  0.4679413484D+00
      0.3163926960D+01  0.3623119853D+00
 SP   3 1.00       0.000000000000
      0.7868272350D+01 -0.1193324198D+00  0.6899906659D-01
      0.1881288540D+01 -0.1608541517D+00  0.3164239610D+00
      0.5442492580D+00  0.1143456438D+01  0.7443082909D+00
 SP   1 1.00       0.000000000000
      0.1687144782D+00  0.1000000000D+01  0.1000000000D+01
 D   1 1.00       0.000000000000
      0.8000000000D+00  0.1000000000D+01
 ****
     44 0
 S   3 1.00       0.000000000000
      0.1873113696D+02  0.3349460434D-01
      0.2825394365D+01  0.2347269535D+00
      0.6401216923D+00  0.8137573261D+00
 S   1 1.00       0.000000000000
      0.1612777588D+00  0.1000000000D+01
 ****
     45 0
 S   6 1.00       0.000000000000
      0.3047524880D+04  0.1834737132D-02
      0.4573695180D+03  0.1403732281D-01
      0.1039486850D+03  0.6884262226D-01
      0.2921015530D+02  0.2321844432D+00
      0.9286662960D+01  0.4679413484D+00
      0.3163926960D+01  0.3623119853D+00
 SP   3 1.00       0.000000000000
      0.7868272350D+01 -0.1193324198D+00  0.6899906659D-01
      0.1881288540D+01 -0.1608541517D+00  0.3164239610D+00
      0.5442492580D+00  0.1143456438D+01  0.7443082909D+00
 SP   1 1.00       0.000000000000
      0.1687144782D+00  0.1000000000D+01  0.1000000000D+01
 D   1 1.00       0.000000000000
      0.8000000000D+00  0.1000000000D+01
 ****
     46 0
 S   3 1.00       0.000000000000
      0.1873113696D+02  0.3349460434D-01
      0.2825394365D+01  0.2347269535D+00
      0.6401216923D+00  0.8137573261D+00
 S   1 1.00       0.000000000000
      0.1612777588D+00  0.1000000000D+01
 ****
     47 0
 S   3 1.00       0.000000000000
      0.1873113696D+02  0.3349460434D-01
      0.2825394365D+01  0.2347269535D+00
      0.6401216923D+00  0.8137573261D+00
 S   1 1.00       0.000000000000
      0.1612777588D+00  0.1000000000D+01
 ****
     48 0
 S   3 1.00       0.000000000000
      0.1873113696D+02  0.3349460434D-01
      0.2825394365D+01  0.2347269535D+00
      0.6401216923D+00  0.8137573261D+00
 S   1 1.00       0.000000000000
      0.1612777588D+00  0.1000000000D+01
 ****
     49 0
 S   6 1.00       0.000000000000
      0.3047524880D+04  0.1834737132D-02
      0.4573695180D+03  0.1403732281D-01
      0.1039486850D+03  0.6884262226D-01
      0.2921015530D+02  0.2321844432D+00
      0.9286662960D+01  0.4679413484D+00
      0.3163926960D+01  0.3623119853D+00
 SP   3 1.00       0.000000000000
      0.7868272350D+01 -0.1193324198D+00  0.6899906659D-01
      0.1881288540D+01 -0.1608541517D+00  0.3164239610D+00
      0.5442492580D+00  0.1143456438D+01  0.7443082909D+00
 SP   1 1.00       0.000000000000
      0.1687144782D+00  0.1000000000D+01  0.1000000000D+01
 D   1 1.00       0.000000000000
      0.8000000000D+00  0.1000000000D+01
 ****
     50 0
 S   3 1.00       0.000000000000
      0.1873113696D+02  0.3349460434D-01
      0.2825394365D+01  0.2347269535D+00
      0.6401216923D+00  0.8137573261D+00
 S   1 1.00       0.000000000000
      0.1612777588D+00  0.1000000000D+01
 ****
     51 0
 S   3 1.00       0.000000000000
      0.1873113696D+02  0.3349460434D-01
      0.2825394365D+01  0.2347269535D+00
      0.6401216923D+00  0.8137573261D+00
 S   1 1.00       0.000000000000
      0.1612777588D+00  0.1000000000D+01
 ****
     52 0
 S   3 1.00       0.000000000000
      0.1873113696D+02  0.3349460434D-01
      0.2825394365D+01  0.2347269535D+00
      0.6401216923D+00  0.8137573261D+00
 S   1 1.00       0.000000000000
      0.1612777588D+00  0.1000000000D+01
 ****
     53 0
 S   6 1.00       0.000000000000
      0.5484671660D+04  0.1831074430D-02
      0.8252349460D+03  0.1395017220D-01
      0.1880469580D+03  0.6844507810D-01
      0.5296450000D+02  0.2327143360D+00
      0.1689757040D+02  0.4701928980D+00
      0.5799635340D+01  0.3585208530D+00
 SP   3 1.00       0.000000000000
      0.1553961625D+02 -0.1107775495D+00  0.7087426823D-01
      0.3599933586D+01 -0.1480262627D+00  0.3397528391D+00
      0.1013761750D+01  0.1130767015D+01  0.7271585773D+00
 SP   1 1.00       0.000000000000
      0.2700058226D+00  0.1000000000D+01  0.1000000000D+01
 D   1 1.00       0.000000000000
      0.8000000000D+00  0.1000000000D+01
 ****
     54 0
 S   6 1.00       0.000000000000
      0.5484671660D+04  0.1831074430D-02
      0.8252349460D+03  0.1395017220D-01
      0.1880469580D+03  0.6844507810D-01
      0.5296450000D+02  0.2327143360D+00
      0.1689757040D+02  0.4701928980D+00
      0.5799635340D+01  0.3585208530D+00
 SP   3 1.00       0.000000000000
      0.1553961625D+02 -0.1107775495D+00  0.7087426823D-01
      0.3599933586D+01 -0.1480262627D+00  0.3397528391D+00
      0.1013761750D+01  0.1130767015D+01  0.7271585773D+00
 SP   1 1.00       0.000000000000
      0.2700058226D+00  0.1000000000D+01  0.1000000000D+01
 D   1 1.00       0.000000000000
      0.8000000000D+00  0.1000000000D+01
 ****
     55 0
 S   3 1.00       0.000000000000
      0.1873113696D+02  0.3349460434D-01
      0.2825394365D+01  0.2347269535D+00
      0.6401216923D+00  0.8137573261D+00
 S   1 1.00       0.000000000000
      0.1612777588D+00  0.1000000000D+01
 ****
     56 0
 S   6 1.00       0.000000000000
      0.5484671660D+04  0.1831074430D-02
      0.8252349460D+03  0.1395017220D-01
      0.1880469580D+03  0.6844507810D-01
      0.5296450000D+02  0.2327143360D+00
      0.1689757040D+02  0.4701928980D+00
      0.5799635340D+01  0.3585208530D+00
 SP   3 1.00       0.000000000000
      0.1553961625D+02 -0.1107775495D+00  0.7087426823D-01
      0.3599933586D+01 -0.1480262627D+00  0.3397528391D+00
      0.1013761750D+01  0.1130767015D+01  0.7271585773D+00
 SP   1 1.00       0.000000000000
      0.2700058226D+00  0.1000000000D+01  0.1000000000D+01
 D   1 1.00       0.000000000000
      0.8000000000D+00  0.1000000000D+01
 ****
     57 0
 S   3 1.00       0.000000000000
      0.1873113696D+02  0.3349460434D-01
      0.2825394365D+01  0.2347269535D+00
      0.6401216923D+00  0.8137573261D+00
 S   1 1.00       0.000000000000
      0.1612777588D+00  0.1000000000D+01
 ****
     58 0
 S   6 1.00       0.000000000000
      0.3047524880D+04  0.1834737132D-02
      0.4573695180D+03  0.1403732281D-01
      0.1039486850D+03  0.6884262226D-01
      0.2921015530D+02  0.2321844432D+00
      0.9286662960D+01  0.4679413484D+00
      0.3163926960D+01  0.3623119853D+00
 SP   3 1.00       0.000000000000
      0.7868272350D+01 -0.1193324198D+00  0.6899906659D-01
      0.1881288540D+01 -0.1608541517D+00  0.3164239610D+00
      0.5442492580D+00  0.1143456438D+01  0.7443082909D+00
 SP   1 1.00       0.000000000000
      0.1687144782D+00  0.1000000000D+01  0.1000000000D+01
 D   1 1.00       0.000000000000
      0.8000000000D+00  0.1000000000D+01
 ****
     59 0
 S   3 1.00       0.000000000000
      0.1873113696D+02  0.3349460434D-01
      0.2825394365D+01  0.2347269535D+00
      0.6401216923D+00  0.8137573261D+00
 S   1 1.00       0.000000000000
      0.1612777588D+00  0.1000000000D+01
 ****
     60 0
 S   3 1.00       0.000000000000
      0.1873113696D+02  0.3349460434D-01
      0.2825394365D+01  0.2347269535D+00
      0.6401216923D+00  0.8137573261D+00
 S   1 1.00       0.000000000000
      0.1612777588D+00  0.1000000000D+01
 ****
     61 0
 S   6 1.00       0.000000000000
      0.3047524880D+04  0.1834737132D-02
      0.4573695180D+03  0.1403732281D-01
      0.1039486850D+03  0.6884262226D-01
      0.2921015530D+02  0.2321844432D+00
      0.9286662960D+01  0.4679413484D+00
      0.3163926960D+01  0.3623119853D+00
 SP   3 1.00       0.000000000000
      0.7868272350D+01 -0.1193324198D+00  0.6899906659D-01
      0.1881288540D+01 -0.1608541517D+00  0.3164239610D+00
      0.5442492580D+00  0.1143456438D+01  0.7443082909D+00
 SP   1 1.00       0.000000000000
      0.1687144782D+00  0.1000000000D+01  0.1000000000D+01
 D   1 1.00       0.000000000000
      0.8000000000D+00  0.1000000000D+01
 ****
     62 0
 S   3 1.00       0.000000000000
      0.1873113696D+02  0.3349460434D-01
      0.2825394365D+01  0.2347269535D+00
      0.6401216923D+00  0.8137573261D+00
 S   1 1.00       0.000000000000
      0.1612777588D+00  0.1000000000D+01
 ****
     63 0
 S   3 1.00       0.000000000000
      0.1873113696D+02  0.3349460434D-01
      0.2825394365D+01  0.2347269535D+00
      0.6401216923D+00  0.8137573261D+00
 S   1 1.00       0.000000000000
      0.1612777588D+00  0.1000000000D+01
 ****
     64 0
 S   6 1.00       0.000000000000
      0.3047524880D+04  0.1834737132D-02
      0.4573695180D+03  0.1403732281D-01
      0.1039486850D+03  0.6884262226D-01
      0.2921015530D+02  0.2321844432D+00
      0.9286662960D+01  0.4679413484D+00
      0.3163926960D+01  0.3623119853D+00
 SP   3 1.00       0.000000000000
      0.7868272350D+01 -0.1193324198D+00  0.6899906659D-01
      0.1881288540D+01 -0.1608541517D+00  0.3164239610D+00
      0.5442492580D+00  0.1143456438D+01  0.7443082909D+00
 SP   1 1.00       0.000000000000
      0.1687144782D+00  0.1000000000D+01  0.1000000000D+01
 D   1 1.00       0.000000000000
      0.8000000000D+00  0.1000000000D+01
 ****
     65 0
 S   3 1.00       0.000000000000
      0.1873113696D+02  0.3349460434D-01
      0.2825394365D+01  0.2347269535D+00
      0.6401216923D+00  0.8137573261D+00
 S   1 1.00       0.000000000000
      0.1612777588D+00  0.1000000000D+01
 ****
     66 0
 S   3 1.00       0.000000000000
      0.1873113696D+02  0.3349460434D-01
      0.2825394365D+01  0.2347269535D+00
      0.6401216923D+00  0.8137573261D+00
 S   1 1.00       0.000000000000
      0.1612777588D+00  0.1000000000D+01
 ****
     67 0
 S   6 1.00       0.000000000000
      0.3047524880D+04  0.1834737132D-02
      0.4573695180D+03  0.1403732281D-01
      0.1039486850D+03  0.6884262226D-01
      0.2921015530D+02  0.2321844432D+00
      0.9286662960D+01  0.4679413484D+00
      0.3163926960D+01  0.3623119853D+00
 SP   3 1.00       0.000000000000
      0.7868272350D+01 -0.1193324198D+00  0.6899906659D-01
      0.1881288540D+01 -0.1608541517D+00  0.3164239610D+00
      0.5442492580D+00  0.1143456438D+01  0.7443082909D+00
 SP   1 1.00       0.000000000000
      0.1687144782D+00  0.1000000000D+01  0.1000000000D+01
 D   1 1.00       0.000000000000
      0.8000000000D+00  0.1000000000D+01
 ****
     68 0
 S   3 1.00       0.000000000000
      0.1873113696D+02  0.3349460434D-01
      0.2825394365D+01  0.2347269535D+00
      0.6401216923D+00  0.8137573261D+00
 S   1 1.00       0.000000000000
      0.1612777588D+00  0.1000000000D+01
 ****
     69 0
 S   6 1.00       0.000000000000
      0.3047524880D+04  0.1834737132D-02
      0.4573695180D+03  0.1403732281D-01
      0.1039486850D+03  0.6884262226D-01
      0.2921015530D+02  0.2321844432D+00
      0.9286662960D+01  0.4679413484D+00
      0.3163926960D+01  0.3623119853D+00
 SP   3 1.00       0.000000000000
      0.7868272350D+01 -0.1193324198D+00  0.6899906659D-01
      0.1881288540D+01 -0.1608541517D+00  0.3164239610D+00
      0.5442492580D+00  0.1143456438D+01  0.7443082909D+00
 SP   1 1.00       0.000000000000
      0.1687144782D+00  0.1000000000D+01  0.1000000000D+01
 D   1 1.00       0.000000000000
      0.8000000000D+00  0.1000000000D+01
 ****
     70 0
 S   3 1.00       0.000000000000
      0.1873113696D+02  0.3349460434D-01
      0.2825394365D+01  0.2347269535D+00
      0.6401216923D+00  0.8137573261D+00
 S   1 1.00       0.000000000000
      0.1612777588D+00  0.1000000000D+01
 ****
     71 0
 S   3 1.00       0.000000000000
      0.1873113696D+02  0.3349460434D-01
      0.2825394365D+01  0.2347269535D+00
      0.6401216923D+00  0.8137573261D+00
 S   1 1.00       0.000000000000
      0.1612777588D+00  0.1000000000D+01
 ****
     72 0
 S   3 1.00       0.000000000000
      0.1873113696D+02  0.3349460434D-01
      0.2825394365D+01  0.2347269535D+00
      0.6401216923D+00  0.8137573261D+00
 S   1 1.00       0.000000000000
      0.1612777588D+00  0.1000000000D+01
 ****
     73 0
 S   6 1.00       0.000000000000
      0.3047524880D+04  0.1834737132D-02
      0.4573695180D+03  0.1403732281D-01
      0.1039486850D+03  0.6884262226D-01
      0.2921015530D+02  0.2321844432D+00
      0.9286662960D+01  0.4679413484D+00
      0.3163926960D+01  0.3623119853D+00
 SP   3 1.00       0.000000000000
      0.7868272350D+01 -0.1193324198D+00  0.6899906659D-01
      0.1881288540D+01 -0.1608541517D+00  0.3164239610D+00
      0.5442492580D+00  0.1143456438D+01  0.7443082909D+00
 SP   1 1.00       0.000000000000
      0.1687144782D+00  0.1000000000D+01  0.1000000000D+01
 D   1 1.00       0.000000000000
      0.8000000000D+00  0.1000000000D+01
 ****
     74 0
 S   3 1.00       0.000000000000
      0.1873113696D+02  0.3349460434D-01
      0.2825394365D+01  0.2347269535D+00
      0.6401216923D+00  0.8137573261D+00
 S   1 1.00       0.000000000000
      0.1612777588D+00  0.1000000000D+01
 ****
     75 0
 S   3 1.00       0.000000000000
      0.1873113696D+02  0.3349460434D-01
      0.2825394365D+01  0.2347269535D+00
      0.6401216923D+00  0.8137573261D+00
 S   1 1.00       0.000000000000
      0.1612777588D+00  0.1000000000D+01
 ****
     76 0
 S   3 1.00       0.000000000000
      0.1873113696D+02  0.3349460434D-01
      0.2825394365D+01  0.2347269535D+00
      0.6401216923D+00  0.8137573261D+00
 S   1 1.00       0.000000000000
      0.1612777588D+00  0.1000000000D+01
 ****

 AO basis set (Overlap normalization):
 Atom C1       Shell     1 S   6     bf    1 -     1         -1.842600274865          3.742430111979          3.210152690677
      0.3047524880D+04  0.1834737132D-02
      0.4573695180D+03  0.1403732281D-01
      0.1039486850D+03  0.6884262226D-01
      0.2921015530D+02  0.2321844432D+00
      0.9286662960D+01  0.4679413484D+00
      0.3163926960D+01  0.3623119853D+00
 Atom C1       Shell     2 SP   3    bf    2 -     5         -1.842600274865          3.742430111979          3.210152690677
      0.7868272350D+01 -0.1193324198D+00  0.6899906659D-01
      0.1881288540D+01 -0.1608541517D+00  0.3164239610D+00
      0.5442492580D+00  0.1143456438D+01  0.7443082909D+00
 Atom C1       Shell     3 SP   1    bf    6 -     9         -1.842600274865          3.742430111979          3.210152690677
      0.1687144782D+00  0.1000000000D+01  0.1000000000D+01
 Atom C1       Shell     4 D   1     bf   10 -    15         -1.842600274865          3.742430111979          3.210152690677
      0.8000000000D+00  0.1000000000D+01
 Atom H2       Shell     5 S   3     bf   16 -    16         -1.862764087339          1.883652855451          4.125652228706
      0.1873113696D+02  0.3349460434D-01
      0.2825394365D+01  0.2347269535D+00
      0.6401216923D+00  0.8137573261D+00
 Atom H2       Shell     6 S   1     bf   17 -    17         -1.862764087339          1.883652855451          4.125652228706
      0.1612777588D+00  0.1000000000D+01
 Atom C3       Shell     7 S   6     bf   18 -    18          0.700909003599          5.031695388195          3.751547492549
      0.3047524880D+04  0.1834737132D-02
      0.4573695180D+03  0.1403732281D-01
      0.1039486850D+03  0.6884262226D-01
      0.2921015530D+02  0.2321844432D+00
      0.9286662960D+01  0.4679413484D+00
      0.3163926960D+01  0.3623119853D+00
 Atom C3       Shell     8 SP   3    bf   19 -    22          0.700909003599          5.031695388195          3.751547492549
      0.7868272350D+01 -0.1193324198D+00  0.6899906659D-01
      0.1881288540D+01 -0.1608541517D+00  0.3164239610D+00
      0.5442492580D+00  0.1143456438D+01  0.7443082909D+00
 Atom C3       Shell     9 SP   1    bf   23 -    26          0.700909003599          5.031695388195          3.751547492549
      0.1687144782D+00  0.1000000000D+01  0.1000000000D+01
 Atom C3       Shell    10 D   1     bf   27 -    32          0.700909003599          5.031695388195          3.751547492549
      0.8000000000D+00  0.1000000000D+01
 Atom H4       Shell    11 S   3     bf   33 -    33          0.990147102888          5.173018235789          5.794363192946
      0.1873113696D+02  0.3349460434D-01
      0.2825394365D+01  0.2347269535D+00
      0.6401216923D+00  0.8137573261D+00
 Atom H4       Shell    12 S   1     bf   34 -    34          0.990147102888          5.173018235789          5.794363192946
      0.1612777588D+00  0.1000000000D+01
 Atom H5       Shell    13 S   3     bf   35 -    35          0.583781793670          6.981519838778          3.029515602669
      0.1873113696D+02  0.3349460434D-01
      0.2825394365D+01  0.2347269535D+00
      0.6401216923D+00  0.8137573261D+00
 Atom H5       Shell    14 S   1     bf   36 -    36          0.583781793670          6.981519838778          3.029515602669
      0.1612777588D+00  0.1000000000D+01
 Atom C6       Shell    15 S   6     bf   37 -    37          2.914552034676          3.677420736213          2.530053483534
      0.3047524880D+04  0.1834737132D-02
      0.4573695180D+03  0.1403732281D-01
      0.1039486850D+03  0.6884262226D-01
      0.2921015530D+02  0.2321844432D+00
      0.9286662960D+01  0.4679413484D+00
      0.3163926960D+01  0.3623119853D+00
 Atom C6       Shell    16 SP   3    bf   38 -    41          2.914552034676          3.677420736213          2.530053483534
      0.7868272350D+01 -0.1193324198D+00  0.6899906659D-01
      0.1881288540D+01 -0.1608541517D+00  0.3164239610D+00
      0.5442492580D+00  0.1143456438D+01  0.7443082909D+00
 Atom C6       Shell    17 SP   1    bf   42 -    45          2.914552034676          3.677420736213          2.530053483534
      0.1687144782D+00  0.1000000000D+01  0.1000000000D+01
 Atom C6       Shell    18 D   1     bf   46 -    51          2.914552034676          3.677420736213          2.530053483534
      0.8000000000D+00  0.1000000000D+01
 Atom C7       Shell    19 S   6     bf   52 -    52          2.689380942524          3.079578662018         -0.297637591800
      0.3047524880D+04  0.1834737132D-02
      0.4573695180D+03  0.1403732281D-01
      0.1039486850D+03  0.6884262226D-01
      0.2921015530D+02  0.2321844432D+00
      0.9286662960D+01  0.4679413484D+00
      0.3163926960D+01  0.3623119853D+00
 Atom C7       Shell    20 SP   3    bf   53 -    56          2.689380942524          3.079578662018         -0.297637591800
      0.7868272350D+01 -0.1193324198D+00  0.6899906659D-01
      0.1881288540D+01 -0.1608541517D+00  0.3164239610D+00
      0.5442492580D+00  0.1143456438D+01  0.7443082909D+00
 Atom C7       Shell    21 SP   1    bf   57 -    60          2.689380942524          3.079578662018         -0.297637591800
      0.1687144782D+00  0.1000000000D+01  0.1000000000D+01
 Atom C7       Shell    22 D   1     bf   61 -    66          2.689380942524          3.079578662018         -0.297637591800
      0.8000000000D+00  0.1000000000D+01
 Atom C8       Shell    23 S   6     bf   67 -    67          0.022254510982          1.920385862248         -0.786730972616
      0.3047524880D+04  0.1834737132D-02
      0.4573695180D+03  0.1403732281D-01
      0.1039486850D+03  0.6884262226D-01
      0.2921015530D+02  0.2321844432D+00
      0.9286662960D+01  0.4679413484D+00
      0.3163926960D+01  0.3623119853D+00
 Atom C8       Shell    24 SP   3    bf   68 -    71          0.022254510982          1.920385862248         -0.786730972616
      0.7868272350D+01 -0.1193324198D+00  0.6899906659D-01
      0.1881288540D+01 -0.1608541517D+00  0.3164239610D+00
      0.5442492580D+00  0.1143456438D+01  0.7443082909D+00
 Atom C8       Shell    25 SP   1    bf   72 -    75          0.022254510982          1.920385862248         -0.786730972616
      0.1687144782D+00  0.1000000000D+01  0.1000000000D+01
 Atom C8       Shell    26 D   1     bf   76 -    81          0.022254510982          1.920385862248         -0.786730972616
      0.8000000000D+00  0.1000000000D+01
 Atom H9       Shell    27 S   3     bf   82 -    82          0.000000000000          0.000000000000          0.000000000000
      0.1873113696D+02  0.3349460434D-01
      0.2825394365D+01  0.2347269535D+00
      0.6401216923D+00  0.8137573261D+00
 Atom H9       Shell    28 S   1     bf   83 -    83          0.000000000000          0.000000000000          0.000000000000
      0.1612777588D+00  0.1000000000D+01
 Atom H10      Shell    29 S   3     bf   84 -    84         -0.274438916950          1.725344563559         -2.826040134995
      0.1873113696D+02  0.3349460434D-01
      0.2825394365D+01  0.2347269535D+00
      0.6401216923D+00  0.8137573261D+00
 Atom H10      Shell    30 S   1     bf   85 -    85         -0.274438916950          1.725344563559         -2.826040134995
      0.1612777588D+00  0.1000000000D+01
 Atom C11      Shell    31 S   6     bf   86 -    86         -2.192988192164          3.401831391788          0.364042511417
      0.3047524880D+04  0.1834737132D-02
      0.4573695180D+03  0.1403732281D-01
      0.1039486850D+03  0.6884262226D-01
      0.2921015530D+02  0.2321844432D+00
      0.9286662960D+01  0.4679413484D+00
      0.3163926960D+01  0.3623119853D+00
 Atom C11      Shell    32 SP   3    bf   87 -    90         -2.192988192164          3.401831391788          0.364042511417
      0.7868272350D+01 -0.1193324198D+00  0.6899906659D-01
      0.1881288540D+01 -0.1608541517D+00  0.3164239610D+00
      0.5442492580D+00  0.1143456438D+01  0.7443082909D+00
 Atom C11      Shell    33 SP   1    bf   91 -    94         -2.192988192164          3.401831391788          0.364042511417
      0.1687144782D+00  0.1000000000D+01  0.1000000000D+01
 Atom C11      Shell    34 D   1     bf   95 -   100         -2.192988192164          3.401831391788          0.364042511417
      0.8000000000D+00  0.1000000000D+01
 Atom H12      Shell    35 S   3     bf  101 -   101         -2.361879592907          5.272552511160         -0.527620569193
      0.1873113696D+02  0.3349460434D-01
      0.2825394365D+01  0.2347269535D+00
      0.6401216923D+00  0.8137573261D+00
 Atom H12      Shell    36 S   1     bf  102 -   102         -2.361879592907          5.272552511160         -0.527620569193
      0.1612777588D+00  0.1000000000D+01
 Atom H13      Shell    37 S   3     bf  103 -   103         -3.973734726034          2.408988878029          0.000000000000
      0.1873113696D+02  0.3349460434D-01
      0.2825394365D+01  0.2347269535D+00
      0.6401216923D+00  0.8137573261D+00
 Atom H13      Shell    38 S   1     bf  104 -   104         -3.973734726034          2.408988878029          0.000000000000
      0.1612777588D+00  0.1000000000D+01
 Atom C14      Shell    39 S   6     bf  105 -   105          4.943541440438          3.079963277978          3.924800324515
      0.3047524880D+04  0.1834737132D-02
      0.4573695180D+03  0.1403732281D-01
      0.1039486850D+03  0.6884262226D-01
      0.2921015530D+02  0.2321844432D+00
      0.9286662960D+01  0.4679413484D+00
      0.3163926960D+01  0.3623119853D+00
 Atom C14      Shell    40 SP   3    bf  106 -   109          4.943541440438          3.079963277978          3.924800324515
      0.7868272350D+01 -0.1193324198D+00  0.6899906659D-01
      0.1881288540D+01 -0.1608541517D+00  0.3164239610D+00
      0.5442492580D+00  0.1143456438D+01  0.7443082909D+00
 Atom C14      Shell    41 SP   1    bf  110 -   113          4.943541440438          3.079963277978          3.924800324515
      0.1687144782D+00  0.1000000000D+01  0.1000000000D+01
 Atom C14      Shell    42 D   1     bf  114 -   119          4.943541440438          3.079963277978          3.924800324515
      0.8000000000D+00  0.1000000000D+01
 Atom H15      Shell    43 S   3     bf  120 -   120          4.950094670516          3.504031919554          5.938385797781
      0.1873113696D+02  0.3349460434D-01
      0.2825394365D+01  0.2347269535D+00
      0.6401216923D+00  0.8137573261D+00
 Atom H15      Shell    44 S   1     bf  121 -   121          4.950094670516          3.504031919554          5.938385797781
      0.1612777588D+00  0.1000000000D+01
 Atom C16      Shell    45 S   6     bf  122 -   122          7.283159152431          1.827150554304          2.940254218706
      0.3047524880D+04  0.1834737132D-02
      0.4573695180D+03  0.1403732281D-01
      0.1039486850D+03  0.6884262226D-01
      0.2921015530D+02  0.2321844432D+00
      0.9286662960D+01  0.4679413484D+00
      0.3163926960D+01  0.3623119853D+00
 Atom C16      Shell    46 SP   3    bf  123 -   126          7.283159152431          1.827150554304          2.940254218706
      0.7868272350D+01 -0.1193324198D+00  0.6899906659D-01
      0.1881288540D+01 -0.1608541517D+00  0.3164239610D+00
      0.5442492580D+00  0.1143456438D+01  0.7443082909D+00
 Atom C16      Shell    47 SP   1    bf  127 -   130          7.283159152431          1.827150554304          2.940254218706
      0.1687144782D+00  0.1000000000D+01  0.1000000000D+01
 Atom C16      Shell    48 D   1     bf  131 -   136          7.283159152431          1.827150554304          2.940254218706
      0.8000000000D+00  0.1000000000D+01
 Atom H17      Shell    49 S   3     bf  137 -   137          8.947873081338          2.885503107869          3.595095932172
      0.1873113696D+02  0.3349460434D-01
      0.2825394365D+01  0.2347269535D+00
      0.6401216923D+00  0.8137573261D+00
 Atom H17      Shell    50 S   1     bf  138 -   138          8.947873081338          2.885503107869          3.595095932172
      0.1612777588D+00  0.1000000000D+01
 Atom C18      Shell    51 S   6     bf  139 -   139          7.372925716880          1.672463846956          0.031121635121
      0.3047524880D+04  0.1834737132D-02
      0.4573695180D+03  0.1403732281D-01
      0.1039486850D+03  0.6884262226D-01
      0.2921015530D+02  0.2321844432D+00
      0.9286662960D+01  0.4679413484D+00
      0.3163926960D+01  0.3623119853D+00
 Atom C18      Shell    52 SP   3    bf  140 -   143          7.372925716880          1.672463846956          0.031121635121
      0.7868272350D+01 -0.1193324198D+00  0.6899906659D-01
      0.1881288540D+01 -0.1608541517D+00  0.3164239610D+00
      0.5442492580D+00  0.1143456438D+01  0.7443082909D+00
 Atom C18      Shell    53 SP   1    bf  144 -   147          7.372925716880          1.672463846956          0.031121635121
      0.1687144782D+00  0.1000000000D+01  0.1000000000D+01
 Atom C18      Shell    54 D   1     bf  148 -   153          7.372925716880          1.672463846956          0.031121635121
      0.8000000000D+00  0.1000000000D+01
 Atom H19      Shell    55 S   3     bf  154 -   154          7.954360168337          3.571367359217         -0.584154768917
      0.1873113696D+02  0.3349460434D-01
      0.2825394365D+01  0.2347269535D+00
      0.6401216923D+00  0.8137573261D+00
 Atom H19      Shell    56 S   1     bf  155 -   155          7.954360168337          3.571367359217         -0.584154768917
      0.1612777588D+00  0.1000000000D+01
 Atom C20      Shell    57 S   6     bf  156 -   156          4.731522369740          1.085766186966         -1.098361665176
      0.3047524880D+04  0.1834737132D-02
      0.4573695180D+03  0.1403732281D-01
      0.1039486850D+03  0.6884262226D-01
      0.2921015530D+02  0.2321844432D+00
      0.9286662960D+01  0.4679413484D+00
      0.3163926960D+01  0.3623119853D+00
 Atom C20      Shell    58 SP   3    bf  157 -   160          4.731522369740          1.085766186966         -1.098361665176
      0.7868272350D+01 -0.1193324198D+00  0.6899906659D-01
      0.1881288540D+01 -0.1608541517D+00  0.3164239610D+00
      0.5442492580D+00  0.1143456438D+01  0.7443082909D+00
 Atom C20      Shell    59 SP   1    bf  161 -   164          4.731522369740          1.085766186966         -1.098361665176
      0.1687144782D+00  0.1000000000D+01  0.1000000000D+01
 Atom C20      Shell    60 D   1     bf  165 -   170          4.731522369740          1.085766186966         -1.098361665176
      0.8000000000D+00  0.1000000000D+01
 Atom H21      Shell    61 S   3     bf  171 -   171          4.138770253987         -0.704918284357         -0.237334182125
      0.1873113696D+02  0.3349460434D-01
      0.2825394365D+01  0.2347269535D+00
      0.6401216923D+00  0.8137573261D+00
 Atom H21      Shell    62 S   1     bf  172 -   172          4.138770253987         -0.704918284357         -0.237334182125
      0.1612777588D+00  0.1000000000D+01
 Atom C22      Shell    63 S   6     bf  173 -   173          4.863473536318          0.651466473620         -3.984866686943
      0.3047524880D+04  0.1834737132D-02
      0.4573695180D+03  0.1403732281D-01
      0.1039486850D+03  0.6884262226D-01
      0.2921015530D+02  0.2321844432D+00
      0.9286662960D+01  0.4679413484D+00
      0.3163926960D+01  0.3623119853D+00
 Atom C22      Shell    64 SP   3    bf  174 -   177          4.863473536318          0.651466473620         -3.984866686943
      0.7868272350D+01 -0.1193324198D+00  0.6899906659D-01
      0.1881288540D+01 -0.1608541517D+00  0.3164239610D+00
      0.5442492580D+00  0.1143456438D+01  0.7443082909D+00
 Atom C22      Shell    65 SP   1    bf  178 -   181          4.863473536318          0.651466473620         -3.984866686943
      0.1687144782D+00  0.1000000000D+01  0.1000000000D+01
 Atom C22      Shell    66 D   1     bf  182 -   187          4.863473536318          0.651466473620         -3.984866686943
      0.8000000000D+00  0.1000000000D+01
 Atom H23      Shell    67 S   3     bf  188 -   188          5.180133092474          2.447269230379         -4.963956605386
      0.1873113696D+02  0.3349460434D-01
      0.2825394365D+01  0.2347269535D+00
      0.6401216923D+00  0.8137573261D+00
 Atom H23      Shell    68 S   1     bf  189 -   189          5.180133092474          2.447269230379         -4.963956605386
      0.1612777588D+00  0.1000000000D+01
 Atom H24      Shell    69 S   3     bf  190 -   190          3.036190682288         -0.049197205733         -4.662820072268
      0.1873113696D+02  0.3349460434D-01
      0.2825394365D+01  0.2347269535D+00
      0.6401216923D+00  0.8137573261D+00
 Atom H24      Shell    70 S   1     bf  191 -   191          3.036190682288         -0.049197205733         -4.662820072268
      0.1612777588D+00  0.1000000000D+01
 Atom C25      Shell    71 S   6     bf  192 -   192          6.933190905511         -1.226231212280         -4.813371926555
      0.3047524880D+04  0.1834737132D-02
      0.4573695180D+03  0.1403732281D-01
      0.1039486850D+03  0.6884262226D-01
      0.2921015530D+02  0.2321844432D+00
      0.9286662960D+01  0.4679413484D+00
      0.3163926960D+01  0.3623119853D+00
 Atom C25      Shell    72 SP   3    bf  193 -   196          6.933190905511         -1.226231212280         -4.813371926555
      0.7868272350D+01 -0.1193324198D+00  0.6899906659D-01
      0.1881288540D+01 -0.1608541517D+00  0.3164239610D+00
      0.5442492580D+00  0.1143456438D+01  0.7443082909D+00
 Atom C25      Shell    73 SP   1    bf  197 -   200          6.933190905511         -1.226231212280         -4.813371926555
      0.1687144782D+00  0.1000000000D+01  0.1000000000D+01
 Atom C25      Shell    74 D   1     bf  201 -   206          6.933190905511         -1.226231212280         -4.813371926555
      0.8000000000D+00  0.1000000000D+01
 Atom H26      Shell    75 S   3     bf  207 -   207          6.490293864226         -3.118177452118         -4.076686136480
      0.1873113696D+02  0.3349460434D-01
      0.2825394365D+01  0.2347269535D+00
      0.6401216923D+00  0.8137573261D+00
 Atom H26      Shell    76 S   1     bf  208 -   208          6.490293864226         -3.118177452118         -4.076686136480
      0.1612777588D+00  0.1000000000D+01
 Atom H27      Shell    77 S   3     bf  209 -   209          6.891510803568         -1.375632809167         -6.875620512256
      0.1873113696D+02  0.3349460434D-01
      0.2825394365D+01  0.2347269535D+00
      0.6401216923D+00  0.8137573261D+00
 Atom H27      Shell    78 S   1     bf  210 -   210          6.891510803568         -1.375632809167         -6.875620512256
      0.1612777588D+00  0.1000000000D+01
 Atom C28      Shell    79 S   6     bf  211 -   211          9.564273721247         -0.438187428022         -3.836578611179
      0.3047524880D+04  0.1834737132D-02
      0.4573695180D+03  0.1403732281D-01
      0.1039486850D+03  0.6884262226D-01
      0.2921015530D+02  0.2321844432D+00
      0.9286662960D+01  0.4679413484D+00
      0.3163926960D+01  0.3623119853D+00
 Atom C28      Shell    80 SP   3    bf  212 -   215          9.564273721247         -0.438187428022         -3.836578611179
      0.7868272350D+01 -0.1193324198D+00  0.6899906659D-01
      0.1881288540D+01 -0.1608541517D+00  0.3164239610D+00
      0.5442492580D+00  0.1143456438D+01  0.7443082909D+00
 Atom C28      Shell    81 SP   1    bf  216 -   219          9.564273721247         -0.438187428022         -3.836578611179
      0.1687144782D+00  0.1000000000D+01  0.1000000000D+01
 Atom C28      Shell    82 D   1     bf  220 -   225          9.564273721247         -0.438187428022         -3.836578611179
      0.8000000000D+00  0.1000000000D+01
 Atom C29      Shell    83 S   6     bf  226 -   226          9.341002049523         -0.238198788523         -0.910866855518
      0.3047524880D+04  0.1834737132D-02
      0.4573695180D+03  0.1403732281D-01
      0.1039486850D+03  0.6884262226D-01
      0.2921015530D+02  0.2321844432D+00
      0.9286662960D+01  0.4679413484D+00
      0.3163926960D+01  0.3623119853D+00
 Atom C29      Shell    84 SP   3    bf  227 -   230          9.341002049523         -0.238198788523         -0.910866855518
      0.7868272350D+01 -0.1193324198D+00  0.6899906659D-01
      0.1881288540D+01 -0.1608541517D+00  0.3164239610D+00
      0.5442492580D+00  0.1143456438D+01  0.7443082909D+00
 Atom C29      Shell    85 SP   1    bf  231 -   234          9.341002049523         -0.238198788523         -0.910866855518
      0.1687144782D+00  0.1000000000D+01  0.1000000000D+01
 Atom C29      Shell    86 D   1     bf  235 -   240          9.341002049523         -0.238198788523         -0.910866855518
      0.8000000000D+00  0.1000000000D+01
 Atom H30      Shell    87 S   3     bf  241 -   241          8.675055039184         -2.108630779797         -0.291852346422
      0.1873113696D+02  0.3349460434D-01
      0.2825394365D+01  0.2347269535D+00
      0.6401216923D+00  0.8137573261D+00
 Atom H30      Shell    88 S   1     bf  242 -   242          8.675055039184         -2.108630779797         -0.291852346422
      0.1612777588D+00  0.1000000000D+01
 Atom C31      Shell    89 S   6     bf  243 -   243         12.085221219259          0.000000000000          0.000000000000
      0.3047524880D+04  0.1834737132D-02
      0.4573695180D+03  0.1403732281D-01
      0.1039486850D+03  0.6884262226D-01
      0.2921015530D+02  0.2321844432D+00
      0.9286662960D+01  0.4679413484D+00
      0.3163926960D+01  0.3623119853D+00
 Atom C31      Shell    90 SP   3    bf  244 -   247         12.085221219259          0.000000000000          0.000000000000
      0.7868272350D+01 -0.1193324198D+00  0.6899906659D-01
      0.1881288540D+01 -0.1608541517D+00  0.3164239610D+00
      0.5442492580D+00  0.1143456438D+01  0.7443082909D+00
 Atom C31      Shell    91 SP   1    bf  248 -   251         12.085221219259          0.000000000000          0.000000000000
      0.1687144782D+00  0.1000000000D+01  0.1000000000D+01
 Atom C31      Shell    92 D   1     bf  252 -   257         12.085221219259          0.000000000000          0.000000000000
      0.8000000000D+00  0.1000000000D+01
 Atom H32      Shell    93 S   3     bf  258 -   258         12.309408897931         -0.597488733202          1.964777116479
      0.1873113696D+02  0.3349460434D-01
      0.2825394365D+01  0.2347269535D+00
      0.6401216923D+00  0.8137573261D+00
 Atom H32      Shell    94 S   1     bf  259 -   259         12.309408897931         -0.597488733202          1.964777116479
      0.1612777588D+00  0.1000000000D+01
 Atom H33      Shell    95 S   3     bf  260 -   260         12.727961485617          1.968565148102         -0.111978273134
      0.1873113696D+02  0.3349460434D-01
      0.2825394365D+01  0.2347269535D+00
      0.6401216923D+00  0.8137573261D+00
 Atom H33      Shell    96 S   1     bf  261 -   261         12.727961485617          1.968565148102         -0.111978273134
      0.1612777588D+00  0.1000000000D+01
 Atom C34      Shell    97 S   6     bf  262 -   262         13.579673563696         -1.701854303967         -1.866824598573
      0.3047524880D+04  0.1834737132D-02
      0.4573695180D+03  0.1403732281D-01
      0.1039486850D+03  0.6884262226D-01
      0.2921015530D+02  0.2321844432D+00
      0.9286662960D+01  0.4679413484D+00
      0.3163926960D+01  0.3623119853D+00
 Atom C34      Shell    98 SP   3    bf  263 -   266         13.579673563696         -1.701854303967         -1.866824598573
      0.7868272350D+01 -0.1193324198D+00  0.6899906659D-01
      0.1881288540D+01 -0.1608541517D+00  0.3164239610D+00
      0.5442492580D+00  0.1143456438D+01  0.7443082909D+00
 Atom C34      Shell    99 SP   1    bf  267 -   270         13.579673563696         -1.701854303967         -1.866824598573
      0.1687144782D+00  0.1000000000D+01  0.1000000000D+01
 Atom C34      Shell   100 D   1     bf  271 -   276         13.579673563696         -1.701854303967         -1.866824598573
      0.8000000000D+00  0.1000000000D+01
 Atom H35      Shell   101 S   3     bf  277 -   277         15.217343092792         -0.693749379302         -2.638373757101
      0.1873113696D+02  0.3349460434D-01
      0.2825394365D+01  0.2347269535D+00
      0.6401216923D+00  0.8137573261D+00
 Atom H35      Shell   102 S   1     bf  278 -   278         15.217343092792         -0.693749379302         -2.638373757101
      0.1612777588D+00  0.1000000000D+01
 Atom H36      Shell   103 S   3     bf  279 -   279         14.326335955020         -3.377404867383         -0.913088285279
      0.1873113696D+02  0.3349460434D-01
      0.2825394365D+01  0.2347269535D+00
      0.6401216923D+00  0.8137573261D+00
 Atom H36      Shell   104 S   1     bf  280 -   280         14.326335955020         -3.377404867383         -0.913088285279
      0.1612777588D+00  0.1000000000D+01
 Atom C37      Shell   105 S   6     bf  281 -   281         11.720605591700         -2.462749205455         -4.044226575257
      0.3047524880D+04  0.1834737132D-02
      0.4573695180D+03  0.1403732281D-01
      0.1039486850D+03  0.6884262226D-01
      0.2921015530D+02  0.2321844432D+00
      0.9286662960D+01  0.4679413484D+00
      0.3163926960D+01  0.3623119853D+00
 Atom C37      Shell   106 SP   3    bf  282 -   285         11.720605591700         -2.462749205455         -4.044226575257
      0.7868272350D+01 -0.1193324198D+00  0.6899906659D-01
      0.1881288540D+01 -0.1608541517D+00  0.3164239610D+00
      0.5442492580D+00  0.1143456438D+01  0.7443082909D+00
[...]
 1590 Fit       0.001539
 1591 Fit       0.001425
 1592 Fit       0.002326
 1593 Fit       0.002936
 1594 Fit      -0.000845
 1595 Fit       0.000242
 1596 Fit      -0.000850
 1597 Fit       0.000021
 1598 Fit       0.000826
 1599 Fit       0.000775
 1600 Fit       0.000141
 1601 Fit      -0.001221
 1602 Fit      -0.001265
 1603 Fit      -0.001450
 1604 Fit      -0.001204
 1605 Fit      -0.001610
 1606 Fit      -0.001773
 1607 Fit       0.002695
 1608 Fit       0.003530
 1609 Fit       0.003202
 1610 Fit       0.002332
 1611 Fit       0.000273
 1612 Fit       0.001031
 1613 Fit       0.001918
 1614 Fit       0.001531
 1615 Fit      -0.000145
 1616 Fit      -0.000534
 1617 Fit       0.002906
 1618 Fit       0.001559
 1619 Fit      -0.000274
 1620 Fit       0.003564
 1621 Fit       0.002858
 1622 Fit       0.001143
 1623 Fit      -0.001321
 1624 Fit       0.000596
 1625 Fit       0.002647
 1626 Fit       0.002762
 1627 Fit       0.001623
 1628 Fit      -0.000498
 1629 Fit      -0.000584
 1630 Fit       0.001532
 1631 Fit       0.000959
 1632 Fit       0.002583
 1633 Fit       0.004221
 1634 Fit       0.004671
 1635 Fit       0.004118
 1636 Fit       0.003187
 1637 Fit       0.000439
 1638 Fit       0.002585
 1639 Fit       0.003629
 1640 Fit       0.003090
 1641 Fit       0.001202
 1642 Fit      -0.000576
 1643 Fit       0.001401
 1644 Fit       0.000712
 1645 Fit      -0.015413
 1646 Fit      -0.013397
 1647 Fit      -0.011921
 1648 Fit      -0.011915
 1649 Fit      -0.009118
 1650 Fit      -0.012855
 1651 Fit      -0.019210
 1652 Fit      -0.016277
 1653 Fit      -0.008178
 1654 Fit      -0.005915
 1655 Fit      -0.009237
 1656 Fit      -0.004328
 1657 Fit      -0.002238
 1658 Fit      -0.000535
 1659 Fit       0.000673
 1660 Fit       0.001364
 1661 Fit      -0.002177
 1662 Fit      -0.004484
 1663 Fit      -0.000539
 1664 Fit      -0.001440
 1665 Fit      -0.005753
 1666 Fit      -0.011351
 1667 Fit      -0.008765
 1668 Fit      -0.004623
 1669 Fit       0.001144
 1670 Fit      -0.000313
 1671 Fit      -0.002565
 1672 Fit      -0.009700
 1673 Fit      -0.010746
 1674 Fit       0.001971
 1675 Fit       0.003988
 1676 Fit       0.002977
 1677 Fit       0.006098
 1678 Fit       0.009764
 1679 Fit       0.005227
 1680 Fit       0.008922
 1681 Fit       0.013215
 1682 Fit       0.001637
 1683 Fit       0.003070
 1684 Fit       0.002654
 1685 Fit       0.003229
 1686 Fit      -0.001885
 1687 Fit      -0.004868
 1688 Fit       0.000063
 1689 Fit      -0.000155
 1690 Fit      -0.001265
 1691 Fit       0.001337
 1692 Fit       0.001748
 1693 Fit       0.002292
 1694 Fit       0.002596
 1695 Fit       0.006464
 1696 Fit       0.005377
 1697 Fit       0.004939
 1698 Fit       0.004869
 1699 Fit       0.007391
 1700 Fit       0.006483
 1701 Fit       0.006678
 1702 Fit       0.007299
 1703 Fit       0.002777
 1704 Fit       0.003027
 1705 Fit       0.004673
 1706 Fit       0.014083
 1707 Fit       0.011647
 1708 Fit       0.006370
 1709 Fit       0.009774
 1710 Fit       0.007896
 1711 Fit       0.004578
 1712 Fit       0.006882
 1713 Fit       0.004895
 1714 Fit       0.006697
 1715 Fit      -0.009166
 1716 Fit      -0.010550
 1717 Fit      -0.008791
 1718 Fit      -0.005554
 1719 Fit      -0.002898
 1720 Fit      -0.000890
 1721 Fit      -0.001844
 1722 Fit      -0.001952
 1723 Fit      -0.000772
 1724 Fit       0.000406
 1725 Fit       0.001255
 1726 Fit       0.001139
 1727 Fit       0.001463
 1728 Fit       0.002167
 1729 Fit       0.002648
 1730 Fit       0.002851
 1731 Fit       0.003554
 1732 Fit      -0.019487
 1733 Fit       0.001406
 1734 Fit      -0.000591
 1735 Fit      -0.000525
 1736 Fit      -0.002487
 1737 Fit       0.000366
 1738 Fit      -0.003584
 1739 Fit      -0.004103
 1740 Fit      -0.000490
 1741 Fit      -0.000279
 1742 Fit      -0.003625
 1743 Fit      -0.009132
 1744 Fit      -0.010043
 1745 Fit      -0.004388
 1746 Fit       0.000005
 1747 Fit       0.000679
 1748 Fit       0.001025
 1749 Fit      -0.015321
 1750 Fit      -0.023057
 1751 Fit      -0.000600
 1752 Fit      -0.004563
 1753 Fit       0.000119
 1754 Fit      -0.001245
 1755 Fit       0.002367
 1756 Fit       0.003354
 1757 Fit       0.003962
 1758 Fit       0.005324
 1759 Fit       0.004664
 1760 Fit       0.006994
 1761 Fit       0.006535
 1762 Fit       0.007608
 1763 Fit       0.007338
 1764 Fit       0.007313
 1765 Fit       0.002600
 1766 Fit       0.004722
 1767 Fit       0.004444
 1768 Fit       0.004011
 1769 Fit       0.006680
 1770 Fit       0.005073
 1771 Fit       0.005535
 1772 Fit       0.004849
 1773 Fit       0.003394
 1774 Fit       0.003482
 1775 Fit       0.005378
 1776 Fit       0.004169
 1777 Fit       0.003170
 1778 Fit       0.006957
 1779 Fit       0.006883
 1780 Fit       0.005701
 1781 Fit       0.004386
 1782 Fit       0.004811
 1783 Fit       0.003913
 1784 Fit       0.002232
 1785 Fit       0.001384
 1786 Fit       0.007396
 1787 Fit       0.010941
 1788 Fit       0.003891
 1789 Fit       0.005313
 1790 Fit       0.006761
 1791 Fit       0.007659
 1792 Fit       0.003106
 1793 Fit       0.003604
 1794 Fit       0.004417
 1795 Fit       0.005178
 1796 Fit       0.001879
 1797 Fit       0.002527
 1798 Fit       0.005499
 1799 Fit       0.004601
 1800 Fit       0.004093
 1801 Fit       0.003333
 1802 Fit       0.002144
 1803 Fit       0.005560
 1804 Fit       0.004315
 1805 Fit       0.002717
 1806 Fit       0.014380
 1807 Fit       0.001134
 1808 Fit      -0.001546
 1809 Fit      -0.000927
 1810 Fit       0.000258
 1811 Fit      -0.004134
 1812 Fit      -0.004534
 1813 Fit      -0.006143
 1814 Fit      -0.001799
 1815 Fit      -0.001826
 1816 Fit      -0.000485
 1817 Fit      -0.002480
 1818 Fit      -0.001323
 1819 Fit      -0.001397
 1820 Fit       0.006207
 1821 Fit       0.001124
 1822 Fit       0.003528
 1823 Fit       0.002124
 1824 Fit       0.003759
 1825 Fit       0.005275
 1826 Fit       0.007372
 1827 Fit       0.003930
 1828 Fit       0.004937
 1829 Fit       0.005640
 1830 Fit       0.006783
 1831 Fit      -0.001120
 1832 Fit      -0.000401
 1833 Fit      -0.000444
 1834 Fit       0.000759
 1835 Fit       0.002135
 1836 Fit       0.002650
 1837 Fit       0.003368
 1838 Fit       0.001918
 1839 Fit       0.003826
 1840 Fit       0.004526
 1841 Fit       0.000092
 1842 Fit       0.002560
 1843 Fit       0.001798
 1844 Fit       0.000392
 1845 Fit       0.006771
 1846 Fit       0.004466
 1847 Fit       0.003155
 1848 Fit       0.001979
 1849 Fit       0.000879
 1850 Fit       0.004737
 1851 Fit       0.003398
 1852 Fit       0.002758
 1853 Fit       0.002150
 1854 Fit       0.012240
 1855 Fit       0.008292
 1856 Fit       0.005348
 1857 Fit       0.008104
 1858 Fit       0.006639
 1859 Fit       0.005815
 1860 Fit       0.005547
 1861 Fit       0.005299
 1862 Fit       0.002230
 1863 Fit       0.002904
 1864 Fit       0.001865
 1865 Fit       0.001740
 1866 Fit       0.002548
 1867 Fit       0.005894
 1868 Fit       0.004044
 1869 Fit       0.005852
 1870 Fit       0.003878
 1871 Fit       0.005574
 1872 Fit       0.005387
 1873 Fit       0.004758
 1874 Fit       0.004028
 1875 Fit       0.005088
 1876 Fit       0.004468
 1877 Fit       0.003634
 1878 Fit       0.003056
 1879 Fit       0.003210
 1880 Fit       0.002821
 1881 Fit       0.003162
 1882 Fit       0.004077
 1883 Fit       0.005234
 1884 Fit       0.004330
 1885 Fit       0.004268
 1886 Fit       0.004777
 1887 Fit       0.006206
 1888 Fit       0.005207
 1889 Fit       0.004463
 1890 Fit       0.003658
 1891 Fit       0.000775
 1892 Fit       0.000701
 1893 Fit       0.002829
 1894 Fit       0.000238
 1895 Fit       0.000023
 1896 Fit       0.001396
 1897 Fit       0.000673
 1898 Fit       0.005017
 1899 Fit       0.005122
 1900 Fit       0.002874
 1901 Fit       0.003899
 1902 Fit       0.003908
 1903 Fit       0.001125
 1904 Fit       0.002058
 1905 Fit       0.002699
 1906 Fit       0.002589
 1907 Fit       0.001830
 1908 Fit       0.000723
 1909 Fit       0.001219
 1910 Fit       0.001101
 1911 Fit       0.003839
 1912 Fit       0.001943
 1913 Fit       0.003546
 1914 Fit       0.002020
 1915 Fit       0.001301
 1916 Fit       0.001882
 1917 Fit       0.002739
 1918 Fit       0.002575
 1919 Fit       0.003865
 1920 Fit       0.005101
 1921 Fit       0.005234
 1922 Fit       0.004305
 1923 Fit       0.002018
 1924 Fit       0.003010
 1925 Fit       0.001873
 1926 Fit       0.003530
 1927 Fit       0.004404
 1928 Fit       0.003878
 1929 Fit       0.004302
 1930 Fit       0.005624
 1931 Fit       0.006856
 1932 Fit       0.005633
 1933 Fit       0.004357
 1934 Fit       0.005736
 1935 Fit       0.004739
 1936 Fit       0.005043
 1937 Fit       0.005908
 1938 Fit       0.006717
 1939 Fit       0.007766
 1940 Fit       0.006101
 1941 Fit       0.006340
 1942 Fit       0.007054
 1943 Fit       0.006836
 1944 Fit       0.006843
 1945 Fit       0.006665
 1946 Fit       0.010509
 1947 Fit       0.015771
 1948 Fit       0.005515
 1949 Fit       0.008114
 1950 Fit       0.011046
 1951 Fit       0.005648
 1952 Fit       0.007508
 1953 Fit       0.004901
 1954 Fit       0.002906
 1955 Fit       0.007981
 1956 Fit       0.005646
 1957 Fit       0.004251
 1958 Fit       0.008061
 1959 Fit       0.006073
 1960 Fit       0.004564
 1961 Fit       0.006944
 1962 Fit       0.005012
 1963 Fit      -0.021144
 1964 Fit      -0.018442
 1965 Fit      -0.015828
 1966 Fit      -0.024366
 1967 Fit      -0.023232
 1968 Fit      -0.019136
 1969 Fit      -0.014899
 1970 Fit      -0.011605
 1971 Fit      -0.011874
 1972 Fit      -0.015069
 1973 Fit      -0.005883
 1974 Fit      -0.010661
 1975 Fit      -0.023597
 1976 Fit      -0.025011
 1977 Fit      -0.023787
 1978 Fit      -0.018008
 1979 Fit      -0.015460
 1980 Fit      -0.024740
 1981 Fit      -0.023091
 1982 Fit      -0.018036
 1983 Fit      -0.010515
 1984 Fit      -0.003190
 1985 Fit      -0.017809
 1986 Fit      -0.011422
 1987 Fit      -0.002136
 1988 Fit      -0.012559
 1989 Fit      -0.007583
 1990 Fit       0.001039
 1991 Fit      -0.001888
 1992 Fit       0.007563
 1993 Fit       0.007100
 1994 Fit      -0.001674
 1995 Fit       0.007944
 1996 Fit       0.009852
 1997 Fit       0.005090
 1998 Fit       0.007339
 1999 Fit       0.013824
 2000 Fit       0.016509
 2001 Fit       0.015380
 2002 Fit       0.009419
 2003 Fit       0.011203
 2004 Fit       0.016948
 2005 Fit       0.019425
 2006 Fit       0.018520
 2007 Fit       0.013423
 2008 Fit       0.011875
 2009 Fit       0.017645
 2010 Fit       0.019372
 2011 Fit      -0.024909
 2012 Fit      -0.019394
 2013 Fit      -0.022203
 2014 Fit      -0.026892
 2015 Fit      -0.026954
 2016 Fit      -0.022460
 2017 Fit      -0.010581
 2018 Fit      -0.010843
 2019 Fit      -0.014291
 2020 Fit      -0.020516
 2021 Fit      -0.026202
 2022 Fit      -0.028392
 2023 Fit      -0.026136
 2024 Fit      -0.011479
 2025 Fit      -0.020307
 2026 Fit      -0.025976
 2027 Fit      -0.026991
 2028 Fit      -0.023262
 2029 Fit      -0.005353
 2030 Fit      -0.015742
 2031 Fit      -0.022213
 2032 Fit      -0.023862
 2033 Fit      -0.020683
 2034 Fit      -0.009219
 2035 Fit      -0.016673
 2036 Fit      -0.006640
 2037 Fit       0.003047
 2038 Fit       0.003070
 2039 Fit      -0.002162
 2040 Fit       0.013305
 2041 Fit       0.011759
 2042 Fit       0.007240
 2043 Fit      -0.001084
 2044 Fit       0.019157
 2045 Fit       0.016952
 2046 Fit       0.012511
 2047 Fit       0.005024
 2048 Fit       0.022659
 2049 Fit       0.019614
 2050 Fit       0.014599
 2051 Fit       0.006485
 2052 Fit       0.000974
 2053 Fit       0.000946
 2054 Fit       0.002553
 2055 Fit       0.002224
 2056 Fit       0.001336
 2057 Fit       0.002071
 2058 Fit       0.002997
 2059 Fit       0.001966
 2060 Fit       0.003651
 2061 Fit       0.001744
 2062 Fit       0.004687
 2063 Fit       0.003138
 2064 Fit       0.001591
 2065 Fit       0.005393
 2066 Fit       0.004301
 2067 Fit       0.003228
 2068 Fit       0.002111
 2069 Fit       0.001289
 2070 Fit       0.003414
 2071 Fit       0.002559
 2072 Fit       0.001660
 2073 Fit       0.001913
 2074 Fit       0.001251
 2075 Fit       0.001173
 2076 Fit       0.000740
 2077 Fit       0.001689
 2078 Fit       0.001403
 2079 Fit       0.001700
 2080 Fit       0.002178
 2081 Fit       0.001752
 2082 Fit       0.001765
 2083 Fit       0.002556
 2084 Fit       0.002744
 2085 Fit       0.001457
 2086 Fit       0.002834
 2087 Fit       0.001707
 2088 Fit       0.001504
 2089 Fit       0.002709
 2090 Fit       0.002939
 2091 Fit       0.002961
 2092 Fit       0.002598
 2093 Fit       0.001408
 2094 Fit       0.001496
 2095 Fit       0.003391
 2096 Fit       0.003519
 2097 Fit       0.003640
 2098 Fit       0.003257
 2099 Fit       0.003115
 2100 Fit       0.003674
 2101 Fit       0.002784
 2102 Fit       0.002361
 2103 Fit       0.002046
 2104 Fit       0.002192
 2105 Fit       0.002123
 2106 Fit       0.003578
 2107 Fit       0.002643
 2108 Fit       0.003724
 2109 Fit       0.004403
 2110 Fit       0.003727
 2111 Fit       0.004328
 2112 Fit       0.001686
 2113 Fit       0.001951
 2114 Fit       0.001461
 2115 Fit       0.002173
 2116 Fit       0.002312
 2117 Fit       0.002063
 2118 Fit       0.001780
 2119 Fit       0.002295
 2120 Fit       0.002423
 2121 Fit       0.002324
 2122 Fit       0.002106
 2123 Fit       0.001943
 2124 Fit       0.002013
 2125 Fit       0.001811
 2126 Fit      -0.000273
 2127 Fit      -0.001173
 2128 Fit      -0.000887
 2129 Fit      -0.000863
 2130 Fit      -0.000450
 2131 Fit       0.000194
 2132 Fit      -0.000892
 2133 Fit      -0.001465
 2134 Fit      -0.001243
 2135 Fit       0.000400
 2136 Fit      -0.000979
 2137 Fit      -0.000793
 2138 Fit       0.002457
 2139 Fit       0.000656
 2140 Fit       0.002712
 2141 Fit       0.001416
 2142 Fit      -0.000314
 2143 Fit       0.002707
 2144 Fit       0.002223
 2145 Fit       0.001022
 2146 Fit      -0.000573
 2147 Fit       0.000971
 2148 Fit      -0.000351
 2149 Fit      -0.000080
 2150 Fit      -0.000071
 2151 Fit      -0.000478
 2152 Fit       0.001432
 2153 Fit       0.001434
 2154 Fit       0.001284
 2155 Fit       0.000127
 2156 Fit       0.000997
 2157 Fit       0.002441
 2158 Fit       0.002514
 2159 Fit       0.002398
 2160 Fit       0.000710
 2161 Fit       0.001832
 2162 Fit       0.002923
 2163 Fit       0.001922
 2164 Fit       0.002680
 2165 Fit       0.002414
 2166 Fit       0.003194
 2167 Fit       0.001526
 2168 Fit       0.001565
 2169 Fit       0.001576
 2170 Fit       0.002299
 2171 Fit       0.002879
 2172 Fit       0.000022
 2173 Fit       0.000714
 2174 Fit       0.000204
 2175 Fit       0.000896
 2176 Fit       0.001496
 2177 Fit       0.002038
 2178 Fit      -0.000604
 2179 Fit       0.001465
 2180 Fit       0.002034
 2181 Fit      -0.000917
 2182 Fit       0.000379
 2183 Fit       0.000295
 2184 Fit      -0.000685
 2185 Fit      -0.000672
 2186 Fit      -0.000857
 2187 Fit      -0.000891
 2188 Fit      -0.000555
 2189 Fit      -0.000902
 2190 Fit      -0.001006
 2191 Fit       0.002608
 2192 Fit       0.002342
 2193 Fit       0.002027
 2194 Fit       0.002379
 2195 Fit       0.002473
 2196 Fit       0.002151
 2197 Fit       0.001226
 2198 Fit      -0.000427
 2199 Fit       0.000528
 2200 Fit       0.001106
 2201 Fit       0.000817
 2202 Fit      -0.000281
 2203 Fit       0.003378
 2204 Fit       0.002697
 2205 Fit       0.001709
 2206 Fit       0.000785
 2207 Fit       0.002816
 2208 Fit       0.002364
 2209 Fit       0.001191
 2210 Fit      -0.000582
 2211 Fit       0.000777
 2212 Fit       0.002175
 2213 Fit       0.002080
 2214 Fit       0.001347
 2215 Fit      -0.000046
 2216 Fit      -0.000196
 2217 Fit       0.001230
 2218 Fit       0.000809
 2219 Fit       0.003868
 2220 Fit       0.004519
 2221 Fit       0.001796
 2222 Fit       0.003095
 2223 Fit       0.003767
 2224 Fit       0.003546
 2225 Fit       0.002781
 2226 Fit       0.001522
 2227 Fit       0.000472
 2228 Fit       0.001950
 2229 Fit       0.002689
 2230 Fit       0.002291
 2231 Fit       0.000928
 2232 Fit       0.000988
 2233 Fit       0.000495
 -----------------------------------------------------------------
 Leave Link  602 at Wed Apr 26 15:01:28 2017, MaxMem=    33554432 cpu:         3.5
 (Enter /home/michal/g09/l9999.exe)

 Test job not archived.
 1\1\GINC-LINUX\SP\RHF\6-31G(d)\C27H46O3\MICHAL\26-Apr-2017\0\\#P HF/6-
 31G* SCF(Conver=6) NoSymm Test Pop=mk IOp(6/33=2) GFInput GFPrint\\MEP
  - Input generated by R.E.D.-III.x MOLECULE\\0,1\C,0,-0.97506207,1.980
 40872,1.69873964\H,0,-0.9857323,0.99678616,2.18320113\C,0,0.37090507,2
 .66265852,1.98523343\H,0,0.52396328,2.73744335,3.06624494\H,0,0.308924
 02,3.69446118,1.60315061\C,0,1.54231451,1.94600724,1.33884664\C,0,1.42
 31591,1.62964284,-0.15750303\C,0,0.01177658,1.01622443,-0.4163201\H,0,
 0.,0.,0.\H,0,-0.14522682,0.91301302,-1.49547603\C,0,-1.16047937,1.8001
 7164,0.192643\H,0,-1.24985285,2.79011462,-0.27920478\H,0,-2.10280985,1
 .27478201,0.\C,0,2.61600946,1.62984637,2.07691488\H,0,2.61947728,1.854
 25383,3.14245842\C,0,3.85408183,0.96688643,1.55591552\H,0,4.7350105,1.
 52694248,1.90244283\C,0,3.90158425,0.88502975,0.01646886\H,0,4.2092661
 1,1.88988621,-0.30912139\C,0,2.5038138,0.57456272,-0.58122796\H,0,2.19
 014289,-0.37302669,-0.12559184\C,0,2.57363935,0.34474121,-2.10870063\H
 ,0,2.74120837,1.2950391,-2.6268127\H,0,1.60668291,-0.02603404,-2.46745
 811\C,0,3.66888661,-0.64889361,-2.54712672\H,0,3.43451559,-1.65006844,
 -2.15728939\H,0,3.64683045,-0.72795353,-3.63842167\C,0,5.06119567,-0.2
 318788,-2.03022996\C,0,4.94304539,-0.12604937,-0.48200998\H,0,4.590641
 41,-1.11583935,-0.15444161\C,0,6.39522363,0.,0.\H,0,6.51385864,-0.3161
 7742,1.03971527\H,0,6.73534713,1.04171981,-0.05925635\C,0,7.18605375,-
 0.90058251,-0.98788103\H,0,8.05267114,-0.36711636,-1.39616726\H,0,7.58
 117047,-1.78724568,-0.48318551\C,0,6.20227735,-1.30323075,-2.14011253\
 H,0,5.74083779,-2.26739956,-1.87238301\C,0,5.5132113,1.09410751,-2.685
 05752\H,0,4.84880895,1.92767373,-2.44396272\H,0,6.52066593,1.38343394,
 -2.37136303\H,0,5.52754264,0.99968274,-3.77592192\C,0,6.93059606,-1.51
 855442,-3.49309219\H,0,7.44831274,-0.58126389,-3.74079884\C,0,5.977844
 54,-1.85517554,-4.65271993\H,0,5.37767673,-2.74495149,-4.42361883\H,0,
 6.5315032,-2.05943814,-5.57410689\H,0,5.28958898,-1.03603689,-4.871444
 22\C,0,1.56829383,2.95601431,-0.95163945\H,0,1.31133635,2.8191199,-2.0
 0648058\H,0,0.90967549,3.73474786,-0.55870269\H,0,2.59081023,3.3424691
 2,-0.89594573\O,0,4.11155445,-0.27133253,2.26192095\O,0,2.96578934,-1.
 17377655,2.0833211\H,0,3.44857342,-2.00465576,1.9468392\O,0,-2.0638183
 7,2.68230921,2.30568807\H,0,-2.12401245,3.56252666,1.90851585\C,0,8.00
 360145,-2.62704661,-3.33798125\H,0,8.64376386,-2.39029663,-2.48017241\
 H,0,7.48893689,-3.56563097,-3.08286481\C,0,8.92371442,-2.88784369,-4.5
 4758574\H,0,9.57316371,-3.73240532,-4.28477209\H,0,8.33274,-3.22419023
 ,-5.4074388\C,0,9.79188158,-1.68284847,-4.94581739\H,0,10.3132946,-1.3
 1510001,-4.04967525\H,0,9.14332059,-0.86066134,-5.27671884\C,0,10.8454
 3755,-1.93188376,-6.05145201\H,0,11.34853698,-0.96647396,-6.21008928\C
 ,0,11.9284809,-2.93790351,-5.62750347\H,0,11.52118736,-3.94878422,-5.5
 1130213\H,0,12.72406973,-2.99224477,-6.37937427\H,0,12.38877682,-2.650
 77324,-4.67475052\C,0,10.21139518,-2.3358063,-7.3929952\H,0,9.73912083
 ,-3.32329634,-7.33568658\H,0,10.96864578,-2.38158561,-8.18397853\H,0,9
 .44574233,-1.61594956,-7.70568632\\Version=EM64L-G09RevD.01\HF=-1273.6
 777203\RMSD=5.429e-07\Dipole=0.5680102,0.2211245,-1.069083\Quadrupole=
 -0.3057408,8.047588,-7.7418472,0.2645838,0.7156987,-2.080671\PG=C01 [X
 (C27H46O3)]\\@


 IN THE UNIVERSE THE DIFFICULT THINGS ARE DONE AS IF THEY WERE EASY.

                                                          -- LAO-TSU
 Job cpu time:       0 days  0 hours 12 minutes 30.4 seconds.
 File lengths (MBytes):  RWF=    159 Int=      0 D2E=      0 Chk=     11 Scr=      1
 Normal termination of Gaussian 09 at Wed Apr 26 15:01:28 2017.
