 Entering Gaussian System, Link 0=/home/michal/g09/g09
 Input=JOB2-gau_m1-9-2.com
 Output=JOB2-gau_m1-9-2.log
 Initial command:
 /home/michal/g09/l1.exe "/home/michal/gauss_scratch/Gau-9015.inp" -scrdir="/home/michal/gauss_scratch/"
 Entering Link 1 = /home/michal/g09/l1.exe PID=      9016.
  
 Copyright (c) 1988,1990,1992,1993,1995,1998,2003,2009,2013,
            Gaussian, Inc.  All Rights Reserved.
  
 This is part of the Gaussian(R) 09 program.  It is based on
 the Gaussian(R) 03 system (copyright 2003, Gaussian, Inc.),
 the Gaussian(R) 98 system (copyright 1998, Gaussian, Inc.),
 the Gaussian(R) 94 system (copyright 1995, Gaussian, Inc.),
 the Gaussian 92(TM) system (copyright 1992, Gaussian, Inc.),
 the Gaussian 90(TM) system (copyright 1990, Gaussian, Inc.),
 the Gaussian 88(TM) system (copyright 1988, Gaussian, Inc.),
 the Gaussian 86(TM) system (copyright 1986, Carnegie Mellon
 University), and the Gaussian 82(TM) system (copyright 1983,
 Carnegie Mellon University). Gaussian is a federally registered
 trademark of Gaussian, Inc.
  
 This software contains proprietary and confidential information,
 including trade secrets, belonging to Gaussian, Inc.
  
 This software is provided under written license and may be
 used, copied, transmitted, or stored only in accord with that
 written license.
  
 The following legend is applicable only to US Government
 contracts under FAR:
  
                    RESTRICTED RIGHTS LEGEND
  
 Use, reproduction and disclosure by the US Government is
 subject to restrictions as set forth in subparagraphs (a)
 and (c) of the Commercial Computer Software - Restricted
 Rights clause in FAR 52.227-19.
  
 Gaussian, Inc.
 340 Quinnipiac St., Bldg. 40, Wallingford CT 06492
  
  
 ---------------------------------------------------------------
 Warning -- This program may not be used in any manner that
 competes with the business of Gaussian, Inc. or will provide
 assistance to any competitor of Gaussian, Inc.  The licensee
 of this program is prohibited from giving any competitor of
 Gaussian, Inc. access to this program.  By using this program,
 the user acknowledges that Gaussian, Inc. is engaged in the
 business of creating and licensing software in the field of
 computational chemistry and represents and warrants to the
 licensee that it is not a competitor of Gaussian, Inc. and that
 it will not use this program in any manner prohibited above.
 ---------------------------------------------------------------
  

 Cite this work as:
 Gaussian 09, Revision D.01,
 M. J. Frisch, G. W. Trucks, H. B. Schlegel, G. E. Scuseria, 
 M. A. Robb, J. R. Cheeseman, G. Scalmani, V. Barone, B. Mennucci, 
 G. A. Petersson, H. Nakatsuji, M. Caricato, X. Li, H. P. Hratchian, 
 A. F. Izmaylov, J. Bloino, G. Zheng, J. L. Sonnenberg, M. Hada, 
 M. Ehara, K. Toyota, R. Fukuda, J. Hasegawa, M. Ishida, T. Nakajima, 
 Y. Honda, O. Kitao, H. Nakai, T. Vreven, J. A. Montgomery, Jr., 
 J. E. Peralta, F. Ogliaro, M. Bearpark, J. J. Heyd, E. Brothers, 
 K. N. Kudin, V. N. Staroverov, T. Keith, R. Kobayashi, J. Normand, 
 K. Raghavachari, A. Rendell, J. C. Burant, S. S. Iyengar, J. Tomasi, 
 M. Cossi, N. Rega, J. M. Millam, M. Klene, J. E. Knox, J. B. Cross, 
 V. Bakken, C. Adamo, J. Jaramillo, R. Gomperts, R. E. Stratmann, 
 O. Yazyev, A. J. Austin, R. Cammi, C. Pomelli, J. W. Ochterski, 
 R. L. Martin, K. Morokuma, V. G. Zakrzewski, G. A. Voth, 
 P. Salvador, J. J. Dannenberg, S. Dapprich, A. D. Daniels, 
 O. Farkas, J. B. Foresman, J. V. Ortiz, J. Cioslowski, 
 and D. J. Fox, Gaussian, Inc., Wallingford CT, 2013.
 
 ******************************************
 Gaussian 09:  EM64L-G09RevD.01 24-Apr-2013
                26-Apr-2017 
 ******************************************
 %Mem=256MB
 %NProc=12
 Will use up to   12 processors via shared memory.
 ----------------------------------------------------------------------
 #P HF/6-31G* SCF(Conver=6) NoSymm Test Pop=mk IOp(6/33=2) GFInput GFPr
 int
 ----------------------------------------------------------------------
 1/38=1/1;
 2/12=2,15=1,17=6,18=5,40=1/2;
 3/5=1,6=6,7=1,11=9,16=1,24=110,25=1,30=1/1,2,3;
 4//1;
 5/5=2,6=6,38=5/2;
 6/7=2,8=2,9=2,10=2,15=8,20=1,28=1,33=2/1,2;
 99/5=1,9=1/99;
 Leave Link    1 at Wed Apr 26 13:51:12 2017, MaxMem=    33554432 cpu:         0.6
 (Enter /home/michal/g09/l101.exe)
 ----------------------------------------------
 MEP - Input generated by R.E.D.-III.x MOLECULE
 ----------------------------------------------
 Symbolic Z-matrix:
 Charge =  0 Multiplicity = 1
 C                     7.51587   2.15117  -0.05546 
 H                     7.4141    2.06864   1.0336 
 C                     6.7627    0.98484  -0.71476 
 H                     7.15359   0.03426  -0.33874 
 H                     6.98313   1.01157  -1.79355 
 C                     5.2639    1.06239  -0.48939 
 C                     4.58097   2.38773  -0.84967 
 C                     5.41698   3.54894  -0.22776 
 H                     5.26916   3.53226   0.86064 
 H                     5.02292   4.50832  -0.58003 
 C                     6.92552   3.4851   -0.51248 
 H                     7.12031   3.61433  -1.58743 
 H                     7.43891   4.30654   0. 
 C                     4.60592   0.        0. 
 H                     5.16307  -0.90537   0.2337 
 C                     3.12828  -0.04472   0.26275 
 H                     2.71653  -1.01006  -0.05794 
 C                     2.368     1.10035  -0.43066 
 H                     2.35316   0.82629  -1.4948 
 C                     3.12893   2.44233  -0.25605 
 H                     3.24935   2.57623   0.82904 
 C                     2.30491   3.64893  -0.76836 
 H                     2.28871   3.65298  -1.86291 
 H                     2.80085   4.58032  -0.47172 
 C                     0.84795   3.6861   -0.26301 
 H                     0.83848   3.84569   0.82443 
 H                     0.3461    4.55127  -0.7113 
 C                     0.10254   2.37525  -0.58068 
 C                     0.92344   1.22733   0.07518 
 H                     0.99645   1.49412   1.13796 
 C                     0.        0.        0. 
 H                     0.23975  -0.73773   0.77083 
 H                     0.09692  -0.50412  -0.97011 
 C                    -1.42383   0.60169   0.17407 
 H                    -2.08658   0.26901  -0.63124 
 H                    -1.89134   0.27603   1.1096 
 C                    -1.25789   2.15457   0.16652 
 H                    -1.04575   2.44658   1.20609 
 C                    -0.03926   2.19588  -2.10958 
 H                     0.9265    2.04569  -2.59942 
 H                    -0.66719   1.33938  -2.36858 
 H                    -0.49113   3.08366  -2.56187 
 C                    -2.57499   2.91254  -0.17426 
 H                    -3.2946    2.4875    0.54184 
 C                    -3.17724   2.67536  -1.57321 
 H                    -2.65824   3.24869  -2.34747 
 H                    -4.2276    2.98362  -1.59211 
 H                    -3.15093   1.62121  -1.86391 
 C                     4.57143   2.52344  -2.39721 
 H                     4.27765   3.53089  -2.70634 
 H                     5.55774   2.33107  -2.8261 
 H                     3.87834   1.80973  -2.85324 
 O                     2.84803   0.06896   1.68544 
 O                     3.34135  -1.13899   2.32979 
 H                     4.11387  -0.79171   2.80575 
 O                     8.92527   2.06716  -0.28147 
 H                     9.09341   2.15964  -1.22981 
 C                    -2.47393   4.4243    0.13552 
 H                    -1.95975   4.55419   1.09825 
 H                    -1.83281   4.89841  -0.61864 
 C                    -3.80372   5.20418   0.189 
 H                    -3.55623   6.26464   0.32414 
 H                    -4.31252   5.13693  -0.78028 
 C                    -4.75272   4.75773   1.31348 
 H                    -4.19579   4.75784   2.26217 
 H                    -5.05844   3.71695   1.14268 
 C                    -6.03494   5.60295   1.50413 
 H                    -6.58732   5.12887   2.32896 
 C                    -5.73749   7.04861   1.93596 
 H                    -5.24158   7.61666   1.14051 
 H                    -6.66417   7.5783    2.18491 
 H                    -5.08986   7.07542   2.82022 
 C                    -6.95257   5.57257   0.27053 
 H                    -6.49664   6.08424  -0.58494 
 H                    -7.90492   6.07272   0.48055 
 H                    -7.1765    4.54372  -0.03517 
 
 NAtoms=     76 NQM=       76 NQMF=       0 NMMI=      0 NMMIF=      0
                NMic=       0 NMicF=      0.
                    Isotopes and Nuclear Properties:
 (Nuclear quadrupole moments (NQMom) in fm**2, nuclear magnetic moments (NMagM)
  in nuclear magnetons)

  Atom         1           2           3           4           5           6           7           8           9          10
 IAtWgt=          12           1          12           1           1          12          12          12           1           1
 AtmWgt=  12.0000000   1.0078250  12.0000000   1.0078250   1.0078250  12.0000000  12.0000000  12.0000000   1.0078250   1.0078250
 NucSpn=           0           1           0           1           1           0           0           0           1           1
 AtZEff=   0.0000000   0.0000000   0.0000000   0.0000000   0.0000000   0.0000000   0.0000000   0.0000000   0.0000000   0.0000000
 NQMom=    0.0000000   0.0000000   0.0000000   0.0000000   0.0000000   0.0000000   0.0000000   0.0000000   0.0000000   0.0000000
 NMagM=    0.0000000   2.7928460   0.0000000   2.7928460   2.7928460   0.0000000   0.0000000   0.0000000   2.7928460   2.7928460
 AtZNuc=   6.0000000   1.0000000   6.0000000   1.0000000   1.0000000   6.0000000   6.0000000   6.0000000   1.0000000   1.0000000

  Atom        11          12          13          14          15          16          17          18          19          20
 IAtWgt=          12           1           1          12           1          12           1          12           1          12
 AtmWgt=  12.0000000   1.0078250   1.0078250  12.0000000   1.0078250  12.0000000   1.0078250  12.0000000   1.0078250  12.0000000
 NucSpn=           0           1           1           0           1           0           1           0           1           0
 AtZEff=   0.0000000   0.0000000   0.0000000   0.0000000   0.0000000   0.0000000   0.0000000   0.0000000   0.0000000   0.0000000
 NQMom=    0.0000000   0.0000000   0.0000000   0.0000000   0.0000000   0.0000000   0.0000000   0.0000000   0.0000000   0.0000000
 NMagM=    0.0000000   2.7928460   2.7928460   0.0000000   2.7928460   0.0000000   2.7928460   0.0000000   2.7928460   0.0000000
 AtZNuc=   6.0000000   1.0000000   1.0000000   6.0000000   1.0000000   6.0000000   1.0000000   6.0000000   1.0000000   6.0000000

  Atom        21          22          23          24          25          26          27          28          29          30
 IAtWgt=           1          12           1           1          12           1           1          12          12           1
 AtmWgt=   1.0078250  12.0000000   1.0078250   1.0078250  12.0000000   1.0078250   1.0078250  12.0000000  12.0000000   1.0078250
 NucSpn=           1           0           1           1           0           1           1           0           0           1
 AtZEff=   0.0000000   0.0000000   0.0000000   0.0000000   0.0000000   0.0000000   0.0000000   0.0000000   0.0000000   0.0000000
 NQMom=    0.0000000   0.0000000   0.0000000   0.0000000   0.0000000   0.0000000   0.0000000   0.0000000   0.0000000   0.0000000
 NMagM=    2.7928460   0.0000000   2.7928460   2.7928460   0.0000000   2.7928460   2.7928460   0.0000000   0.0000000   2.7928460
 AtZNuc=   1.0000000   6.0000000   1.0000000   1.0000000   6.0000000   1.0000000   1.0000000   6.0000000   6.0000000   1.0000000

  Atom        31          32          33          34          35          36          37          38          39          40
 IAtWgt=          12           1           1          12           1           1          12           1          12           1
 AtmWgt=  12.0000000   1.0078250   1.0078250  12.0000000   1.0078250   1.0078250  12.0000000   1.0078250  12.0000000   1.0078250
 NucSpn=           0           1           1           0           1           1           0           1           0           1
 AtZEff=   0.0000000   0.0000000   0.0000000   0.0000000   0.0000000   0.0000000   0.0000000   0.0000000   0.0000000   0.0000000
 NQMom=    0.0000000   0.0000000   0.0000000   0.0000000   0.0000000   0.0000000   0.0000000   0.0000000   0.0000000   0.0000000
 NMagM=    0.0000000   2.7928460   2.7928460   0.0000000   2.7928460   2.7928460   0.0000000   2.7928460   0.0000000   2.7928460
 AtZNuc=   6.0000000   1.0000000   1.0000000   6.0000000   1.0000000   1.0000000   6.0000000   1.0000000   6.0000000   1.0000000

  Atom        41          42          43          44          45          46          47          48          49          50
 IAtWgt=           1           1          12           1          12           1           1           1          12           1
 AtmWgt=   1.0078250   1.0078250  12.0000000   1.0078250  12.0000000   1.0078250   1.0078250   1.0078250  12.0000000   1.0078250
 NucSpn=           1           1           0           1           0           1           1           1           0           1
 AtZEff=   0.0000000   0.0000000   0.0000000   0.0000000   0.0000000   0.0000000   0.0000000   0.0000000   0.0000000   0.0000000
 NQMom=    0.0000000   0.0000000   0.0000000   0.0000000   0.0000000   0.0000000   0.0000000   0.0000000   0.0000000   0.0000000
 NMagM=    2.7928460   2.7928460   0.0000000   2.7928460   0.0000000   2.7928460   2.7928460   2.7928460   0.0000000   2.7928460
 AtZNuc=   1.0000000   1.0000000   6.0000000   1.0000000   6.0000000   1.0000000   1.0000000   1.0000000   6.0000000   1.0000000

  Atom        51          52          53          54          55          56          57          58          59          60
 IAtWgt=           1           1          16          16           1          16           1          12           1           1
 AtmWgt=   1.0078250   1.0078250  15.9949146  15.9949146   1.0078250  15.9949146   1.0078250  12.0000000   1.0078250   1.0078250
 NucSpn=           1           1           0           0           1           0           1           0           1           1
 AtZEff=   0.0000000   0.0000000   0.0000000   0.0000000   0.0000000   0.0000000   0.0000000   0.0000000   0.0000000   0.0000000
 NQMom=    0.0000000   0.0000000   0.0000000   0.0000000   0.0000000   0.0000000   0.0000000   0.0000000   0.0000000   0.0000000
 NMagM=    2.7928460   2.7928460   0.0000000   0.0000000   2.7928460   0.0000000   2.7928460   0.0000000   2.7928460   2.7928460
 AtZNuc=   1.0000000   1.0000000   8.0000000   8.0000000   1.0000000   8.0000000   1.0000000   6.0000000   1.0000000   1.0000000

  Atom        61          62          63          64          65          66          67          68          69          70
 IAtWgt=          12           1           1          12           1           1          12           1          12           1
 AtmWgt=  12.0000000   1.0078250   1.0078250  12.0000000   1.0078250   1.0078250  12.0000000   1.0078250  12.0000000   1.0078250
 NucSpn=           0           1           1           0           1           1           0           1           0           1
 AtZEff=   0.0000000   0.0000000   0.0000000   0.0000000   0.0000000   0.0000000   0.0000000   0.0000000   0.0000000   0.0000000
 NQMom=    0.0000000   0.0000000   0.0000000   0.0000000   0.0000000   0.0000000   0.0000000   0.0000000   0.0000000   0.0000000
 NMagM=    0.0000000   2.7928460   2.7928460   0.0000000   2.7928460   2.7928460   0.0000000   2.7928460   0.0000000   2.7928460
 AtZNuc=   6.0000000   1.0000000   1.0000000   6.0000000   1.0000000   1.0000000   6.0000000   1.0000000   6.0000000   1.0000000

  Atom        71          72          73          74          75          76
 IAtWgt=           1           1          12           1           1           1
 AtmWgt=   1.0078250   1.0078250  12.0000000   1.0078250   1.0078250   1.0078250
 NucSpn=           1           1           0           1           1           1
 AtZEff=   0.0000000   0.0000000   0.0000000   0.0000000   0.0000000   0.0000000
 NQMom=    0.0000000   0.0000000   0.0000000   0.0000000   0.0000000   0.0000000
 NMagM=    2.7928460   2.7928460   0.0000000   2.7928460   2.7928460   2.7928460
 AtZNuc=   1.0000000   1.0000000   6.0000000   1.0000000   1.0000000   1.0000000
 Leave Link  101 at Wed Apr 26 13:51:12 2017, MaxMem=    33554432 cpu:         1.4
 (Enter /home/michal/g09/l202.exe)
 Symmetry turned off by external request.
 Stoichiometry    C27H46O3
 Framework group  C1[X(C27H46O3)]
 Deg. of freedom   222
 Full point group                 C1      NOp   1
                          Input orientation:                          
 ---------------------------------------------------------------------
 Center     Atomic      Atomic             Coordinates (Angstroms)
 Number     Number       Type             X           Y           Z
 ---------------------------------------------------------------------
      1          6           0        7.515866    2.151170   -0.055464
      2          1           0        7.414104    2.068635    1.033604
      3          6           0        6.762698    0.984843   -0.714758
      4          1           0        7.153591    0.034256   -0.338739
      5          1           0        6.983131    1.011572   -1.793548
      6          6           0        5.263896    1.062389   -0.489391
      7          6           0        4.580970    2.387729   -0.849673
      8          6           0        5.416976    3.548941   -0.227757
      9          1           0        5.269157    3.532257    0.860641
     10          1           0        5.022925    4.508316   -0.580031
     11          6           0        6.925518    3.485102   -0.512478
     12          1           0        7.120312    3.614327   -1.587428
     13          1           0        7.438906    4.306543    0.000000
     14          6           0        4.605920    0.000000    0.000000
     15          1           0        5.163074   -0.905367    0.233702
     16          6           0        3.128276   -0.044719    0.262745
     17          1           0        2.716525   -1.010060   -0.057937
     18          6           0        2.367996    1.100349   -0.430664
     19          1           0        2.353164    0.826286   -1.494802
     20          6           0        3.128925    2.442326   -0.256047
     21          1           0        3.249346    2.576229    0.829038
     22          6           0        2.304906    3.648929   -0.768363
     23          1           0        2.288705    3.652979   -1.862911
     24          1           0        2.800852    4.580322   -0.471723
     25          6           0        0.847954    3.686105   -0.263013
     26          1           0        0.838479    3.845692    0.824431
     27          1           0        0.346105    4.551270   -0.711301
     28          6           0        0.102543    2.375248   -0.580680
     29          6           0        0.923439    1.227328    0.075176
     30          1           0        0.996447    1.494123    1.137962
     31          6           0        0.000000    0.000000    0.000000
     32          1           0        0.239749   -0.737734    0.770830
     33          1           0        0.096923   -0.504120   -0.970113
     34          6           0       -1.423827    0.601693    0.174070
     35          1           0       -2.086578    0.269006   -0.631236
     36          1           0       -1.891342    0.276031    1.109598
     37          6           0       -1.257890    2.154566    0.166521
     38          1           0       -1.045751    2.446576    1.206093
     39          6           0       -0.039261    2.195876   -2.109576
     40          1           0        0.926505    2.045687   -2.599422
     41          1           0       -0.667186    1.339381   -2.368583
     42          1           0       -0.491133    3.083659   -2.561874
     43          6           0       -2.574991    2.912544   -0.174255
     44          1           0       -3.294599    2.487499    0.541842
     45          6           0       -3.177241    2.675362   -1.573213
     46          1           0       -2.658237    3.248694   -2.347468
     47          1           0       -4.227600    2.983625   -1.592111
     48          1           0       -3.150934    1.621206   -1.863907
     49          6           0        4.571431    2.523440   -2.397210
     50          1           0        4.277650    3.530893   -2.706341
     51          1           0        5.557741    2.331073   -2.826099
     52          1           0        3.878344    1.809729   -2.853238
     53          8           0        2.848026    0.068962    1.685444
     54          8           0        3.341348   -1.138988    2.329788
     55          1           0        4.113870   -0.791707    2.805751
     56          8           0        8.925274    2.067162   -0.281469
     57          1           0        9.093405    2.159639   -1.229806
     58          6           0       -2.473928    4.424299    0.135520
     59          1           0       -1.959754    4.554195    1.098246
     60          1           0       -1.832807    4.898414   -0.618635
     61          6           0       -3.803719    5.204175    0.188996
     62          1           0       -3.556234    6.264639    0.324142
     63          1           0       -4.312521    5.136926   -0.780284
     64          6           0       -4.752723    4.757731    1.313476
     65          1           0       -4.195787    4.757844    2.262166
     66          1           0       -5.058444    3.716953    1.142677
     67          6           0       -6.034937    5.602947    1.504125
     68          1           0       -6.587322    5.128871    2.328965
     69          6           0       -5.737492    7.048610    1.935958
     70          1           0       -5.241578    7.616663    1.140508
     71          1           0       -6.664167    7.578300    2.184912
     72          1           0       -5.089863    7.075418    2.820220
     73          6           0       -6.952567    5.572575    0.270529
     74          1           0       -6.496644    6.084235   -0.584940
     75          1           0       -7.904916    6.072718    0.480555
     76          1           0       -7.176500    4.543716   -0.035174
 ---------------------------------------------------------------------
 Rotational constants (GHZ):      0.3285034      0.0567267      0.0530935
 Leave Link  202 at Wed Apr 26 13:51:12 2017, MaxMem=    33554432 cpu:         0.0
 (Enter /home/michal/g09/l301.exe)
 Standard basis: 6-31G(d) (6D, 7F)
 Ernie: Thresh=  0.10000D-02 Tol=  0.10000D-05 Strict=F.
 AO basis set in the form of general basis input (Overlap normalization):
      1 0
 S   6 1.00       0.000000000000
      0.3047524880D+04  0.1834737132D-02
      0.4573695180D+03  0.1403732281D-01
      0.1039486850D+03  0.6884262226D-01
      0.2921015530D+02  0.2321844432D+00
      0.9286662960D+01  0.4679413484D+00
      0.3163926960D+01  0.3623119853D+00
 SP   3 1.00       0.000000000000
      0.7868272350D+01 -0.1193324198D+00  0.6899906659D-01
      0.1881288540D+01 -0.1608541517D+00  0.3164239610D+00
      0.5442492580D+00  0.1143456438D+01  0.7443082909D+00
 SP   1 1.00       0.000000000000
      0.1687144782D+00  0.1000000000D+01  0.1000000000D+01
 D   1 1.00       0.000000000000
      0.8000000000D+00  0.1000000000D+01
 ****
      2 0
 S   3 1.00       0.000000000000
      0.1873113696D+02  0.3349460434D-01
      0.2825394365D+01  0.2347269535D+00
      0.6401216923D+00  0.8137573261D+00
 S   1 1.00       0.000000000000
      0.1612777588D+00  0.1000000000D+01
 ****
      3 0
 S   6 1.00       0.000000000000
      0.3047524880D+04  0.1834737132D-02
      0.4573695180D+03  0.1403732281D-01
      0.1039486850D+03  0.6884262226D-01
      0.2921015530D+02  0.2321844432D+00
      0.9286662960D+01  0.4679413484D+00
      0.3163926960D+01  0.3623119853D+00
 SP   3 1.00       0.000000000000
      0.7868272350D+01 -0.1193324198D+00  0.6899906659D-01
      0.1881288540D+01 -0.1608541517D+00  0.3164239610D+00
      0.5442492580D+00  0.1143456438D+01  0.7443082909D+00
 SP   1 1.00       0.000000000000
      0.1687144782D+00  0.1000000000D+01  0.1000000000D+01
 D   1 1.00       0.000000000000
      0.8000000000D+00  0.1000000000D+01
 ****
      4 0
 S   3 1.00       0.000000000000
      0.1873113696D+02  0.3349460434D-01
      0.2825394365D+01  0.2347269535D+00
      0.6401216923D+00  0.8137573261D+00
 S   1 1.00       0.000000000000
      0.1612777588D+00  0.1000000000D+01
 ****
      5 0
 S   3 1.00       0.000000000000
      0.1873113696D+02  0.3349460434D-01
      0.2825394365D+01  0.2347269535D+00
      0.6401216923D+00  0.8137573261D+00
 S   1 1.00       0.000000000000
      0.1612777588D+00  0.1000000000D+01
 ****
      6 0
 S   6 1.00       0.000000000000
      0.3047524880D+04  0.1834737132D-02
      0.4573695180D+03  0.1403732281D-01
      0.1039486850D+03  0.6884262226D-01
      0.2921015530D+02  0.2321844432D+00
      0.9286662960D+01  0.4679413484D+00
      0.3163926960D+01  0.3623119853D+00
 SP   3 1.00       0.000000000000
      0.7868272350D+01 -0.1193324198D+00  0.6899906659D-01
      0.1881288540D+01 -0.1608541517D+00  0.3164239610D+00
      0.5442492580D+00  0.1143456438D+01  0.7443082909D+00
 SP   1 1.00       0.000000000000
      0.1687144782D+00  0.1000000000D+01  0.1000000000D+01
 D   1 1.00       0.000000000000
      0.8000000000D+00  0.1000000000D+01
 ****
      7 0
 S   6 1.00       0.000000000000
      0.3047524880D+04  0.1834737132D-02
      0.4573695180D+03  0.1403732281D-01
      0.1039486850D+03  0.6884262226D-01
      0.2921015530D+02  0.2321844432D+00
      0.9286662960D+01  0.4679413484D+00
      0.3163926960D+01  0.3623119853D+00
 SP   3 1.00       0.000000000000
      0.7868272350D+01 -0.1193324198D+00  0.6899906659D-01
      0.1881288540D+01 -0.1608541517D+00  0.3164239610D+00
      0.5442492580D+00  0.1143456438D+01  0.7443082909D+00
 SP   1 1.00       0.000000000000
      0.1687144782D+00  0.1000000000D+01  0.1000000000D+01
 D   1 1.00       0.000000000000
      0.8000000000D+00  0.1000000000D+01
 ****
      8 0
 S   6 1.00       0.000000000000
      0.3047524880D+04  0.1834737132D-02
      0.4573695180D+03  0.1403732281D-01
      0.1039486850D+03  0.6884262226D-01
      0.2921015530D+02  0.2321844432D+00
      0.9286662960D+01  0.4679413484D+00
      0.3163926960D+01  0.3623119853D+00
 SP   3 1.00       0.000000000000
      0.7868272350D+01 -0.1193324198D+00  0.6899906659D-01
      0.1881288540D+01 -0.1608541517D+00  0.3164239610D+00
      0.5442492580D+00  0.1143456438D+01  0.7443082909D+00
 SP   1 1.00       0.000000000000
      0.1687144782D+00  0.1000000000D+01  0.1000000000D+01
 D   1 1.00       0.000000000000
      0.8000000000D+00  0.1000000000D+01
 ****
      9 0
 S   3 1.00       0.000000000000
      0.1873113696D+02  0.3349460434D-01
      0.2825394365D+01  0.2347269535D+00
      0.6401216923D+00  0.8137573261D+00
 S   1 1.00       0.000000000000
      0.1612777588D+00  0.1000000000D+01
 ****
     10 0
 S   3 1.00       0.000000000000
      0.1873113696D+02  0.3349460434D-01
      0.2825394365D+01  0.2347269535D+00
      0.6401216923D+00  0.8137573261D+00
 S   1 1.00       0.000000000000
      0.1612777588D+00  0.1000000000D+01
 ****
     11 0
 S   6 1.00       0.000000000000
      0.3047524880D+04  0.1834737132D-02
      0.4573695180D+03  0.1403732281D-01
      0.1039486850D+03  0.6884262226D-01
      0.2921015530D+02  0.2321844432D+00
      0.9286662960D+01  0.4679413484D+00
      0.3163926960D+01  0.3623119853D+00
 SP   3 1.00       0.000000000000
      0.7868272350D+01 -0.1193324198D+00  0.6899906659D-01
      0.1881288540D+01 -0.1608541517D+00  0.3164239610D+00
      0.5442492580D+00  0.1143456438D+01  0.7443082909D+00
 SP   1 1.00       0.000000000000
      0.1687144782D+00  0.1000000000D+01  0.1000000000D+01
 D   1 1.00       0.000000000000
      0.8000000000D+00  0.1000000000D+01
 ****
     12 0
 S   3 1.00       0.000000000000
      0.1873113696D+02  0.3349460434D-01
      0.2825394365D+01  0.2347269535D+00
      0.6401216923D+00  0.8137573261D+00
 S   1 1.00       0.000000000000
      0.1612777588D+00  0.1000000000D+01
 ****
     13 0
 S   3 1.00       0.000000000000
      0.1873113696D+02  0.3349460434D-01
      0.2825394365D+01  0.2347269535D+00
      0.6401216923D+00  0.8137573261D+00
 S   1 1.00       0.000000000000
      0.1612777588D+00  0.1000000000D+01
 ****
     14 0
 S   6 1.00       0.000000000000
      0.3047524880D+04  0.1834737132D-02
      0.4573695180D+03  0.1403732281D-01
      0.1039486850D+03  0.6884262226D-01
      0.2921015530D+02  0.2321844432D+00
      0.9286662960D+01  0.4679413484D+00
      0.3163926960D+01  0.3623119853D+00
 SP   3 1.00       0.000000000000
      0.7868272350D+01 -0.1193324198D+00  0.6899906659D-01
      0.1881288540D+01 -0.1608541517D+00  0.3164239610D+00
      0.5442492580D+00  0.1143456438D+01  0.7443082909D+00
 SP   1 1.00       0.000000000000
      0.1687144782D+00  0.1000000000D+01  0.1000000000D+01
 D   1 1.00       0.000000000000
      0.8000000000D+00  0.1000000000D+01
 ****
     15 0
 S   3 1.00       0.000000000000
      0.1873113696D+02  0.3349460434D-01
      0.2825394365D+01  0.2347269535D+00
      0.6401216923D+00  0.8137573261D+00
 S   1 1.00       0.000000000000
      0.1612777588D+00  0.1000000000D+01
 ****
     16 0
 S   6 1.00       0.000000000000
      0.3047524880D+04  0.1834737132D-02
      0.4573695180D+03  0.1403732281D-01
      0.1039486850D+03  0.6884262226D-01
      0.2921015530D+02  0.2321844432D+00
      0.9286662960D+01  0.4679413484D+00
      0.3163926960D+01  0.3623119853D+00
 SP   3 1.00       0.000000000000
      0.7868272350D+01 -0.1193324198D+00  0.6899906659D-01
      0.1881288540D+01 -0.1608541517D+00  0.3164239610D+00
      0.5442492580D+00  0.1143456438D+01  0.7443082909D+00
 SP   1 1.00       0.000000000000
      0.1687144782D+00  0.1000000000D+01  0.1000000000D+01
 D   1 1.00       0.000000000000
      0.8000000000D+00  0.1000000000D+01
 ****
     17 0
 S   3 1.00       0.000000000000
      0.1873113696D+02  0.3349460434D-01
      0.2825394365D+01  0.2347269535D+00
      0.6401216923D+00  0.8137573261D+00
 S   1 1.00       0.000000000000
      0.1612777588D+00  0.1000000000D+01
 ****
     18 0
 S   6 1.00       0.000000000000
      0.3047524880D+04  0.1834737132D-02
      0.4573695180D+03  0.1403732281D-01
      0.1039486850D+03  0.6884262226D-01
      0.2921015530D+02  0.2321844432D+00
      0.9286662960D+01  0.4679413484D+00
      0.3163926960D+01  0.3623119853D+00
 SP   3 1.00       0.000000000000
      0.7868272350D+01 -0.1193324198D+00  0.6899906659D-01
      0.1881288540D+01 -0.1608541517D+00  0.3164239610D+00
      0.5442492580D+00  0.1143456438D+01  0.7443082909D+00
 SP   1 1.00       0.000000000000
      0.1687144782D+00  0.1000000000D+01  0.1000000000D+01
 D   1 1.00       0.000000000000
      0.8000000000D+00  0.1000000000D+01
 ****
     19 0
 S   3 1.00       0.000000000000
      0.1873113696D+02  0.3349460434D-01
      0.2825394365D+01  0.2347269535D+00
      0.6401216923D+00  0.8137573261D+00
 S   1 1.00       0.000000000000
      0.1612777588D+00  0.1000000000D+01
 ****
     20 0
 S   6 1.00       0.000000000000
      0.3047524880D+04  0.1834737132D-02
      0.4573695180D+03  0.1403732281D-01
      0.1039486850D+03  0.6884262226D-01
      0.2921015530D+02  0.2321844432D+00
      0.9286662960D+01  0.4679413484D+00
      0.3163926960D+01  0.3623119853D+00
 SP   3 1.00       0.000000000000
      0.7868272350D+01 -0.1193324198D+00  0.6899906659D-01
      0.1881288540D+01 -0.1608541517D+00  0.3164239610D+00
      0.5442492580D+00  0.1143456438D+01  0.7443082909D+00
 SP   1 1.00       0.000000000000
      0.1687144782D+00  0.1000000000D+01  0.1000000000D+01
 D   1 1.00       0.000000000000
      0.8000000000D+00  0.1000000000D+01
 ****
     21 0
 S   3 1.00       0.000000000000
      0.1873113696D+02  0.3349460434D-01
      0.2825394365D+01  0.2347269535D+00
      0.6401216923D+00  0.8137573261D+00
 S   1 1.00       0.000000000000
      0.1612777588D+00  0.1000000000D+01
 ****
     22 0
 S   6 1.00       0.000000000000
      0.3047524880D+04  0.1834737132D-02
      0.4573695180D+03  0.1403732281D-01
      0.1039486850D+03  0.6884262226D-01
      0.2921015530D+02  0.2321844432D+00
      0.9286662960D+01  0.4679413484D+00
      0.3163926960D+01  0.3623119853D+00
 SP   3 1.00       0.000000000000
      0.7868272350D+01 -0.1193324198D+00  0.6899906659D-01
      0.1881288540D+01 -0.1608541517D+00  0.3164239610D+00
      0.5442492580D+00  0.1143456438D+01  0.7443082909D+00
 SP   1 1.00       0.000000000000
      0.1687144782D+00  0.1000000000D+01  0.1000000000D+01
 D   1 1.00       0.000000000000
      0.8000000000D+00  0.1000000000D+01
 ****
     23 0
 S   3 1.00       0.000000000000
      0.1873113696D+02  0.3349460434D-01
      0.2825394365D+01  0.2347269535D+00
      0.6401216923D+00  0.8137573261D+00
 S   1 1.00       0.000000000000
      0.1612777588D+00  0.1000000000D+01
 ****
     24 0
 S   3 1.00       0.000000000000
      0.1873113696D+02  0.3349460434D-01
      0.2825394365D+01  0.2347269535D+00
      0.6401216923D+00  0.8137573261D+00
 S   1 1.00       0.000000000000
      0.1612777588D+00  0.1000000000D+01
 ****
     25 0
 S   6 1.00       0.000000000000
      0.3047524880D+04  0.1834737132D-02
      0.4573695180D+03  0.1403732281D-01
      0.1039486850D+03  0.6884262226D-01
      0.2921015530D+02  0.2321844432D+00
      0.9286662960D+01  0.4679413484D+00
      0.3163926960D+01  0.3623119853D+00
 SP   3 1.00       0.000000000000
      0.7868272350D+01 -0.1193324198D+00  0.6899906659D-01
      0.1881288540D+01 -0.1608541517D+00  0.3164239610D+00
      0.5442492580D+00  0.1143456438D+01  0.7443082909D+00
 SP   1 1.00       0.000000000000
      0.1687144782D+00  0.1000000000D+01  0.1000000000D+01
 D   1 1.00       0.000000000000
      0.8000000000D+00  0.1000000000D+01
 ****
     26 0
 S   3 1.00       0.000000000000
      0.1873113696D+02  0.3349460434D-01
      0.2825394365D+01  0.2347269535D+00
      0.6401216923D+00  0.8137573261D+00
 S   1 1.00       0.000000000000
      0.1612777588D+00  0.1000000000D+01
 ****
     27 0
 S   3 1.00       0.000000000000
      0.1873113696D+02  0.3349460434D-01
      0.2825394365D+01  0.2347269535D+00
      0.6401216923D+00  0.8137573261D+00
 S   1 1.00       0.000000000000
      0.1612777588D+00  0.1000000000D+01
 ****
     28 0
 S   6 1.00       0.000000000000
      0.3047524880D+04  0.1834737132D-02
      0.4573695180D+03  0.1403732281D-01
      0.1039486850D+03  0.6884262226D-01
      0.2921015530D+02  0.2321844432D+00
      0.9286662960D+01  0.4679413484D+00
      0.3163926960D+01  0.3623119853D+00
 SP   3 1.00       0.000000000000
      0.7868272350D+01 -0.1193324198D+00  0.6899906659D-01
      0.1881288540D+01 -0.1608541517D+00  0.3164239610D+00
      0.5442492580D+00  0.1143456438D+01  0.7443082909D+00
 SP   1 1.00       0.000000000000
      0.1687144782D+00  0.1000000000D+01  0.1000000000D+01
 D   1 1.00       0.000000000000
      0.8000000000D+00  0.1000000000D+01
 ****
     29 0
 S   6 1.00       0.000000000000
      0.3047524880D+04  0.1834737132D-02
      0.4573695180D+03  0.1403732281D-01
      0.1039486850D+03  0.6884262226D-01
      0.2921015530D+02  0.2321844432D+00
      0.9286662960D+01  0.4679413484D+00
      0.3163926960D+01  0.3623119853D+00
 SP   3 1.00       0.000000000000
      0.7868272350D+01 -0.1193324198D+00  0.6899906659D-01
      0.1881288540D+01 -0.1608541517D+00  0.3164239610D+00
      0.5442492580D+00  0.1143456438D+01  0.7443082909D+00
 SP   1 1.00       0.000000000000
      0.1687144782D+00  0.1000000000D+01  0.1000000000D+01
 D   1 1.00       0.000000000000
      0.8000000000D+00  0.1000000000D+01
 ****
     30 0
 S   3 1.00       0.000000000000
      0.1873113696D+02  0.3349460434D-01
      0.2825394365D+01  0.2347269535D+00
      0.6401216923D+00  0.8137573261D+00
 S   1 1.00       0.000000000000
      0.1612777588D+00  0.1000000000D+01
 ****
     31 0
 S   6 1.00       0.000000000000
      0.3047524880D+04  0.1834737132D-02
      0.4573695180D+03  0.1403732281D-01
      0.1039486850D+03  0.6884262226D-01
      0.2921015530D+02  0.2321844432D+00
      0.9286662960D+01  0.4679413484D+00
      0.3163926960D+01  0.3623119853D+00
 SP   3 1.00       0.000000000000
      0.7868272350D+01 -0.1193324198D+00  0.6899906659D-01
      0.1881288540D+01 -0.1608541517D+00  0.3164239610D+00
      0.5442492580D+00  0.1143456438D+01  0.7443082909D+00
 SP   1 1.00       0.000000000000
      0.1687144782D+00  0.1000000000D+01  0.1000000000D+01
 D   1 1.00       0.000000000000
      0.8000000000D+00  0.1000000000D+01
 ****
     32 0
 S   3 1.00       0.000000000000
      0.1873113696D+02  0.3349460434D-01
      0.2825394365D+01  0.2347269535D+00
      0.6401216923D+00  0.8137573261D+00
 S   1 1.00       0.000000000000
      0.1612777588D+00  0.1000000000D+01
 ****
     33 0
 S   3 1.00       0.000000000000
      0.1873113696D+02  0.3349460434D-01
      0.2825394365D+01  0.2347269535D+00
      0.6401216923D+00  0.8137573261D+00
 S   1 1.00       0.000000000000
      0.1612777588D+00  0.1000000000D+01
 ****
     34 0
 S   6 1.00       0.000000000000
      0.3047524880D+04  0.1834737132D-02
      0.4573695180D+03  0.1403732281D-01
      0.1039486850D+03  0.6884262226D-01
      0.2921015530D+02  0.2321844432D+00
      0.9286662960D+01  0.4679413484D+00
      0.3163926960D+01  0.3623119853D+00
 SP   3 1.00       0.000000000000
      0.7868272350D+01 -0.1193324198D+00  0.6899906659D-01
      0.1881288540D+01 -0.1608541517D+00  0.3164239610D+00
      0.5442492580D+00  0.1143456438D+01  0.7443082909D+00
 SP   1 1.00       0.000000000000
      0.1687144782D+00  0.1000000000D+01  0.1000000000D+01
 D   1 1.00       0.000000000000
      0.8000000000D+00  0.1000000000D+01
 ****
     35 0
 S   3 1.00       0.000000000000
      0.1873113696D+02  0.3349460434D-01
      0.2825394365D+01  0.2347269535D+00
      0.6401216923D+00  0.8137573261D+00
 S   1 1.00       0.000000000000
      0.1612777588D+00  0.1000000000D+01
 ****
     36 0
 S   3 1.00       0.000000000000
      0.1873113696D+02  0.3349460434D-01
      0.2825394365D+01  0.2347269535D+00
      0.6401216923D+00  0.8137573261D+00
 S   1 1.00       0.000000000000
      0.1612777588D+00  0.1000000000D+01
 ****
     37 0
 S   6 1.00       0.000000000000
      0.3047524880D+04  0.1834737132D-02
      0.4573695180D+03  0.1403732281D-01
      0.1039486850D+03  0.6884262226D-01
      0.2921015530D+02  0.2321844432D+00
      0.9286662960D+01  0.4679413484D+00
      0.3163926960D+01  0.3623119853D+00
 SP   3 1.00       0.000000000000
      0.7868272350D+01 -0.1193324198D+00  0.6899906659D-01
      0.1881288540D+01 -0.1608541517D+00  0.3164239610D+00
      0.5442492580D+00  0.1143456438D+01  0.7443082909D+00
 SP   1 1.00       0.000000000000
      0.1687144782D+00  0.1000000000D+01  0.1000000000D+01
 D   1 1.00       0.000000000000
      0.8000000000D+00  0.1000000000D+01
 ****
     38 0
 S   3 1.00       0.000000000000
      0.1873113696D+02  0.3349460434D-01
      0.2825394365D+01  0.2347269535D+00
      0.6401216923D+00  0.8137573261D+00
 S   1 1.00       0.000000000000
      0.1612777588D+00  0.1000000000D+01
 ****
     39 0
 S   6 1.00       0.000000000000
      0.3047524880D+04  0.1834737132D-02
      0.4573695180D+03  0.1403732281D-01
      0.1039486850D+03  0.6884262226D-01
      0.2921015530D+02  0.2321844432D+00
      0.9286662960D+01  0.4679413484D+00
      0.3163926960D+01  0.3623119853D+00
 SP   3 1.00       0.000000000000
      0.7868272350D+01 -0.1193324198D+00  0.6899906659D-01
      0.1881288540D+01 -0.1608541517D+00  0.3164239610D+00
      0.5442492580D+00  0.1143456438D+01  0.7443082909D+00
 SP   1 1.00       0.000000000000
      0.1687144782D+00  0.1000000000D+01  0.1000000000D+01
 D   1 1.00       0.000000000000
      0.8000000000D+00  0.1000000000D+01
 ****
     40 0
 S   3 1.00       0.000000000000
      0.1873113696D+02  0.3349460434D-01
      0.2825394365D+01  0.2347269535D+00
      0.6401216923D+00  0.8137573261D+00
 S   1 1.00       0.000000000000
      0.1612777588D+00  0.1000000000D+01
 ****
     41 0
 S   3 1.00       0.000000000000
      0.1873113696D+02  0.3349460434D-01
      0.2825394365D+01  0.2347269535D+00
      0.6401216923D+00  0.8137573261D+00
 S   1 1.00       0.000000000000
      0.1612777588D+00  0.1000000000D+01
 ****
     42 0
 S   3 1.00       0.000000000000
      0.1873113696D+02  0.3349460434D-01
      0.2825394365D+01  0.2347269535D+00
      0.6401216923D+00  0.8137573261D+00
 S   1 1.00       0.000000000000
      0.1612777588D+00  0.1000000000D+01
 ****
     43 0
 S   6 1.00       0.000000000000
      0.3047524880D+04  0.1834737132D-02
      0.4573695180D+03  0.1403732281D-01
      0.1039486850D+03  0.6884262226D-01
      0.2921015530D+02  0.2321844432D+00
      0.9286662960D+01  0.4679413484D+00
      0.3163926960D+01  0.3623119853D+00
 SP   3 1.00       0.000000000000
      0.7868272350D+01 -0.1193324198D+00  0.6899906659D-01
      0.1881288540D+01 -0.1608541517D+00  0.3164239610D+00
      0.5442492580D+00  0.1143456438D+01  0.7443082909D+00
 SP   1 1.00       0.000000000000
      0.1687144782D+00  0.1000000000D+01  0.1000000000D+01
 D   1 1.00       0.000000000000
      0.8000000000D+00  0.1000000000D+01
 ****
     44 0
 S   3 1.00       0.000000000000
      0.1873113696D+02  0.3349460434D-01
      0.2825394365D+01  0.2347269535D+00
      0.6401216923D+00  0.8137573261D+00
 S   1 1.00       0.000000000000
      0.1612777588D+00  0.1000000000D+01
 ****
     45 0
 S   6 1.00       0.000000000000
      0.3047524880D+04  0.1834737132D-02
      0.4573695180D+03  0.1403732281D-01
      0.1039486850D+03  0.6884262226D-01
      0.2921015530D+02  0.2321844432D+00
      0.9286662960D+01  0.4679413484D+00
      0.3163926960D+01  0.3623119853D+00
 SP   3 1.00       0.000000000000
      0.7868272350D+01 -0.1193324198D+00  0.6899906659D-01
      0.1881288540D+01 -0.1608541517D+00  0.3164239610D+00
      0.5442492580D+00  0.1143456438D+01  0.7443082909D+00
 SP   1 1.00       0.000000000000
      0.1687144782D+00  0.1000000000D+01  0.1000000000D+01
 D   1 1.00       0.000000000000
      0.8000000000D+00  0.1000000000D+01
 ****
     46 0
 S   3 1.00       0.000000000000
      0.1873113696D+02  0.3349460434D-01
      0.2825394365D+01  0.2347269535D+00
      0.6401216923D+00  0.8137573261D+00
 S   1 1.00       0.000000000000
      0.1612777588D+00  0.1000000000D+01
 ****
     47 0
 S   3 1.00       0.000000000000
      0.1873113696D+02  0.3349460434D-01
      0.2825394365D+01  0.2347269535D+00
      0.6401216923D+00  0.8137573261D+00
 S   1 1.00       0.000000000000
      0.1612777588D+00  0.1000000000D+01
 ****
     48 0
 S   3 1.00       0.000000000000
      0.1873113696D+02  0.3349460434D-01
      0.2825394365D+01  0.2347269535D+00
      0.6401216923D+00  0.8137573261D+00
 S   1 1.00       0.000000000000
      0.1612777588D+00  0.1000000000D+01
 ****
     49 0
 S   6 1.00       0.000000000000
      0.3047524880D+04  0.1834737132D-02
      0.4573695180D+03  0.1403732281D-01
      0.1039486850D+03  0.6884262226D-01
      0.2921015530D+02  0.2321844432D+00
      0.9286662960D+01  0.4679413484D+00
      0.3163926960D+01  0.3623119853D+00
 SP   3 1.00       0.000000000000
      0.7868272350D+01 -0.1193324198D+00  0.6899906659D-01
      0.1881288540D+01 -0.1608541517D+00  0.3164239610D+00
      0.5442492580D+00  0.1143456438D+01  0.7443082909D+00
 SP   1 1.00       0.000000000000
      0.1687144782D+00  0.1000000000D+01  0.1000000000D+01
 D   1 1.00       0.000000000000
      0.8000000000D+00  0.1000000000D+01
 ****
     50 0
 S   3 1.00       0.000000000000
      0.1873113696D+02  0.3349460434D-01
      0.2825394365D+01  0.2347269535D+00
      0.6401216923D+00  0.8137573261D+00
 S   1 1.00       0.000000000000
      0.1612777588D+00  0.1000000000D+01
 ****
     51 0
 S   3 1.00       0.000000000000
      0.1873113696D+02  0.3349460434D-01
      0.2825394365D+01  0.2347269535D+00
      0.6401216923D+00  0.8137573261D+00
 S   1 1.00       0.000000000000
      0.1612777588D+00  0.1000000000D+01
 ****
     52 0
 S   3 1.00       0.000000000000
      0.1873113696D+02  0.3349460434D-01
      0.2825394365D+01  0.2347269535D+00
      0.6401216923D+00  0.8137573261D+00
 S   1 1.00       0.000000000000
      0.1612777588D+00  0.1000000000D+01
 ****
     53 0
 S   6 1.00       0.000000000000
      0.5484671660D+04  0.1831074430D-02
      0.8252349460D+03  0.1395017220D-01
      0.1880469580D+03  0.6844507810D-01
      0.5296450000D+02  0.2327143360D+00
      0.1689757040D+02  0.4701928980D+00
      0.5799635340D+01  0.3585208530D+00
 SP   3 1.00       0.000000000000
      0.1553961625D+02 -0.1107775495D+00  0.7087426823D-01
      0.3599933586D+01 -0.1480262627D+00  0.3397528391D+00
      0.1013761750D+01  0.1130767015D+01  0.7271585773D+00
 SP   1 1.00       0.000000000000
      0.2700058226D+00  0.1000000000D+01  0.1000000000D+01
 D   1 1.00       0.000000000000
      0.8000000000D+00  0.1000000000D+01
 ****
     54 0
 S   6 1.00       0.000000000000
      0.5484671660D+04  0.1831074430D-02
      0.8252349460D+03  0.1395017220D-01
      0.1880469580D+03  0.6844507810D-01
      0.5296450000D+02  0.2327143360D+00
      0.1689757040D+02  0.4701928980D+00
      0.5799635340D+01  0.3585208530D+00
 SP   3 1.00       0.000000000000
      0.1553961625D+02 -0.1107775495D+00  0.7087426823D-01
      0.3599933586D+01 -0.1480262627D+00  0.3397528391D+00
      0.1013761750D+01  0.1130767015D+01  0.7271585773D+00
 SP   1 1.00       0.000000000000
      0.2700058226D+00  0.1000000000D+01  0.1000000000D+01
 D   1 1.00       0.000000000000
      0.8000000000D+00  0.1000000000D+01
 ****
     55 0
 S   3 1.00       0.000000000000
      0.1873113696D+02  0.3349460434D-01
      0.2825394365D+01  0.2347269535D+00
      0.6401216923D+00  0.8137573261D+00
 S   1 1.00       0.000000000000
      0.1612777588D+00  0.1000000000D+01
 ****
     56 0
 S   6 1.00       0.000000000000
      0.5484671660D+04  0.1831074430D-02
      0.8252349460D+03  0.1395017220D-01
      0.1880469580D+03  0.6844507810D-01
      0.5296450000D+02  0.2327143360D+00
      0.1689757040D+02  0.4701928980D+00
      0.5799635340D+01  0.3585208530D+00
 SP   3 1.00       0.000000000000
      0.1553961625D+02 -0.1107775495D+00  0.7087426823D-01
      0.3599933586D+01 -0.1480262627D+00  0.3397528391D+00
      0.1013761750D+01  0.1130767015D+01  0.7271585773D+00
 SP   1 1.00       0.000000000000
      0.2700058226D+00  0.1000000000D+01  0.1000000000D+01
 D   1 1.00       0.000000000000
      0.8000000000D+00  0.1000000000D+01
 ****
     57 0
 S   3 1.00       0.000000000000
      0.1873113696D+02  0.3349460434D-01
      0.2825394365D+01  0.2347269535D+00
      0.6401216923D+00  0.8137573261D+00
 S   1 1.00       0.000000000000
      0.1612777588D+00  0.1000000000D+01
 ****
     58 0
 S   6 1.00       0.000000000000
      0.3047524880D+04  0.1834737132D-02
      0.4573695180D+03  0.1403732281D-01
      0.1039486850D+03  0.6884262226D-01
      0.2921015530D+02  0.2321844432D+00
      0.9286662960D+01  0.4679413484D+00
      0.3163926960D+01  0.3623119853D+00
 SP   3 1.00       0.000000000000
      0.7868272350D+01 -0.1193324198D+00  0.6899906659D-01
      0.1881288540D+01 -0.1608541517D+00  0.3164239610D+00
      0.5442492580D+00  0.1143456438D+01  0.7443082909D+00
 SP   1 1.00       0.000000000000
      0.1687144782D+00  0.1000000000D+01  0.1000000000D+01
 D   1 1.00       0.000000000000
      0.8000000000D+00  0.1000000000D+01
 ****
     59 0
 S   3 1.00       0.000000000000
      0.1873113696D+02  0.3349460434D-01
      0.2825394365D+01  0.2347269535D+00
      0.6401216923D+00  0.8137573261D+00
 S   1 1.00       0.000000000000
      0.1612777588D+00  0.1000000000D+01
 ****
     60 0
 S   3 1.00       0.000000000000
      0.1873113696D+02  0.3349460434D-01
      0.2825394365D+01  0.2347269535D+00
      0.6401216923D+00  0.8137573261D+00
 S   1 1.00       0.000000000000
      0.1612777588D+00  0.1000000000D+01
 ****
     61 0
 S   6 1.00       0.000000000000
      0.3047524880D+04  0.1834737132D-02
      0.4573695180D+03  0.1403732281D-01
      0.1039486850D+03  0.6884262226D-01
      0.2921015530D+02  0.2321844432D+00
      0.9286662960D+01  0.4679413484D+00
      0.3163926960D+01  0.3623119853D+00
 SP   3 1.00       0.000000000000
      0.7868272350D+01 -0.1193324198D+00  0.6899906659D-01
      0.1881288540D+01 -0.1608541517D+00  0.3164239610D+00
      0.5442492580D+00  0.1143456438D+01  0.7443082909D+00
 SP   1 1.00       0.000000000000
      0.1687144782D+00  0.1000000000D+01  0.1000000000D+01
 D   1 1.00       0.000000000000
      0.8000000000D+00  0.1000000000D+01
 ****
     62 0
 S   3 1.00       0.000000000000
      0.1873113696D+02  0.3349460434D-01
      0.2825394365D+01  0.2347269535D+00
      0.6401216923D+00  0.8137573261D+00
 S   1 1.00       0.000000000000
      0.1612777588D+00  0.1000000000D+01
 ****
     63 0
 S   3 1.00       0.000000000000
      0.1873113696D+02  0.3349460434D-01
      0.2825394365D+01  0.2347269535D+00
      0.6401216923D+00  0.8137573261D+00
 S   1 1.00       0.000000000000
      0.1612777588D+00  0.1000000000D+01
 ****
     64 0
 S   6 1.00       0.000000000000
      0.3047524880D+04  0.1834737132D-02
      0.4573695180D+03  0.1403732281D-01
      0.1039486850D+03  0.6884262226D-01
      0.2921015530D+02  0.2321844432D+00
      0.9286662960D+01  0.4679413484D+00
      0.3163926960D+01  0.3623119853D+00
 SP   3 1.00       0.000000000000
      0.7868272350D+01 -0.1193324198D+00  0.6899906659D-01
      0.1881288540D+01 -0.1608541517D+00  0.3164239610D+00
      0.5442492580D+00  0.1143456438D+01  0.7443082909D+00
 SP   1 1.00       0.000000000000
      0.1687144782D+00  0.1000000000D+01  0.1000000000D+01
 D   1 1.00       0.000000000000
      0.8000000000D+00  0.1000000000D+01
 ****
     65 0
 S   3 1.00       0.000000000000
      0.1873113696D+02  0.3349460434D-01
      0.2825394365D+01  0.2347269535D+00
      0.6401216923D+00  0.8137573261D+00
 S   1 1.00       0.000000000000
      0.1612777588D+00  0.1000000000D+01
 ****
     66 0
 S   3 1.00       0.000000000000
      0.1873113696D+02  0.3349460434D-01
      0.2825394365D+01  0.2347269535D+00
      0.6401216923D+00  0.8137573261D+00
 S   1 1.00       0.000000000000
      0.1612777588D+00  0.1000000000D+01
 ****
     67 0
 S   6 1.00       0.000000000000
      0.3047524880D+04  0.1834737132D-02
      0.4573695180D+03  0.1403732281D-01
      0.1039486850D+03  0.6884262226D-01
      0.2921015530D+02  0.2321844432D+00
      0.9286662960D+01  0.4679413484D+00
      0.3163926960D+01  0.3623119853D+00
 SP   3 1.00       0.000000000000
      0.7868272350D+01 -0.1193324198D+00  0.6899906659D-01
      0.1881288540D+01 -0.1608541517D+00  0.3164239610D+00
      0.5442492580D+00  0.1143456438D+01  0.7443082909D+00
 SP   1 1.00       0.000000000000
      0.1687144782D+00  0.1000000000D+01  0.1000000000D+01
 D   1 1.00       0.000000000000
      0.8000000000D+00  0.1000000000D+01
 ****
     68 0
 S   3 1.00       0.000000000000
      0.1873113696D+02  0.3349460434D-01
      0.2825394365D+01  0.2347269535D+00
      0.6401216923D+00  0.8137573261D+00
 S   1 1.00       0.000000000000
      0.1612777588D+00  0.1000000000D+01
 ****
     69 0
 S   6 1.00       0.000000000000
      0.3047524880D+04  0.1834737132D-02
      0.4573695180D+03  0.1403732281D-01
      0.1039486850D+03  0.6884262226D-01
      0.2921015530D+02  0.2321844432D+00
      0.9286662960D+01  0.4679413484D+00
      0.3163926960D+01  0.3623119853D+00
 SP   3 1.00       0.000000000000
      0.7868272350D+01 -0.1193324198D+00  0.6899906659D-01
      0.1881288540D+01 -0.1608541517D+00  0.3164239610D+00
      0.5442492580D+00  0.1143456438D+01  0.7443082909D+00
 SP   1 1.00       0.000000000000
      0.1687144782D+00  0.1000000000D+01  0.1000000000D+01
 D   1 1.00       0.000000000000
      0.8000000000D+00  0.1000000000D+01
 ****
     70 0
 S   3 1.00       0.000000000000
      0.1873113696D+02  0.3349460434D-01
      0.2825394365D+01  0.2347269535D+00
      0.6401216923D+00  0.8137573261D+00
 S   1 1.00       0.000000000000
      0.1612777588D+00  0.1000000000D+01
 ****
     71 0
 S   3 1.00       0.000000000000
      0.1873113696D+02  0.3349460434D-01
      0.2825394365D+01  0.2347269535D+00
      0.6401216923D+00  0.8137573261D+00
 S   1 1.00       0.000000000000
      0.1612777588D+00  0.1000000000D+01
 ****
     72 0
 S   3 1.00       0.000000000000
      0.1873113696D+02  0.3349460434D-01
      0.2825394365D+01  0.2347269535D+00
      0.6401216923D+00  0.8137573261D+00
 S   1 1.00       0.000000000000
      0.1612777588D+00  0.1000000000D+01
 ****
     73 0
 S   6 1.00       0.000000000000
      0.3047524880D+04  0.1834737132D-02
      0.4573695180D+03  0.1403732281D-01
      0.1039486850D+03  0.6884262226D-01
      0.2921015530D+02  0.2321844432D+00
      0.9286662960D+01  0.4679413484D+00
      0.3163926960D+01  0.3623119853D+00
 SP   3 1.00       0.000000000000
      0.7868272350D+01 -0.1193324198D+00  0.6899906659D-01
      0.1881288540D+01 -0.1608541517D+00  0.3164239610D+00
      0.5442492580D+00  0.1143456438D+01  0.7443082909D+00
 SP   1 1.00       0.000000000000
      0.1687144782D+00  0.1000000000D+01  0.1000000000D+01
 D   1 1.00       0.000000000000
      0.8000000000D+00  0.1000000000D+01
 ****
     74 0
 S   3 1.00       0.000000000000
      0.1873113696D+02  0.3349460434D-01
      0.2825394365D+01  0.2347269535D+00
      0.6401216923D+00  0.8137573261D+00
 S   1 1.00       0.000000000000
      0.1612777588D+00  0.1000000000D+01
 ****
     75 0
 S   3 1.00       0.000000000000
      0.1873113696D+02  0.3349460434D-01
      0.2825394365D+01  0.2347269535D+00
      0.6401216923D+00  0.8137573261D+00
 S   1 1.00       0.000000000000
      0.1612777588D+00  0.1000000000D+01
 ****
     76 0
 S   3 1.00       0.000000000000
      0.1873113696D+02  0.3349460434D-01
      0.2825394365D+01  0.2347269535D+00
      0.6401216923D+00  0.8137573261D+00
 S   1 1.00       0.000000000000
      0.1612777588D+00  0.1000000000D+01
 ****

 AO basis set (Overlap normalization):
 Atom C1       Shell     1 S   6     bf    1 -     1         14.202928108008          4.065121938512         -0.104812261563
      0.3047524880D+04  0.1834737132D-02
      0.4573695180D+03  0.1403732281D-01
      0.1039486850D+03  0.6884262226D-01
      0.2921015530D+02  0.2321844432D+00
      0.9286662960D+01  0.4679413484D+00
      0.3163926960D+01  0.3623119853D+00
 Atom C1       Shell     2 SP   3    bf    2 -     5         14.202928108008          4.065121938512         -0.104812261563
      0.7868272350D+01 -0.1193324198D+00  0.6899906659D-01
      0.1881288540D+01 -0.1608541517D+00  0.3164239610D+00
      0.5442492580D+00  0.1143456438D+01  0.7443082909D+00
 Atom C1       Shell     3 SP   1    bf    6 -     9         14.202928108008          4.065121938512         -0.104812261563
      0.1687144782D+00  0.1000000000D+01  0.1000000000D+01
 Atom C1       Shell     4 D   1     bf   10 -    15         14.202928108008          4.065121938512         -0.104812261563
      0.8000000000D+00  0.1000000000D+01
 Atom H2       Shell     5 S   3     bf   16 -    16         14.010625324842          3.909154336998          1.953229359129
      0.1873113696D+02  0.3349460434D-01
      0.2825394365D+01  0.2347269535D+00
      0.6401216923D+00  0.8137573261D+00
 Atom H2       Shell     6 S   1     bf   17 -    17         14.010625324842          3.909154336998          1.953229359129
      0.1612777588D+00  0.1000000000D+01
 Atom C3       Shell     7 S   6     bf   18 -    18         12.779646213448          1.861083119252         -1.350696644522
      0.3047524880D+04  0.1834737132D-02
      0.4573695180D+03  0.1403732281D-01
      0.1039486850D+03  0.6884262226D-01
      0.2921015530D+02  0.2321844432D+00
      0.9286662960D+01  0.4679413484D+00
      0.3163926960D+01  0.3623119853D+00
 Atom C3       Shell     8 SP   3    bf   19 -    22         12.779646213448          1.861083119252         -1.350696644522
      0.7868272350D+01 -0.1193324198D+00  0.6899906659D-01
      0.1881288540D+01 -0.1608541517D+00  0.3164239610D+00
      0.5442492580D+00  0.1143456438D+01  0.7443082909D+00
 Atom C3       Shell     9 SP   1    bf   23 -    26         12.779646213448          1.861083119252         -1.350696644522
      0.1687144782D+00  0.1000000000D+01  0.1000000000D+01
 Atom C3       Shell    10 D   1     bf   27 -    32         12.779646213448          1.861083119252         -1.350696644522
      0.8000000000D+00  0.1000000000D+01
 Atom H4       Shell    11 S   3     bf   33 -    33         13.518327913367          0.064733740312         -0.640124072808
      0.1873113696D+02  0.3349460434D-01
      0.2825394365D+01  0.2347269535D+00
      0.6401216923D+00  0.8137573261D+00
 Atom H4       Shell    12 S   1     bf   34 -    34         13.518327913367          0.064733740312         -0.640124072808
      0.1612777588D+00  0.1000000000D+01
 Atom H5       Shell    13 S   3     bf   35 -    35         13.196205763673          1.911594818483         -3.389313940370
      0.1873113696D+02  0.3349460434D-01
      0.2825394365D+01  0.2347269535D+00
      0.6401216923D+00  0.8137573261D+00
 Atom H5       Shell    14 S   1     bf   36 -    36         13.196205763673          1.911594818483         -3.389313940370
      0.1612777588D+00  0.1000000000D+01
 Atom C6       Shell    15 S   6     bf   37 -    37          9.947322172143          2.007624521152         -0.924814640646
      0.3047524880D+04  0.1834737132D-02
      0.4573695180D+03  0.1403732281D-01
      0.1039486850D+03  0.6884262226D-01
      0.2921015530D+02  0.2321844432D+00
      0.9286662960D+01  0.4679413484D+00
      0.3163926960D+01  0.3623119853D+00
 Atom C6       Shell    16 SP   3    bf   38 -    41          9.947322172143          2.007624521152         -0.924814640646
      0.7868272350D+01 -0.1193324198D+00  0.6899906659D-01
      0.1881288540D+01 -0.1608541517D+00  0.3164239610D+00
      0.5442492580D+00  0.1143456438D+01  0.7443082909D+00
 Atom C6       Shell    17 SP   1    bf   42 -    45          9.947322172143          2.007624521152         -0.924814640646
      0.1687144782D+00  0.1000000000D+01  0.1000000000D+01
 Atom C6       Shell    18 D   1     bf   46 -    51          9.947322172143          2.007624521152         -0.924814640646
      0.8000000000D+00  0.1000000000D+01
 Atom C7       Shell    19 S   6     bf   52 -    52          8.656778836349          4.512153738371         -1.605649896117
      0.3047524880D+04  0.1834737132D-02
      0.4573695180D+03  0.1403732281D-01
      0.1039486850D+03  0.6884262226D-01
      0.2921015530D+02  0.2321844432D+00
      0.9286662960D+01  0.4679413484D+00
      0.3163926960D+01  0.3623119853D+00
 Atom C7       Shell    20 SP   3    bf   53 -    56          8.656778836349          4.512153738371         -1.605649896117
      0.7868272350D+01 -0.1193324198D+00  0.6899906659D-01
      0.1881288540D+01 -0.1608541517D+00  0.3164239610D+00
      0.5442492580D+00  0.1143456438D+01  0.7443082909D+00
 Atom C7       Shell    21 SP   1    bf   57 -    60          8.656778836349          4.512153738371         -1.605649896117
      0.1687144782D+00  0.1000000000D+01  0.1000000000D+01
 Atom C7       Shell    22 D   1     bf   61 -    66          8.656778836349          4.512153738371         -1.605649896117
      0.8000000000D+00  0.1000000000D+01
 Atom C8       Shell    23 S   6     bf   67 -    67         10.236600503702          6.706527194276         -0.430398468231
      0.3047524880D+04  0.1834737132D-02
      0.4573695180D+03  0.1403732281D-01
      0.1039486850D+03  0.6884262226D-01
      0.2921015530D+02  0.2321844432D+00
      0.9286662960D+01  0.4679413484D+00
      0.3163926960D+01  0.3623119853D+00
 Atom C8       Shell    24 SP   3    bf   68 -    71         10.236600503702          6.706527194276         -0.430398468231
      0.7868272350D+01 -0.1193324198D+00  0.6899906659D-01
      0.1881288540D+01 -0.1608541517D+00  0.3164239610D+00
      0.5442492580D+00  0.1143456438D+01  0.7443082909D+00
 Atom C8       Shell    25 SP   1    bf   72 -    75         10.236600503702          6.706527194276         -0.430398468231
      0.1687144782D+00  0.1000000000D+01  0.1000000000D+01
 Atom C8       Shell    26 D   1     bf   76 -    81         10.236600503702          6.706527194276         -0.430398468231
      0.8000000000D+00  0.1000000000D+01
 Atom H9       Shell    27 S   3     bf   82 -    82          9.957262963081          6.674998908989          1.626376298959
      0.1873113696D+02  0.3349460434D-01
      0.2825394365D+01  0.2347269535D+00
      0.6401216923D+00  0.8137573261D+00
 Atom H9       Shell    28 S   1     bf   83 -    83          9.957262963081          6.674998908989          1.626376298959
      0.1612777588D+00  0.1000000000D+01
 Atom H10      Shell    29 S   3     bf   84 -    84          9.491951899031          8.519483448678         -1.096099833070
      0.1873113696D+02  0.3349460434D-01
      0.2825394365D+01  0.2347269535D+00
      0.6401216923D+00  0.8137573261D+00
 Atom H10      Shell    30 S   1     bf   85 -    85          9.491951899031          8.519483448678         -1.096099833070
      0.1612777588D+00  0.1000000000D+01
 Atom C11      Shell    31 S   6     bf   86 -    86         13.087331441301          6.585888022816         -0.968442672286
      0.3047524880D+04  0.1834737132D-02
      0.4573695180D+03  0.1403732281D-01
      0.1039486850D+03  0.6884262226D-01
      0.2921015530D+02  0.2321844432D+00
      0.9286662960D+01  0.4679413484D+00
      0.3163926960D+01  0.3623119853D+00
 Atom C11      Shell    32 SP   3    bf   87 -    90         13.087331441301          6.585888022816         -0.968442672286
      0.7868272350D+01 -0.1193324198D+00  0.6899906659D-01
      0.1881288540D+01 -0.1608541517D+00  0.3164239610D+00
      0.5442492580D+00  0.1143456438D+01  0.7443082909D+00
 Atom C11      Shell    33 SP   1    bf   91 -    94         13.087331441301          6.585888022816         -0.968442672286
      0.1687144782D+00  0.1000000000D+01  0.1000000000D+01
 Atom C11      Shell    34 D   1     bf   95 -   100         13.087331441301          6.585888022816         -0.968442672286
      0.8000000000D+00  0.1000000000D+01
 Atom H12      Shell    35 S   3     bf  101 -   101         13.455440284309          6.830088676023         -2.999804610311
      0.1873113696D+02  0.3349460434D-01
      0.2825394365D+01  0.2347269535D+00
      0.6401216923D+00  0.8137573261D+00
 Atom H12      Shell    36 S   1     bf  102 -   102         13.455440284309          6.830088676023         -2.999804610311
      0.1612777588D+00  0.1000000000D+01
 Atom H13      Shell    37 S   3     bf  103 -   103         14.057494633643          8.138186962879          0.000000000000
      0.1873113696D+02  0.3349460434D-01
      0.2825394365D+01  0.2347269535D+00
      0.6401216923D+00  0.8137573261D+00
 Atom H13      Shell    38 S   1     bf  104 -   104         14.057494633643          8.138186962879          0.000000000000
      0.1612777588D+00  0.1000000000D+01
 Atom C14      Shell    39 S   6     bf  105 -   105          8.703926860857          0.000000000000          0.000000000000
      0.3047524880D+04  0.1834737132D-02
      0.4573695180D+03  0.1403732281D-01
      0.1039486850D+03  0.6884262226D-01
      0.2921015530D+02  0.2321844432D+00
      0.9286662960D+01  0.4679413484D+00
      0.3163926960D+01  0.3623119853D+00
 Atom C14      Shell    40 SP   3    bf  106 -   109          8.703926860857          0.000000000000          0.000000000000
      0.7868272350D+01 -0.1193324198D+00  0.6899906659D-01
      0.1881288540D+01 -0.1608541517D+00  0.3164239610D+00
      0.5442492580D+00  0.1143456438D+01  0.7443082909D+00
 Atom C14      Shell    41 SP   1    bf  110 -   113          8.703926860857          0.000000000000          0.000000000000
      0.1687144782D+00  0.1000000000D+01  0.1000000000D+01
 Atom C14      Shell    42 D   1     bf  114 -   119          8.703926860857          0.000000000000          0.000000000000
      0.8000000000D+00  0.1000000000D+01
 Atom H15      Shell    43 S   3     bf  120 -   120          9.756795164624         -1.710894886067          0.441632701119
      0.1873113696D+02  0.3349460434D-01
      0.2825394365D+01  0.2347269535D+00
      0.6401216923D+00  0.8137573261D+00
 Atom H15      Shell    44 S   1     bf  121 -   121          9.756795164624         -1.710894886067          0.441632701119
      0.1612777588D+00  0.1000000000D+01
 Atom C16      Shell    45 S   6     bf  122 -   122          5.911583963216         -0.084507513313          0.496516149477
      0.3047524880D+04  0.1834737132D-02
      0.4573695180D+03  0.1403732281D-01
      0.1039486850D+03  0.6884262226D-01
      0.2921015530D+02  0.2321844432D+00
      0.9286662960D+01  0.4679413484D+00
      0.3163926960D+01  0.3623119853D+00
 Atom C16      Shell    46 SP   3    bf  123 -   126          5.911583963216         -0.084507513313          0.496516149477
      0.7868272350D+01 -0.1193324198D+00  0.6899906659D-01
      0.1881288540D+01 -0.1608541517D+00  0.3164239610D+00
      0.5442492580D+00  0.1143456438D+01  0.7443082909D+00
 Atom C16      Shell    47 SP   1    bf  127 -   130          5.911583963216         -0.084507513313          0.496516149477
      0.1687144782D+00  0.1000000000D+01  0.1000000000D+01
 Atom C16      Shell    48 D   1     bf  131 -   136          5.911583963216         -0.084507513313          0.496516149477
      0.8000000000D+00  0.1000000000D+01
 Atom H17      Shell    49 S   3     bf  137 -   137          5.133489133514         -1.908736305351         -0.109485081858
      0.1873113696D+02  0.3349460434D-01
      0.2825394365D+01  0.2347269535D+00
      0.6401216923D+00  0.8137573261D+00
 Atom H17      Shell    50 S   1     bf  138 -   138          5.133489133514         -1.908736305351         -0.109485081858
      0.1612777588D+00  0.1000000000D+01
 Atom C18      Shell    51 S   6     bf  139 -   139          4.474863148981          2.079357448012         -0.813837506622
      0.3047524880D+04  0.1834737132D-02
      0.4573695180D+03  0.1403732281D-01
      0.1039486850D+03  0.6884262226D-01
      0.2921015530D+02  0.2321844432D+00
      0.9286662960D+01  0.4679413484D+00
      0.3163926960D+01  0.3623119853D+00
 Atom C18      Shell    52 SP   3    bf  140 -   143          4.474863148981          2.079357448012         -0.813837506622
      0.7868272350D+01 -0.1193324198D+00  0.6899906659D-01
      0.1881288540D+01 -0.1608541517D+00  0.3164239610D+00
      0.5442492580D+00  0.1143456438D+01  0.7443082909D+00
 Atom C18      Shell    53 SP   1    bf  144 -   147          4.474863148981          2.079357448012         -0.813837506622
      0.1687144782D+00  0.1000000000D+01  0.1000000000D+01
 Atom C18      Shell    54 D   1     bf  148 -   153          4.474863148981          2.079357448012         -0.813837506622
      0.8000000000D+00  0.1000000000D+01
 Atom H19      Shell    55 S   3     bf  154 -   154          4.446835883711          1.561454511999         -2.824765665897
      0.1873113696D+02  0.3349460434D-01
      0.2825394365D+01  0.2347269535D+00
      0.6401216923D+00  0.8137573261D+00
 Atom H19      Shell    56 S   1     bf  155 -   155          4.446835883711          1.561454511999         -2.824765665897
      0.1612777588D+00  0.1000000000D+01
 Atom C20      Shell    57 S   6     bf  156 -   156          5.912812247408          4.615327059356         -0.483859009503
      0.3047524880D+04  0.1834737132D-02
      0.4573695180D+03  0.1403732281D-01
      0.1039486850D+03  0.6884262226D-01
      0.2921015530D+02  0.2321844432D+00
      0.9286662960D+01  0.4679413484D+00
      0.3163926960D+01  0.3623119853D+00
 Atom C20      Shell    58 SP   3    bf  157 -   160          5.912812247408          4.615327059356         -0.483859009503
      0.7868272350D+01 -0.1193324198D+00  0.6899906659D-01
      0.1881288540D+01 -0.1608541517D+00  0.3164239610D+00
      0.5442492580D+00  0.1143456438D+01  0.7443082909D+00
 Atom C20      Shell    59 SP   1    bf  161 -   164          5.912812247408          4.615327059356         -0.483859009503
      0.1687144782D+00  0.1000000000D+01  0.1000000000D+01
 Atom C20      Shell    60 D   1     bf  165 -   170          5.912812247408          4.615327059356         -0.483859009503
      0.8000000000D+00  0.1000000000D+01
 Atom H21      Shell    61 S   3     bf  171 -   171          6.140373125022          4.868367492365          1.566654679269
      0.1873113696D+02  0.3349460434D-01
      0.2825394365D+01  0.2347269535D+00
      0.6401216923D+00  0.8137573261D+00
 Atom H21      Shell    62 S   1     bf  172 -   172          6.140373125022          4.868367492365          1.566654679269
      0.1612777588D+00  0.1000000000D+01
 Atom C22      Shell    63 S   6     bf  173 -   173          4.355640365052          6.895477036365         -1.451995187108
      0.3047524880D+04  0.1834737132D-02
      0.4573695180D+03  0.1403732281D-01
      0.1039486850D+03  0.6884262226D-01
      0.2921015530D+02  0.2321844432D+00
      0.9286662960D+01  0.4679413484D+00
      0.3163926960D+01  0.3623119853D+00
 Atom C22      Shell    64 SP   3    bf  174 -   177          4.355640365052          6.895477036365         -1.451995187108
      0.7868272350D+01 -0.1193324198D+00  0.6899906659D-01
      0.1881288540D+01 -0.1608541517D+00  0.3164239610D+00
      0.5442492580D+00  0.1143456438D+01  0.7443082909D+00
 Atom C22      Shell    65 SP   1    bf  178 -   181          4.355640365052          6.895477036365         -1.451995187108
      0.1687144782D+00  0.1000000000D+01  0.1000000000D+01
 Atom C22      Shell    66 D   1     bf  182 -   187          4.355640365052          6.895477036365         -1.451995187108
      0.8000000000D+00  0.1000000000D+01
 Atom H23      Shell    67 S   3     bf  188 -   188          4.325026234781          6.903130200436         -3.520391751118
      0.1873113696D+02  0.3349460434D-01
      0.2825394365D+01  0.2347269535D+00
      0.6401216923D+00  0.8137573261D+00
 Atom H23      Shell    68 S   1     bf  189 -   189          4.325026234781          6.903130200436         -3.520391751118
      0.1612777588D+00  0.1000000000D+01
 Atom H24      Shell    69 S   3     bf  190 -   190          5.292843351026          8.655554085945         -0.891426978227
      0.1873113696D+02  0.3349460434D-01
      0.2825394365D+01  0.2347269535D+00
      0.6401216923D+00  0.8137573261D+00
 Atom H24      Shell    70 S   1     bf  191 -   191          5.292843351026          8.655554085945         -0.891426978227
      0.1612777588D+00  0.1000000000D+01
 Atom C25      Shell    71 S   6     bf  192 -   192          1.602401740353          6.965728191170         -0.497023087409
      0.3047524880D+04  0.1834737132D-02
      0.4573695180D+03  0.1403732281D-01
      0.1039486850D+03  0.6884262226D-01
      0.2921015530D+02  0.2321844432D+00
      0.9286662960D+01  0.4679413484D+00
      0.3163926960D+01  0.3623119853D+00
 Atom C25      Shell    72 SP   3    bf  193 -   196          1.602401740353          6.965728191170         -0.497023087409
      0.7868272350D+01 -0.1193324198D+00  0.6899906659D-01
      0.1881288540D+01 -0.1608541517D+00  0.3164239610D+00
      0.5442492580D+00  0.1143456438D+01  0.7443082909D+00
 Atom C25      Shell    73 SP   1    bf  197 -   200          1.602401740353          6.965728191170         -0.497023087409
      0.1687144782D+00  0.1000000000D+01  0.1000000000D+01
 Atom C25      Shell    74 D   1     bf  201 -   206          1.602401740353          6.965728191170         -0.497023087409
      0.8000000000D+00  0.1000000000D+01
 Atom H26      Shell    75 S   3     bf  207 -   207          1.584496452964          7.267305559601          1.557948408619
      0.1873113696D+02  0.3349460434D-01
      0.2825394365D+01  0.2347269535D+00
      0.6401216923D+00  0.8137573261D+00
 Atom H26      Shell    76 S   1     bf  208 -   208          1.584496452964          7.267305559601          1.557948408619
      0.1612777588D+00  0.1000000000D+01
 Atom H27      Shell    77 S   3     bf  209 -   209          0.654042888435          8.600653724538         -1.344163388849
      0.1873113696D+02  0.3349460434D-01
      0.2825394365D+01  0.2347269535D+00
      0.6401216923D+00  0.8137573261D+00
 Atom H27      Shell    78 S   1     bf  210 -   210          0.654042888435          8.600653724538         -1.344163388849
      0.1612777588D+00  0.1000000000D+01
 Atom C28      Shell    79 S   6     bf  211 -   211          0.193777884488          4.488567669664         -1.097325282673
      0.3047524880D+04  0.1834737132D-02
      0.4573695180D+03  0.1403732281D-01
      0.1039486850D+03  0.6884262226D-01
      0.2921015530D+02  0.2321844432D+00
      0.9286662960D+01  0.4679413484D+00
      0.3163926960D+01  0.3623119853D+00
 Atom C28      Shell    80 SP   3    bf  212 -   215          0.193777884488          4.488567669664         -1.097325282673
      0.7868272350D+01 -0.1193324198D+00  0.6899906659D-01
      0.1881288540D+01 -0.1608541517D+00  0.3164239610D+00
      0.5442492580D+00  0.1143456438D+01  0.7443082909D+00
 Atom C28      Shell    81 SP   1    bf  216 -   219          0.193777884488          4.488567669664         -1.097325282673
      0.1687144782D+00  0.1000000000D+01  0.1000000000D+01
 Atom C28      Shell    82 D   1     bf  220 -   225          0.193777884488          4.488567669664         -1.097325282673
      0.8000000000D+00  0.1000000000D+01
 Atom C29      Shell    83 S   6     bf  226 -   226          1.745047623008          2.319313851914          0.142061503745
      0.3047524880D+04  0.1834737132D-02
      0.4573695180D+03  0.1403732281D-01
      0.1039486850D+03  0.6884262226D-01
      0.2921015530D+02  0.2321844432D+00
      0.9286662960D+01  0.4679413484D+00
      0.3163926960D+01  0.3623119853D+00
 Atom C29      Shell    84 SP   3    bf  227 -   230          1.745047623008          2.319313851914          0.142061503745
      0.7868272350D+01 -0.1193324198D+00  0.6899906659D-01
      0.1881288540D+01 -0.1608541517D+00  0.3164239610D+00
      0.5442492580D+00  0.1143456438D+01  0.7443082909D+00
 Atom C29      Shell    85 SP   1    bf  231 -   234          1.745047623008          2.319313851914          0.142061503745
      0.1687144782D+00  0.1000000000D+01  0.1000000000D+01
 Atom C29      Shell    86 D   1     bf  235 -   240          1.745047623008          2.319313851914          0.142061503745
      0.8000000000D+00  0.1000000000D+01
 Atom H30      Shell    87 S   3     bf  241 -   241          1.883012483956          2.823482371777          2.150436170583
      0.1873113696D+02  0.3349460434D-01
      0.2825394365D+01  0.2347269535D+00
      0.6401216923D+00  0.8137573261D+00
 Atom H30      Shell    88 S   1     bf  242 -   242          1.883012483956          2.823482371777          2.150436170583
      0.1612777588D+00  0.1000000000D+01
 Atom C31      Shell    89 S   6     bf  243 -   243          0.000000000000          0.000000000000          0.000000000000
      0.3047524880D+04  0.1834737132D-02
      0.4573695180D+03  0.1403732281D-01
      0.1039486850D+03  0.6884262226D-01
      0.2921015530D+02  0.2321844432D+00
      0.9286662960D+01  0.4679413484D+00
      0.3163926960D+01  0.3623119853D+00
 Atom C31      Shell    90 SP   3    bf  244 -   247          0.000000000000          0.000000000000          0.000000000000
      0.7868272350D+01 -0.1193324198D+00  0.6899906659D-01
      0.1881288540D+01 -0.1608541517D+00  0.3164239610D+00
      0.5442492580D+00  0.1143456438D+01  0.7443082909D+00
 Atom C31      Shell    91 SP   1    bf  248 -   251          0.000000000000          0.000000000000          0.000000000000
      0.1687144782D+00  0.1000000000D+01  0.1000000000D+01
 Atom C31      Shell    92 D   1     bf  252 -   257          0.000000000000          0.000000000000          0.000000000000
      0.8000000000D+00  0.1000000000D+01
 Atom H32      Shell    93 S   3     bf  258 -   258          0.453059308126         -1.394115351199          1.456657028094
      0.1873113696D+02  0.3349460434D-01
      0.2825394365D+01  0.2347269535D+00
      0.6401216923D+00  0.8137573261D+00
 Atom H32      Shell    94 S   1     bf  259 -   259          0.453059308126         -1.394115351199          1.456657028094
      0.1612777588D+00  0.1000000000D+01
 Atom H33      Shell    95 S   3     bf  260 -   260          0.183157604724         -0.952649550693         -1.833247944644
      0.1873113696D+02  0.3349460434D-01
      0.2825394365D+01  0.2347269535D+00
      0.6401216923D+00  0.8137573261D+00
 Atom H33      Shell    96 S   1     bf  261 -   261          0.183157604724         -0.952649550693         -1.833247944644
      0.1612777588D+00  0.1000000000D+01
 Atom C34      Shell    97 S   6     bf  262 -   262         -2.690642202437          1.137035326225          0.328944325595
      0.3047524880D+04  0.1834737132D-02
      0.4573695180D+03  0.1403732281D-01
      0.1039486850D+03  0.6884262226D-01
      0.2921015530D+02  0.2321844432D+00
      0.9286662960D+01  0.4679413484D+00
      0.3163926960D+01  0.3623119853D+00
 Atom C34      Shell    98 SP   3    bf  263 -   266         -2.690642202437          1.137035326225          0.328944325595
      0.7868272350D+01 -0.1193324198D+00  0.6899906659D-01
      0.1881288540D+01 -0.1608541517D+00  0.3164239610D+00
      0.5442492580D+00  0.1143456438D+01  0.7443082909D+00
 Atom C34      Shell    99 SP   1    bf  267 -   270         -2.690642202437          1.137035326225          0.328944325595
      0.1687144782D+00  0.1000000000D+01  0.1000000000D+01
 Atom C34      Shell   100 D   1     bf  271 -   276         -2.690642202437          1.137035326225          0.328944325595
      0.8000000000D+00  0.1000000000D+01
 Atom H35      Shell   101 S   3     bf  277 -   277         -3.943061012699          0.508348518480         -1.192863410883
      0.1873113696D+02  0.3349460434D-01
      0.2825394365D+01  0.2347269535D+00
      0.6401216923D+00  0.8137573261D+00
 Atom H35      Shell   102 S   1     bf  278 -   278         -3.943061012699          0.508348518480         -1.192863410883
      0.1612777588D+00  0.1000000000D+01
 Atom H36      Shell   103 S   3     bf  279 -   279         -3.574118913850          0.521623750077          2.096836073036
      0.1873113696D+02  0.3349460434D-01
      0.2825394365D+01  0.2347269535D+00
      0.6401216923D+00  0.8137573261D+00
 Atom H36      Shell   104 S   1     bf  280 -   280         -3.574118913850          0.521623750077          2.096836073036
      0.1612777588D+00  0.1000000000D+01
 Atom C37      Shell   105 S   6     bf  281 -   281         -2.377067548604          4.071539127206          0.314678896402
      0.3047524880D+04  0.1834737132D-02
      0.4573695180D+03  0.1403732281D-01
      0.1039486850D+03  0.6884262226D-01
      0.2921015530D+02  0.2321844432D+00
      0.9286662960D+01  0.4679413484D+00
      0.3163926960D+01  0.3623119853D+00
 Atom C37      Shell   106 SP   3    bf  282 -   285         -2.377067548604          4.071539127206          0.314678896402
      0.7868272350D+01 -0.1193324198D+00  0.6899906659D-01
      0.1881288540D+01 -0.1608541517D+00  0.3164239610D+00
      0.5442492580D+00  0.1143456438D+01  0.7443082909D+00
[...]
 1625 Fit      -0.002322
 1626 Fit      -0.002555
 1627 Fit      -0.002905
 1628 Fit      -0.002901
 1629 Fit      -0.002651
 1630 Fit      -0.001976
 1631 Fit      -0.000508
 1632 Fit       0.001663
 1633 Fit       0.001970
 1634 Fit       0.000352
 1635 Fit      -0.001559
 1636 Fit       0.002630
 1637 Fit       0.002167
 1638 Fit       0.000457
 1639 Fit      -0.001379
 1640 Fit      -0.001323
 1641 Fit       0.001205
 1642 Fit       0.000971
 1643 Fit       0.001210
 1644 Fit       0.002618
 1645 Fit       0.002092
 1646 Fit       0.000553
 1647 Fit       0.000716
 1648 Fit       0.001765
 1649 Fit       0.001525
 1650 Fit       0.000082
 1651 Fit      -0.002019
 1652 Fit      -0.001788
 1653 Fit      -0.000210
 1654 Fit      -0.000062
 1655 Fit      -0.001415
 1656 Fit       0.000110
 1657 Fit       0.001552
 1658 Fit      -0.001725
 1659 Fit       0.000486
 1660 Fit       0.002018
 1661 Fit       0.002811
 1662 Fit      -0.001182
 1663 Fit       0.001016
 1664 Fit       0.002212
 1665 Fit       0.002934
 1666 Fit      -0.002089
 1667 Fit       0.000287
 1668 Fit       0.001128
 1669 Fit       0.003536
 1670 Fit      -0.002578
 1671 Fit       0.000473
 1672 Fit       0.004842
 1673 Fit       0.006697
 1674 Fit       0.007112
 1675 Fit       0.001416
 1676 Fit      -0.013879
 1677 Fit      -0.009604
 1678 Fit      -0.001520
 1679 Fit       0.004475
 1680 Fit       0.005688
 1681 Fit       0.010531
 1682 Fit       0.006971
 1683 Fit      -0.001097
 1684 Fit      -0.009780
 1685 Fit       0.002169
 1686 Fit       0.003657
 1687 Fit       0.004035
 1688 Fit       0.007101
 1689 Fit       0.004291
 1690 Fit       0.003828
 1691 Fit      -0.003386
 1692 Fit       0.004928
 1693 Fit       0.000819
 1694 Fit      -0.007420
 1695 Fit       0.004022
 1696 Fit       0.001437
 1697 Fit      -0.003994
 1698 Fit       0.003163
 1699 Fit       0.003292
 1700 Fit       0.008657
 1701 Fit       0.003900
 1702 Fit       0.005379
 1703 Fit       0.007362
 1704 Fit       0.011444
 1705 Fit       0.016212
 1706 Fit       0.008820
 1707 Fit       0.010881
 1708 Fit       0.005200
 1709 Fit       0.004840
 1710 Fit       0.005120
 1711 Fit       0.004663
 1712 Fit       0.005651
 1713 Fit       0.004741
 1714 Fit       0.004152
 1715 Fit       0.002890
 1716 Fit       0.002739
 1717 Fit       0.006186
 1718 Fit       0.004890
 1719 Fit       0.004596
 1720 Fit       0.004213
 1721 Fit       0.003906
 1722 Fit       0.005582
 1723 Fit       0.006640
 1724 Fit       0.007279
 1725 Fit       0.007721
 1726 Fit       0.008357
 1727 Fit       0.008563
 1728 Fit       0.009132
 1729 Fit       0.009113
 1730 Fit       0.006041
 1731 Fit       0.006083
 1732 Fit       0.007379
 1733 Fit       0.009252
 1734 Fit       0.006418
 1735 Fit       0.012300
 1736 Fit       0.009279
 1737 Fit       0.009000
 1738 Fit       0.017310
 1739 Fit       0.012307
 1740 Fit       0.010845
 1741 Fit       0.003132
 1742 Fit      -0.002809
 1743 Fit       0.001799
 1744 Fit       0.004380
 1745 Fit      -0.011454
 1746 Fit      -0.001970
 1747 Fit       0.002515
 1748 Fit       0.004464
 1749 Fit      -0.004076
 1750 Fit       0.001493
 1751 Fit       0.004038
 1752 Fit       0.005353
 1753 Fit      -0.001579
 1754 Fit       0.002434
 1755 Fit       0.004455
 1756 Fit       0.005906
 1757 Fit       0.004699
 1758 Fit       0.010662
 1759 Fit       0.001064
 1760 Fit       0.000469
 1761 Fit      -0.000333
 1762 Fit       0.001272
 1763 Fit      -0.000660
 1764 Fit       0.005184
 1765 Fit       0.008462
 1766 Fit      -0.005504
 1767 Fit       0.001911
 1768 Fit       0.005614
 1769 Fit      -0.000368
 1770 Fit       0.002678
 1771 Fit       0.005099
 1772 Fit       0.001255
 1773 Fit       0.002797
 1774 Fit      -0.010473
 1775 Fit      -0.010945
 1776 Fit      -0.002856
 1777 Fit      -0.002343
 1778 Fit      -0.001844
 1779 Fit       0.001736
 1780 Fit       0.001852
 1781 Fit       0.001962
 1782 Fit       0.004576
 1783 Fit       0.003721
 1784 Fit       0.005935
 1785 Fit       0.005575
 1786 Fit       0.006884
 1787 Fit      -0.006218
 1788 Fit      -0.000035
 1789 Fit       0.001378
 1790 Fit      -0.001276
 1791 Fit      -0.008850
 1792 Fit       0.002535
 1793 Fit       0.004528
 1794 Fit       0.005646
 1795 Fit       0.004865
 1796 Fit       0.005791
 1797 Fit       0.006557
 1798 Fit       0.004004
 1799 Fit       0.005447
 1800 Fit       0.003832
 1801 Fit       0.006178
 1802 Fit       0.004240
 1803 Fit       0.006758
 1804 Fit       0.004737
 1805 Fit       0.007832
 1806 Fit       0.005170
 1807 Fit       0.001612
 1808 Fit      -0.000180
 1809 Fit       0.001659
 1810 Fit      -0.000225
 1811 Fit      -0.000371
 1812 Fit       0.001050
 1813 Fit       0.001051
 1814 Fit       0.000853
 1815 Fit       0.002120
 1816 Fit       0.001534
 1817 Fit       0.000752
 1818 Fit      -0.000580
 1819 Fit       0.002207
 1820 Fit       0.001589
 1821 Fit       0.003714
 1822 Fit       0.003780
 1823 Fit       0.004433
 1824 Fit       0.004861
 1825 Fit       0.004825
 1826 Fit       0.005761
 1827 Fit      -0.014360
 1828 Fit      -0.008869
 1829 Fit      -0.005081
 1830 Fit      -0.008057
 1831 Fit      -0.018277
 1832 Fit      -0.006250
 1833 Fit      -0.004575
 1834 Fit      -0.005011
 1835 Fit      -0.004943
 1836 Fit      -0.019848
 1837 Fit      -0.013486
 1838 Fit      -0.008539
 1839 Fit      -0.012548
 1840 Fit      -0.007135
 1841 Fit      -0.008660
 1842 Fit      -0.012741
 1843 Fit      -0.006754
 1844 Fit      -0.007433
 1845 Fit      -0.002016
 1846 Fit      -0.002048
 1847 Fit      -0.001061
 1848 Fit       0.000938
 1849 Fit       0.000919
 1850 Fit       0.002194
 1851 Fit       0.004832
 1852 Fit       0.005035
 1853 Fit       0.002744
 1854 Fit       0.003470
 1855 Fit      -0.010358
 1856 Fit      -0.002278
 1857 Fit      -0.003373
 1858 Fit      -0.004431
 1859 Fit      -0.005708
 1860 Fit      -0.004425
 1861 Fit      -0.001821
 1862 Fit      -0.002233
 1863 Fit      -0.003198
 1864 Fit       0.000042
 1865 Fit      -0.000726
 1866 Fit      -0.001835
 1867 Fit       0.001716
 1868 Fit       0.000882
 1869 Fit       0.003617
 1870 Fit      -0.004133
 1871 Fit      -0.008401
 1872 Fit      -0.004253
 1873 Fit      -0.002155
 1874 Fit      -0.001985
 1875 Fit      -0.003567
 1876 Fit      -0.006954
 1877 Fit      -0.000933
 1878 Fit      -0.001609
 1879 Fit      -0.002856
 1880 Fit      -0.005010
 1881 Fit      -0.001347
 1882 Fit      -0.002379
 1883 Fit      -0.003513
 1884 Fit      -0.005155
 1885 Fit      -0.002136
 1886 Fit      -0.003616
 1887 Fit      -0.000381
 1888 Fit       0.000064
 1889 Fit      -0.001272
 1890 Fit      -0.003177
 1891 Fit      -0.005853
 1892 Fit       0.003517
 1893 Fit       0.002680
 1894 Fit       0.001850
 1895 Fit      -0.000037
 1896 Fit       0.000326
 1897 Fit       0.001589
 1898 Fit       0.000745
 1899 Fit       0.006146
 1900 Fit       0.005759
 1901 Fit       0.004019
 1902 Fit       0.004474
 1903 Fit       0.002575
 1904 Fit       0.002708
 1905 Fit       0.002785
 1906 Fit       0.002675
 1907 Fit      -0.000065
 1908 Fit       0.001385
 1909 Fit       0.005365
 1910 Fit       0.005790
 1911 Fit       0.004236
 1912 Fit       0.004667
 1913 Fit       0.002856
 1914 Fit       0.003022
 1915 Fit       0.001248
 1916 Fit       0.001216
 1917 Fit      -0.001450
 1918 Fit      -0.000868
 1919 Fit      -0.000212
 1920 Fit      -0.000583
 1921 Fit      -0.001248
 1922 Fit      -0.000271
 1923 Fit      -0.001739
 1924 Fit      -0.000789
 1925 Fit      -0.001205
 1926 Fit      -0.001463
 1927 Fit      -0.000783
 1928 Fit      -0.001318
 1929 Fit      -0.001773
 1930 Fit      -0.001296
 1931 Fit      -0.001687
 1932 Fit      -0.001496
 1933 Fit      -0.001094
 1934 Fit       0.001282
 1935 Fit       0.004358
 1936 Fit       0.002165
 1937 Fit       0.000244
 1938 Fit       0.002885
 1939 Fit       0.001065
 1940 Fit      -0.000864
 1941 Fit      -0.000519
 1942 Fit       0.000705
 1943 Fit       0.001191
 1944 Fit       0.001312
 1945 Fit       0.000301
 1946 Fit       0.000702
 1947 Fit       0.000427
 1948 Fit      -0.000255
 1949 Fit      -0.001174
 1950 Fit      -0.000027
 1951 Fit      -0.000984
 1952 Fit       0.000668
 1953 Fit       0.002381
 1954 Fit       0.000464
 1955 Fit       0.002149
 1956 Fit       0.003588
 1957 Fit       0.000092
 1958 Fit       0.000946
 1959 Fit       0.009946
 1960 Fit       0.005197
 1961 Fit       0.005794
 1962 Fit       0.006400
 1963 Fit       0.006154
 1964 Fit       0.005398
 1965 Fit       0.005184
 1966 Fit       0.005992
 1967 Fit       0.005326
 1968 Fit       0.009236
 1969 Fit       0.009034
 1970 Fit       0.008484
 1971 Fit       0.008061
 1972 Fit       0.007903
 1973 Fit       0.007461
 1974 Fit       0.006873
 1975 Fit       0.006626
 1976 Fit       0.016169
 1977 Fit       0.013736
 1978 Fit       0.009808
 1979 Fit       0.009628
 1980 Fit       0.014261
 1981 Fit       0.010593
 1982 Fit       0.008590
 1983 Fit       0.008644
 1984 Fit       0.007079
 1985 Fit       0.006276
 1986 Fit       0.003053
 1987 Fit       0.007534
 1988 Fit       0.006179
 1989 Fit       0.005203
 1990 Fit       0.006144
 1991 Fit       0.006257
 1992 Fit       0.005632
 1993 Fit       0.005419
 1994 Fit      -0.004173
 1995 Fit      -0.014939
 1996 Fit      -0.004292
 1997 Fit      -0.011174
 1998 Fit      -0.015132
 1999 Fit      -0.018818
 2000 Fit      -0.023385
 2001 Fit      -0.000909
 2002 Fit      -0.003389
 2003 Fit      -0.008587
 2004 Fit      -0.015519
 2005 Fit      -0.012137
 2006 Fit      -0.000536
 2007 Fit      -0.021847
 2008 Fit      -0.023169
 2009 Fit      -0.022031
 2010 Fit      -0.018041
 2011 Fit      -0.010789
 2012 Fit      -0.000557
 2013 Fit      -0.025261
 2014 Fit      -0.023909
 2015 Fit      -0.020988
 2016 Fit      -0.015625
 2017 Fit      -0.007841
 2018 Fit       0.002227
 2019 Fit      -0.022115
 2020 Fit      -0.021645
 2021 Fit      -0.019101
 2022 Fit      -0.014448
 2023 Fit      -0.007737
 2024 Fit       0.000915
 2025 Fit      -0.017772
 2026 Fit      -0.016010
 2027 Fit      -0.011375
 2028 Fit       0.006270
 2029 Fit       0.013614
 2030 Fit       0.011078
 2031 Fit       0.001803
 2032 Fit       0.008368
 2033 Fit       0.016755
 2034 Fit       0.016113
 2035 Fit       0.011359
 2036 Fit       0.001710
 2037 Fit       0.006768
 2038 Fit       0.013786
 2039 Fit       0.016526
 2040 Fit       0.016054
 2041 Fit       0.012628
 2042 Fit       0.004126
 2043 Fit       0.008519
 2044 Fit       0.014324
 2045 Fit       0.013954
 2046 Fit       0.012405
 2047 Fit      -0.020053
 2048 Fit      -0.015829
 2049 Fit      -0.016220
 2050 Fit      -0.023914
 2051 Fit      -0.022490
 2052 Fit      -0.018210
 2053 Fit      -0.011666
 2054 Fit      -0.019585
 2055 Fit      -0.023210
 2056 Fit      -0.022030
 2057 Fit      -0.021082
 2058 Fit      -0.018814
 2059 Fit      -0.013460
 2060 Fit      -0.016718
 2061 Fit      -0.021078
 2062 Fit      -0.022263
 2063 Fit      -0.014642
 2064 Fit      -0.013769
 2065 Fit      -0.012588
 2066 Fit      -0.009973
 2067 Fit      -0.014408
 2068 Fit      -0.015950
 2069 Fit      -0.015566
 2070 Fit      -0.002310
 2071 Fit      -0.000061
 2072 Fit       0.001733
 2073 Fit      -0.004584
 2074 Fit      -0.005462
 2075 Fit      -0.004111
 2076 Fit       0.003025
 2077 Fit       0.004085
 2078 Fit       0.005155
 2079 Fit       0.006893
 2080 Fit       0.000358
 2081 Fit       0.001610
 2082 Fit       0.012944
 2083 Fit       0.014054
 2084 Fit       0.015611
 2085 Fit       0.012058
 2086 Fit       0.012041
 2087 Fit       0.019296
 2088 Fit       0.020975
 2089 Fit       0.019347
 2090 Fit       0.023392
 2091 Fit       0.000079
 2092 Fit       0.001268
 2093 Fit       0.001159
 2094 Fit       0.001319
 2095 Fit       0.000644
 2096 Fit       0.000877
 2097 Fit       0.000728
 2098 Fit       0.000688
 2099 Fit      -0.000383
 2100 Fit      -0.000052
 2101 Fit       0.002357
 2102 Fit       0.004096
 2103 Fit       0.002199
 2104 Fit       0.004952
 2105 Fit       0.002785
 2106 Fit       0.000657
 2107 Fit       0.000452
 2108 Fit       0.000293
 2109 Fit       0.000472
 2110 Fit       0.001496
 2111 Fit       0.001787
 2112 Fit       0.001208
 2113 Fit       0.001891
 2114 Fit       0.002343
 2115 Fit       0.001660
 2116 Fit       0.001577
 2117 Fit       0.001643
 2118 Fit       0.001162
 2119 Fit       0.001104
 2120 Fit       0.001590
 2121 Fit       0.001404
 2122 Fit       0.000708
 2123 Fit      -0.001769
 2124 Fit       0.000691
 2125 Fit       0.001052
 2126 Fit       0.001730
 2127 Fit       0.000060
 2128 Fit      -0.000465
 2129 Fit       0.000007
 2130 Fit       0.001296
 2131 Fit       0.001572
 2132 Fit      -0.001648
 2133 Fit      -0.001012
 2134 Fit       0.000201
 2135 Fit       0.000723
 2136 Fit      -0.000141
 2137 Fit      -0.000481
 2138 Fit       0.000851
 2139 Fit       0.000981
 2140 Fit       0.000800
 2141 Fit       0.001830
 2142 Fit       0.001252
 2143 Fit       0.002436
 2144 Fit       0.000027
 2145 Fit       0.000047
 2146 Fit      -0.000553
 2147 Fit       0.000388
 2148 Fit       0.000422
 2149 Fit      -0.000083
 2150 Fit       0.000440
 2151 Fit       0.000618
 2152 Fit       0.000567
 2153 Fit       0.000092
 2154 Fit      -0.000897
 2155 Fit       0.000873
 2156 Fit       0.000282
 2157 Fit       0.000156
 2158 Fit       0.000260
 2159 Fit       0.000113
 2160 Fit      -0.001570
 2161 Fit      -0.001378
 2162 Fit      -0.000705
 2163 Fit      -0.001912
 2164 Fit      -0.000602
 2165 Fit      -0.002042
 2166 Fit      -0.002051
 2167 Fit      -0.001204
 2168 Fit      -0.001865
 2169 Fit      -0.002189
 2170 Fit      -0.001692
 2171 Fit      -0.001588
 2172 Fit      -0.001829
 2173 Fit       0.000036
 2174 Fit      -0.000531
 2175 Fit      -0.001318
 2176 Fit       0.002106
 2177 Fit       0.001223
 2178 Fit       0.000322
 2179 Fit      -0.000792
 2180 Fit       0.002632
 2181 Fit       0.001791
 2182 Fit       0.000631
 2183 Fit      -0.000768
 2184 Fit       0.002017
 2185 Fit       0.001035
 2186 Fit      -0.000857
 2187 Fit      -0.000425
 2188 Fit      -0.000851
 2189 Fit       0.000490
 2190 Fit       0.001017
 2191 Fit       0.000686
 2192 Fit      -0.000436
 2193 Fit       0.000889
 2194 Fit       0.001659
 2195 Fit       0.001854
 2196 Fit       0.001411
 2197 Fit      -0.000789
 2198 Fit       0.000529
 2199 Fit       0.001509
 2200 Fit      -0.000547
 2201 Fit       0.000435
 2202 Fit       0.001379
 2203 Fit       0.000491
 2204 Fit      -0.000718
 2205 Fit      -0.000947
 2206 Fit      -0.000002
 2207 Fit       0.001130
 2208 Fit       0.001591
 2209 Fit       0.000883
 2210 Fit      -0.000256
 2211 Fit      -0.001489
 2212 Fit       0.001950
 2213 Fit       0.001021
 2214 Fit       0.000353
 2215 Fit      -0.000659
 2216 Fit      -0.001018
 2217 Fit      -0.000297
 2218 Fit      -0.001441
 2219 Fit      -0.001648
 2220 Fit      -0.001622
 2221 Fit      -0.002035
 2222 Fit      -0.001716
 2223 Fit      -0.002168
 2224 Fit      -0.002122
 2225 Fit      -0.001786
 2226 Fit      -0.001293
 2227 Fit      -0.000065
 2228 Fit       0.000842
 2229 Fit      -0.000787
 2230 Fit       0.001633
 2231 Fit       0.001647
 2232 Fit       0.000509
 2233 Fit      -0.000884
 2234 Fit       0.001965
 2235 Fit       0.001626
 2236 Fit       0.000389
 2237 Fit      -0.000871
 2238 Fit      -0.000731
 2239 Fit       0.000988
 2240 Fit       0.000742
 2241 Fit       0.000944
 2242 Fit       0.002290
 2243 Fit       0.001572
 2244 Fit       0.000457
 2245 Fit       0.001613
 2246 Fit       0.001606
 2247 Fit       0.000885
 2248 Fit      -0.000414
 2249 Fit      -0.000544
 2250 Fit       0.000556
 2251 Fit       0.000788
 2252 Fit       0.000166
 2253 Fit      -0.001077
 2254 Fit      -0.000779
 2255 Fit      -0.000712
 2256 Fit      -0.001609
 2257 Fit      -0.000160
 2258 Fit       0.000886
 2259 Fit      -0.000854
 2260 Fit       0.000529
 2261 Fit       0.001508
 2262 Fit      -0.000558
 2263 Fit       0.000850
 2264 Fit       0.001735
 2265 Fit       0.002217
 2266 Fit      -0.001058
 2267 Fit       0.000496
 2268 Fit       0.001417
 2269 Fit      -0.000043
 2270 Fit       0.000756
 -----------------------------------------------------------------
 Leave Link  602 at Wed Apr 26 13:52:20 2017, MaxMem=    33554432 cpu:         4.9
 (Enter /home/michal/g09/l9999.exe)

 Test job not archived.
 1\1\GINC-LINUX\SP\RHF\6-31G(d)\C27H46O3\MICHAL\26-Apr-2017\0\\#P HF/6-
 31G* SCF(Conver=6) NoSymm Test Pop=mk IOp(6/33=2) GFInput GFPrint\\MEP
  - Input generated by R.E.D.-III.x MOLECULE\\0,1\C,0,7.51586585,2.1511
 6988,-0.05546426\H,0,7.4141036,2.06863538,1.03360446\C,0,6.76269751,0.
 98484277,-0.71475788\H,0,7.15359103,0.03425562,-0.33873907\H,0,6.98313
 133,1.01157241,-1.79354769\C,0,5.26389618,1.06238914,-0.48939083\C,0,4
 .58097006,2.38772892,-0.84967333\C,0,5.41697568,3.54894134,-0.22775706
 \H,0,5.26915662,3.53225729,0.86064127\H,0,5.02292461,4.50831647,-0.580
 03105\C,0,6.92551752,3.48510184,-0.51247779\H,0,7.12031233,3.61432726,
 -1.58742823\H,0,7.43890577,4.30654306,0.\C,0,4.60591972,0.,0.\H,0,5.16
 307363,-0.90536658,0.23370196\C,0,3.1282755,-0.04471945,0.26274503\H,0
 ,2.71652545,-1.01005975,-0.05793701\C,0,2.36799559,1.10034857,-0.43066
 426\H,0,2.3531642,0.82628614,-1.49480161\C,0,3.12892548,2.44232589,-0.
 25604716\H,0,3.24934551,2.57622912,0.82903795\C,0,2.30490561,3.6489292
 9,-0.76836276\H,0,2.28870531,3.65297917,-1.86291108\H,0,2.80085207,4.5
 8032195,-0.47172284\C,0,0.84795448,3.6861046,-0.26301329\H,0,0.8384794
 1,3.84569247,0.82443079\H,0,0.34610459,4.55126993,-0.71130063\C,0,0.10
 254284,2.37524771,-0.58067953\C,0,0.92343943,1.22732803,0.07517571\H,0
 ,0.99644729,1.49412252,1.13796181\C,0,0.,0.,0.\H,0,0.23974866,-0.73773
 407,0.7708297\H,0,0.09692283,-0.50412043,-0.97011303\C,0,-1.42382653,0
 .60169318,0.17406984\H,0,-2.08657802,0.26900645,-0.63123613\H,0,-1.891
 34227,0.2760314,1.10959786\C,0,-1.25788997,2.15456571,0.1665209\H,0,-1
 .04575082,2.44657594,1.20609287\C,0,-0.03926112,2.19587553,-2.10957627
 \H,0,0.92650469,2.04568653,-2.59942161\H,0,-0.66718585,1.33938103,-2.3
 6858301\H,0,-0.4911325,3.08365901,-2.56187395\C,0,-2.57499098,2.912543
 88,-0.17425532\H,0,-3.29459859,2.48749902,0.54184208\C,0,-3.1772411,2.
 67536153,-1.57321262\H,0,-2.65823706,3.24869357,-2.347468\H,0,-4.22760
 029,2.98362484,-1.59211085\H,0,-3.15093376,1.62120604,-1.86390741\C,0,
 4.5714312,2.52343971,-2.39721021\H,0,4.27764976,3.53089321,-2.70634083
 \H,0,5.55774128,2.33107326,-2.82609922\H,0,3.8783435,1.80972944,-2.853
 23775\O,0,2.84802571,0.06896171,1.68544384\O,0,3.34134837,-1.13898758,
 2.32978755\H,0,4.11387015,-0.79170718,2.80575145\O,0,8.92527416,2.0671
 6232,-0.28146909\H,0,9.09340539,2.15963938,-1.22980623\C,0,-2.47392805
 ,4.42429934,0.13551995\H,0,-1.95975351,4.55419497,1.09824647\H,0,-1.83
 280665,4.89841352,-0.61863502\C,0,-3.80371936,5.2041753,0.18899629\H,0
 ,-3.5562337,6.26463913,0.32414163\H,0,-4.31252099,5.13692618,-0.780283
 86\C,0,-4.75272284,4.75773139,1.31347622\H,0,-4.1957865,4.75784418,2.2
 6216634\H,0,-5.05844412,3.71695277,1.14267661\C,0,-6.03493675,5.602946
 9,1.50412527\H,0,-6.58732224,5.12887132,2.32896487\C,0,-5.73749179,7.0
 4861032,1.9359583\H,0,-5.24157831,7.61666267,1.1405082\H,0,-6.66416691
 ,7.57830013,2.18491224\H,0,-5.08986329,7.0754185,2.82022012\C,0,-6.952
 56702,5.57257495,0.27052925\H,0,-6.49664375,6.08423549,-0.58494019\H,0
 ,-7.90491603,6.07271807,0.48055458\H,0,-7.17649954,4.54371584,-0.03517
 383\\Version=EM64L-G09RevD.01\HF=-1273.6762638\RMSD=5.655e-07\Dipole=0
 .1108152,0.530575,-0.7925043\Quadrupole=-5.4146347,2.176799,3.2378357,
 2.2290463,-8.3399699,-1.6061078\PG=C01 [X(C27H46O3)]\\@


 GROWING OLD ISN'T SO BAD -- WHEN YOU CONSIDER THE ALTERNATIVE.

                     -- MAURICE CHEVALIER
 Job cpu time:       0 days  0 hours 12 minutes 33.8 seconds.
 File lengths (MBytes):  RWF=    159 Int=      0 D2E=      0 Chk=     11 Scr=      1
 Normal termination of Gaussian 09 at Wed Apr 26 13:52:20 2017.
