 Entering Gaussian System, Link 0=/home/michal/g09/g09
 Input=JOB2-gau_m1-14-1.com
 Output=JOB2-gau_m1-14-1.log
 Initial command:
 /home/michal/g09/l1.exe "/home/michal/gauss_scratch/Gau-11434.inp" -scrdir="/home/michal/gauss_scratch/"
 Entering Link 1 = /home/michal/g09/l1.exe PID=     11435.
  
 Copyright (c) 1988,1990,1992,1993,1995,1998,2003,2009,2013,
            Gaussian, Inc.  All Rights Reserved.
  
 This is part of the Gaussian(R) 09 program.  It is based on
 the Gaussian(R) 03 system (copyright 2003, Gaussian, Inc.),
 the Gaussian(R) 98 system (copyright 1998, Gaussian, Inc.),
 the Gaussian(R) 94 system (copyright 1995, Gaussian, Inc.),
 the Gaussian 92(TM) system (copyright 1992, Gaussian, Inc.),
 the Gaussian 90(TM) system (copyright 1990, Gaussian, Inc.),
 the Gaussian 88(TM) system (copyright 1988, Gaussian, Inc.),
 the Gaussian 86(TM) system (copyright 1986, Carnegie Mellon
 University), and the Gaussian 82(TM) system (copyright 1983,
 Carnegie Mellon University). Gaussian is a federally registered
 trademark of Gaussian, Inc.
  
 This software contains proprietary and confidential information,
 including trade secrets, belonging to Gaussian, Inc.
  
 This software is provided under written license and may be
 used, copied, transmitted, or stored only in accord with that
 written license.
  
 The following legend is applicable only to US Government
 contracts under FAR:
  
                    RESTRICTED RIGHTS LEGEND
  
 Use, reproduction and disclosure by the US Government is
 subject to restrictions as set forth in subparagraphs (a)
 and (c) of the Commercial Computer Software - Restricted
 Rights clause in FAR 52.227-19.
  
 Gaussian, Inc.
 340 Quinnipiac St., Bldg. 40, Wallingford CT 06492
  
  
 ---------------------------------------------------------------
 Warning -- This program may not be used in any manner that
 competes with the business of Gaussian, Inc. or will provide
 assistance to any competitor of Gaussian, Inc.  The licensee
 of this program is prohibited from giving any competitor of
 Gaussian, Inc. access to this program.  By using this program,
 the user acknowledges that Gaussian, Inc. is engaged in the
 business of creating and licensing software in the field of
 computational chemistry and represents and warrants to the
 licensee that it is not a competitor of Gaussian, Inc. and that
 it will not use this program in any manner prohibited above.
 ---------------------------------------------------------------
  

 Cite this work as:
 Gaussian 09, Revision D.01,
 M. J. Frisch, G. W. Trucks, H. B. Schlegel, G. E. Scuseria, 
 M. A. Robb, J. R. Cheeseman, G. Scalmani, V. Barone, B. Mennucci, 
 G. A. Petersson, H. Nakatsuji, M. Caricato, X. Li, H. P. Hratchian, 
 A. F. Izmaylov, J. Bloino, G. Zheng, J. L. Sonnenberg, M. Hada, 
 M. Ehara, K. Toyota, R. Fukuda, J. Hasegawa, M. Ishida, T. Nakajima, 
 Y. Honda, O. Kitao, H. Nakai, T. Vreven, J. A. Montgomery, Jr., 
 J. E. Peralta, F. Ogliaro, M. Bearpark, J. J. Heyd, E. Brothers, 
 K. N. Kudin, V. N. Staroverov, T. Keith, R. Kobayashi, J. Normand, 
 K. Raghavachari, A. Rendell, J. C. Burant, S. S. Iyengar, J. Tomasi, 
 M. Cossi, N. Rega, J. M. Millam, M. Klene, J. E. Knox, J. B. Cross, 
 V. Bakken, C. Adamo, J. Jaramillo, R. Gomperts, R. E. Stratmann, 
 O. Yazyev, A. J. Austin, R. Cammi, C. Pomelli, J. W. Ochterski, 
 R. L. Martin, K. Morokuma, V. G. Zakrzewski, G. A. Voth, 
 P. Salvador, J. J. Dannenberg, S. Dapprich, A. D. Daniels, 
 O. Farkas, J. B. Foresman, J. V. Ortiz, J. Cioslowski, 
 and D. J. Fox, Gaussian, Inc., Wallingford CT, 2013.
 
 ******************************************
 Gaussian 09:  EM64L-G09RevD.01 24-Apr-2013
                26-Apr-2017 
 ******************************************
 %Mem=256MB
 %NProc=12
 Will use up to   12 processors via shared memory.
 ----------------------------------------------------------------------
 #P HF/6-31G* SCF(Conver=6) NoSymm Test Pop=mk IOp(6/33=2) GFInput GFPr
 int
 ----------------------------------------------------------------------
 1/38=1/1;
 2/12=2,15=1,17=6,18=5,40=1/2;
 3/5=1,6=6,7=1,11=9,16=1,24=110,25=1,30=1/1,2,3;
 4//1;
 5/5=2,6=6,38=5/2;
 6/7=2,8=2,9=2,10=2,15=8,20=1,28=1,33=2/1,2;
 99/5=1,9=1/99;
 Leave Link    1 at Wed Apr 26 14:13:06 2017, MaxMem=    33554432 cpu:         0.7
 (Enter /home/michal/g09/l101.exe)
 ----------------------------------------------
 MEP - Input generated by R.E.D.-III.x MOLECULE
 ----------------------------------------------
 Symbolic Z-matrix:
 Charge =  0 Multiplicity = 1
 C                     1.7561   -1.24477   0.14063 
 H                     1.88424  -1.27593  -0.94803 
 C                     3.14331  -1.21597   0.80295 
 H                     3.72297  -2.08656   0.48088 
 H                     2.99777  -1.31698   1.88992 
 C                     3.8999    0.0623    0.49706 
 C                     3.17184   1.38213   0.77527 
 C                     1.7434    1.28446   0.15524 
 H                     1.8411    1.33352  -0.93765 
 H                     1.15843   2.16042   0.45533 
 C                     0.9664    0.0089    0.5167 
 H                     0.74692  -0.01559   1.5945 
 H                     0.        0.        0. 
 C                     5.14459   0.        0. 
 H                     5.59008  -0.97081  -0.20971 
 C                     5.97415   1.19655  -0.36109 
 H                     7.02887   1.02058  -0.12283 
 C                     5.46794   2.48596   0.31374 
 H                     5.6914    2.36323   1.38382 
 C                     3.9313    2.58168   0.10567 
 H                     3.78216   2.46835  -0.9782 
 C                     3.34739   3.96152   0.48896 
 H                     3.28141   4.05749   1.57736 
 H                     2.31818   4.03369   0.11879 
 C                     4.14834   5.16077  -0.05404 
 H                     4.09455   5.17585  -1.15196 
 H                     3.67104   6.08188   0.29535 
 C                     5.62828   5.08657   0.36694 
 C                     6.18361   3.74547  -0.19612 
 H                     6.00068   3.78702  -1.27928 
 C                     7.70393   3.86132   0. 
 H                     8.2565    3.22077  -0.68967 
 H                     7.98717   3.56437   1.01824 
 C                     7.99038   5.36984  -0.23737 
 H                     8.58297   5.78844   0.58486 
 H                     8.57601   5.52593  -1.14887 
 C                     6.606     6.0921   -0.33303 
 H                     6.30429   6.11043  -1.39046 
 C                     5.76412   5.19157   1.90382 
 H                     5.29185   4.35417   2.42376 
 H                     6.81052   5.21823   2.22182 
 H                     5.28901   6.10767   2.27149 
 C                     6.67019   7.56104   0.15513 
 H                     6.98265   7.54215   1.20952 
 C                     5.31948   8.29884   0.09338 
 H                     4.85197   8.21529  -0.89408 
 H                     5.45629   9.36582   0.30644 
 H                     4.60822   7.91105   0.827 
 C                     3.06037   1.56118   2.31436 
 H                     2.38668   2.38411   2.57052 
 H                     2.66813   0.66359   2.79855 
 H                     4.03742   1.76714   2.76202 
 O                     5.87559   1.23854  -1.81655 
 O                     7.11092   1.79412  -2.37628 
 H                     7.37928   1.05231  -2.94196 
 O                     1.05017  -2.4506    0.44486 
 H                     0.86992  -2.47281   1.39522 
 C                     7.76405   8.37695  -0.5852 
 H                     7.81263   9.36943  -0.11445 
 H                     8.74395   7.91622  -0.40819 
 C                     7.5766    8.56508  -2.09967 
 H                     7.54624   7.58573  -2.59166 
 H                     6.60783   9.04225  -2.30118 
 C                     8.68946   9.42172  -2.72283 
 H                     9.65993   8.92376  -2.5732 
 H                     8.74891   10.37134  -2.17166 
 C                     8.52048   9.74033  -4.22238 
 H                     7.53008   10.20341  -4.35353 
 C                     9.57681   10.75899  -4.67947 
 H                     10.58878   10.34876  -4.56781 
 H                     9.44225   11.02649  -5.73381 
 H                     9.52495   11.68133  -4.08957 
 C                     8.57205   8.48157  -5.10356 
 H                     9.53415   7.96556  -4.9873 
 H                     8.46119   8.74065  -6.16275 
 H                     7.77909   7.76959  -4.85424 
 
 NAtoms=     76 NQM=       76 NQMF=       0 NMMI=      0 NMMIF=      0
                NMic=       0 NMicF=      0.
                    Isotopes and Nuclear Properties:
 (Nuclear quadrupole moments (NQMom) in fm**2, nuclear magnetic moments (NMagM)
  in nuclear magnetons)

  Atom         1           2           3           4           5           6           7           8           9          10
 IAtWgt=          12           1          12           1           1          12          12          12           1           1
 AtmWgt=  12.0000000   1.0078250  12.0000000   1.0078250   1.0078250  12.0000000  12.0000000  12.0000000   1.0078250   1.0078250
 NucSpn=           0           1           0           1           1           0           0           0           1           1
 AtZEff=   0.0000000   0.0000000   0.0000000   0.0000000   0.0000000   0.0000000   0.0000000   0.0000000   0.0000000   0.0000000
 NQMom=    0.0000000   0.0000000   0.0000000   0.0000000   0.0000000   0.0000000   0.0000000   0.0000000   0.0000000   0.0000000
 NMagM=    0.0000000   2.7928460   0.0000000   2.7928460   2.7928460   0.0000000   0.0000000   0.0000000   2.7928460   2.7928460
 AtZNuc=   6.0000000   1.0000000   6.0000000   1.0000000   1.0000000   6.0000000   6.0000000   6.0000000   1.0000000   1.0000000

  Atom        11          12          13          14          15          16          17          18          19          20
 IAtWgt=          12           1           1          12           1          12           1          12           1          12
 AtmWgt=  12.0000000   1.0078250   1.0078250  12.0000000   1.0078250  12.0000000   1.0078250  12.0000000   1.0078250  12.0000000
 NucSpn=           0           1           1           0           1           0           1           0           1           0
 AtZEff=   0.0000000   0.0000000   0.0000000   0.0000000   0.0000000   0.0000000   0.0000000   0.0000000   0.0000000   0.0000000
 NQMom=    0.0000000   0.0000000   0.0000000   0.0000000   0.0000000   0.0000000   0.0000000   0.0000000   0.0000000   0.0000000
 NMagM=    0.0000000   2.7928460   2.7928460   0.0000000   2.7928460   0.0000000   2.7928460   0.0000000   2.7928460   0.0000000
 AtZNuc=   6.0000000   1.0000000   1.0000000   6.0000000   1.0000000   6.0000000   1.0000000   6.0000000   1.0000000   6.0000000

  Atom        21          22          23          24          25          26          27          28          29          30
 IAtWgt=           1          12           1           1          12           1           1          12          12           1
 AtmWgt=   1.0078250  12.0000000   1.0078250   1.0078250  12.0000000   1.0078250   1.0078250  12.0000000  12.0000000   1.0078250
 NucSpn=           1           0           1           1           0           1           1           0           0           1
 AtZEff=   0.0000000   0.0000000   0.0000000   0.0000000   0.0000000   0.0000000   0.0000000   0.0000000   0.0000000   0.0000000
 NQMom=    0.0000000   0.0000000   0.0000000   0.0000000   0.0000000   0.0000000   0.0000000   0.0000000   0.0000000   0.0000000
 NMagM=    2.7928460   0.0000000   2.7928460   2.7928460   0.0000000   2.7928460   2.7928460   0.0000000   0.0000000   2.7928460
 AtZNuc=   1.0000000   6.0000000   1.0000000   1.0000000   6.0000000   1.0000000   1.0000000   6.0000000   6.0000000   1.0000000

  Atom        31          32          33          34          35          36          37          38          39          40
 IAtWgt=          12           1           1          12           1           1          12           1          12           1
 AtmWgt=  12.0000000   1.0078250   1.0078250  12.0000000   1.0078250   1.0078250  12.0000000   1.0078250  12.0000000   1.0078250
 NucSpn=           0           1           1           0           1           1           0           1           0           1
 AtZEff=   0.0000000   0.0000000   0.0000000   0.0000000   0.0000000   0.0000000   0.0000000   0.0000000   0.0000000   0.0000000
 NQMom=    0.0000000   0.0000000   0.0000000   0.0000000   0.0000000   0.0000000   0.0000000   0.0000000   0.0000000   0.0000000
 NMagM=    0.0000000   2.7928460   2.7928460   0.0000000   2.7928460   2.7928460   0.0000000   2.7928460   0.0000000   2.7928460
 AtZNuc=   6.0000000   1.0000000   1.0000000   6.0000000   1.0000000   1.0000000   6.0000000   1.0000000   6.0000000   1.0000000

  Atom        41          42          43          44          45          46          47          48          49          50
 IAtWgt=           1           1          12           1          12           1           1           1          12           1
 AtmWgt=   1.0078250   1.0078250  12.0000000   1.0078250  12.0000000   1.0078250   1.0078250   1.0078250  12.0000000   1.0078250
 NucSpn=           1           1           0           1           0           1           1           1           0           1
 AtZEff=   0.0000000   0.0000000   0.0000000   0.0000000   0.0000000   0.0000000   0.0000000   0.0000000   0.0000000   0.0000000
 NQMom=    0.0000000   0.0000000   0.0000000   0.0000000   0.0000000   0.0000000   0.0000000   0.0000000   0.0000000   0.0000000
 NMagM=    2.7928460   2.7928460   0.0000000   2.7928460   0.0000000   2.7928460   2.7928460   2.7928460   0.0000000   2.7928460
 AtZNuc=   1.0000000   1.0000000   6.0000000   1.0000000   6.0000000   1.0000000   1.0000000   1.0000000   6.0000000   1.0000000

  Atom        51          52          53          54          55          56          57          58          59          60
 IAtWgt=           1           1          16          16           1          16           1          12           1           1
 AtmWgt=   1.0078250   1.0078250  15.9949146  15.9949146   1.0078250  15.9949146   1.0078250  12.0000000   1.0078250   1.0078250
 NucSpn=           1           1           0           0           1           0           1           0           1           1
 AtZEff=   0.0000000   0.0000000   0.0000000   0.0000000   0.0000000   0.0000000   0.0000000   0.0000000   0.0000000   0.0000000
 NQMom=    0.0000000   0.0000000   0.0000000   0.0000000   0.0000000   0.0000000   0.0000000   0.0000000   0.0000000   0.0000000
 NMagM=    2.7928460   2.7928460   0.0000000   0.0000000   2.7928460   0.0000000   2.7928460   0.0000000   2.7928460   2.7928460
 AtZNuc=   1.0000000   1.0000000   8.0000000   8.0000000   1.0000000   8.0000000   1.0000000   6.0000000   1.0000000   1.0000000

  Atom        61          62          63          64          65          66          67          68          69          70
 IAtWgt=          12           1           1          12           1           1          12           1          12           1
 AtmWgt=  12.0000000   1.0078250   1.0078250  12.0000000   1.0078250   1.0078250  12.0000000   1.0078250  12.0000000   1.0078250
 NucSpn=           0           1           1           0           1           1           0           1           0           1
 AtZEff=   0.0000000   0.0000000   0.0000000   0.0000000   0.0000000   0.0000000   0.0000000   0.0000000   0.0000000   0.0000000
 NQMom=    0.0000000   0.0000000   0.0000000   0.0000000   0.0000000   0.0000000   0.0000000   0.0000000   0.0000000   0.0000000
 NMagM=    0.0000000   2.7928460   2.7928460   0.0000000   2.7928460   2.7928460   0.0000000   2.7928460   0.0000000   2.7928460
 AtZNuc=   6.0000000   1.0000000   1.0000000   6.0000000   1.0000000   1.0000000   6.0000000   1.0000000   6.0000000   1.0000000

  Atom        71          72          73          74          75          76
 IAtWgt=           1           1          12           1           1           1
 AtmWgt=   1.0078250   1.0078250  12.0000000   1.0078250   1.0078250   1.0078250
 NucSpn=           1           1           0           1           1           1
 AtZEff=   0.0000000   0.0000000   0.0000000   0.0000000   0.0000000   0.0000000
 NQMom=    0.0000000   0.0000000   0.0000000   0.0000000   0.0000000   0.0000000
 NMagM=    2.7928460   2.7928460   0.0000000   2.7928460   2.7928460   2.7928460
 AtZNuc=   1.0000000   1.0000000   6.0000000   1.0000000   1.0000000   1.0000000
 Leave Link  101 at Wed Apr 26 14:13:06 2017, MaxMem=    33554432 cpu:         1.1
 (Enter /home/michal/g09/l202.exe)
 Symmetry turned off by external request.
 Stoichiometry    C27H46O3
 Framework group  C1[X(C27H46O3)]
 Deg. of freedom   222
 Full point group                 C1      NOp   1
                          Input orientation:                          
 ---------------------------------------------------------------------
 Center     Atomic      Atomic             Coordinates (Angstroms)
 Number     Number       Type             X           Y           Z
 ---------------------------------------------------------------------
      1          6           0        1.756103   -1.244772    0.140629
      2          1           0        1.884239   -1.275929   -0.948030
      3          6           0        3.143305   -1.215965    0.802946
      4          1           0        3.722970   -2.086565    0.480884
      5          1           0        2.997767   -1.316978    1.889924
      6          6           0        3.899900    0.062296    0.497065
      7          6           0        3.171839    1.382125    0.775272
      8          6           0        1.743404    1.284465    0.155244
      9          1           0        1.841104    1.333524   -0.937652
     10          1           0        1.158429    2.160422    0.455331
     11          6           0        0.966399    0.008901    0.516699
     12          1           0        0.746916   -0.015589    1.594495
     13          1           0        0.000000    0.000000    0.000000
     14          6           0        5.144588    0.000000    0.000000
     15          1           0        5.590082   -0.970813   -0.209708
     16          6           0        5.974151    1.196551   -0.361095
     17          1           0        7.028873    1.020580   -0.122830
     18          6           0        5.467941    2.485965    0.313738
     19          1           0        5.691402    2.363228    1.383815
     20          6           0        3.931305    2.581683    0.105667
     21          1           0        3.782164    2.468347   -0.978200
     22          6           0        3.347390    3.961522    0.488961
     23          1           0        3.281406    4.057493    1.577363
     24          1           0        2.318184    4.033695    0.118787
     25          6           0        4.148343    5.160774   -0.054040
     26          1           0        4.094550    5.175853   -1.151957
     27          1           0        3.671043    6.081882    0.295352
     28          6           0        5.628281    5.086574    0.366940
     29          6           0        6.183609    3.745471   -0.196122
     30          1           0        6.000684    3.787023   -1.279277
     31          6           0        7.703926    3.861324    0.000000
     32          1           0        8.256505    3.220772   -0.689674
     33          1           0        7.987174    3.564373    1.018243
     34          6           0        7.990376    5.369839   -0.237367
     35          1           0        8.582974    5.788438    0.584859
     36          1           0        8.576007    5.525929   -1.148870
     37          6           0        6.606001    6.092101   -0.333034
     38          1           0        6.304295    6.110434   -1.390458
     39          6           0        5.764123    5.191573    1.903818
     40          1           0        5.291854    4.354172    2.423759
     41          1           0        6.810520    5.218234    2.221817
     42          1           0        5.289011    6.107674    2.271485
     43          6           0        6.670190    7.561039    0.155129
     44          1           0        6.982651    7.542151    1.209521
     45          6           0        5.319483    8.298837    0.093383
     46          1           0        4.851975    8.215293   -0.894079
     47          1           0        5.456285    9.365816    0.306445
     48          1           0        4.608216    7.911050    0.827000
     49          6           0        3.060366    1.561181    2.314362
     50          1           0        2.386682    2.384113    2.570523
     51          1           0        2.668126    0.663591    2.798547
     52          1           0        4.037418    1.767143    2.762022
     53          8           0        5.875594    1.238544   -1.816551
     54          8           0        7.110915    1.794122   -2.376280
     55          1           0        7.379281    1.052309   -2.941962
     56          8           0        1.050169   -2.450599    0.444863
     57          1           0        0.869916   -2.472805    1.395219
     58          6           0        7.764053    8.376951   -0.585202
     59          1           0        7.812630    9.369428   -0.114451
     60          1           0        8.743951    7.916219   -0.408189
     61          6           0        7.576596    8.565084   -2.099667
     62          1           0        7.546237    7.585732   -2.591658
     63          1           0        6.607826    9.042252   -2.301177
     64          6           0        8.689461    9.421716   -2.722826
     65          1           0        9.659930    8.923756   -2.573205
     66          1           0        8.748910   10.371342   -2.171656
     67          6           0        8.520478    9.740325   -4.222381
     68          1           0        7.530076   10.203409   -4.353529
     69          6           0        9.576811   10.758987   -4.679473
     70          1           0       10.588785   10.348758   -4.567811
     71          1           0        9.442251   11.026490   -5.733808
     72          1           0        9.524949   11.681333   -4.089567
     73          6           0        8.572046    8.481573   -5.103557
     74          1           0        9.534151    7.965563   -4.987299
     75          1           0        8.461193    8.740654   -6.162751
     76          1           0        7.779085    7.769588   -4.854238
 ---------------------------------------------------------------------
 Rotational constants (GHZ):      0.3391582      0.0588781      0.0557596
 Leave Link  202 at Wed Apr 26 14:13:06 2017, MaxMem=    33554432 cpu:         0.0
 (Enter /home/michal/g09/l301.exe)
 Standard basis: 6-31G(d) (6D, 7F)
 Ernie: Thresh=  0.10000D-02 Tol=  0.10000D-05 Strict=F.
 AO basis set in the form of general basis input (Overlap normalization):
      1 0
 S   6 1.00       0.000000000000
      0.3047524880D+04  0.1834737132D-02
      0.4573695180D+03  0.1403732281D-01
      0.1039486850D+03  0.6884262226D-01
      0.2921015530D+02  0.2321844432D+00
      0.9286662960D+01  0.4679413484D+00
      0.3163926960D+01  0.3623119853D+00
 SP   3 1.00       0.000000000000
      0.7868272350D+01 -0.1193324198D+00  0.6899906659D-01
      0.1881288540D+01 -0.1608541517D+00  0.3164239610D+00
      0.5442492580D+00  0.1143456438D+01  0.7443082909D+00
 SP   1 1.00       0.000000000000
      0.1687144782D+00  0.1000000000D+01  0.1000000000D+01
 D   1 1.00       0.000000000000
      0.8000000000D+00  0.1000000000D+01
 ****
      2 0
 S   3 1.00       0.000000000000
      0.1873113696D+02  0.3349460434D-01
      0.2825394365D+01  0.2347269535D+00
      0.6401216923D+00  0.8137573261D+00
 S   1 1.00       0.000000000000
      0.1612777588D+00  0.1000000000D+01
 ****
      3 0
 S   6 1.00       0.000000000000
      0.3047524880D+04  0.1834737132D-02
      0.4573695180D+03  0.1403732281D-01
      0.1039486850D+03  0.6884262226D-01
      0.2921015530D+02  0.2321844432D+00
      0.9286662960D+01  0.4679413484D+00
      0.3163926960D+01  0.3623119853D+00
 SP   3 1.00       0.000000000000
      0.7868272350D+01 -0.1193324198D+00  0.6899906659D-01
      0.1881288540D+01 -0.1608541517D+00  0.3164239610D+00
      0.5442492580D+00  0.1143456438D+01  0.7443082909D+00
 SP   1 1.00       0.000000000000
      0.1687144782D+00  0.1000000000D+01  0.1000000000D+01
 D   1 1.00       0.000000000000
      0.8000000000D+00  0.1000000000D+01
 ****
      4 0
 S   3 1.00       0.000000000000
      0.1873113696D+02  0.3349460434D-01
      0.2825394365D+01  0.2347269535D+00
      0.6401216923D+00  0.8137573261D+00
 S   1 1.00       0.000000000000
      0.1612777588D+00  0.1000000000D+01
 ****
      5 0
 S   3 1.00       0.000000000000
      0.1873113696D+02  0.3349460434D-01
      0.2825394365D+01  0.2347269535D+00
      0.6401216923D+00  0.8137573261D+00
 S   1 1.00       0.000000000000
      0.1612777588D+00  0.1000000000D+01
 ****
      6 0
 S   6 1.00       0.000000000000
      0.3047524880D+04  0.1834737132D-02
      0.4573695180D+03  0.1403732281D-01
      0.1039486850D+03  0.6884262226D-01
      0.2921015530D+02  0.2321844432D+00
      0.9286662960D+01  0.4679413484D+00
      0.3163926960D+01  0.3623119853D+00
 SP   3 1.00       0.000000000000
      0.7868272350D+01 -0.1193324198D+00  0.6899906659D-01
      0.1881288540D+01 -0.1608541517D+00  0.3164239610D+00
      0.5442492580D+00  0.1143456438D+01  0.7443082909D+00
 SP   1 1.00       0.000000000000
      0.1687144782D+00  0.1000000000D+01  0.1000000000D+01
 D   1 1.00       0.000000000000
      0.8000000000D+00  0.1000000000D+01
 ****
      7 0
 S   6 1.00       0.000000000000
      0.3047524880D+04  0.1834737132D-02
      0.4573695180D+03  0.1403732281D-01
      0.1039486850D+03  0.6884262226D-01
      0.2921015530D+02  0.2321844432D+00
      0.9286662960D+01  0.4679413484D+00
      0.3163926960D+01  0.3623119853D+00
 SP   3 1.00       0.000000000000
      0.7868272350D+01 -0.1193324198D+00  0.6899906659D-01
      0.1881288540D+01 -0.1608541517D+00  0.3164239610D+00
      0.5442492580D+00  0.1143456438D+01  0.7443082909D+00
 SP   1 1.00       0.000000000000
      0.1687144782D+00  0.1000000000D+01  0.1000000000D+01
 D   1 1.00       0.000000000000
      0.8000000000D+00  0.1000000000D+01
 ****
      8 0
 S   6 1.00       0.000000000000
      0.3047524880D+04  0.1834737132D-02
      0.4573695180D+03  0.1403732281D-01
      0.1039486850D+03  0.6884262226D-01
      0.2921015530D+02  0.2321844432D+00
      0.9286662960D+01  0.4679413484D+00
      0.3163926960D+01  0.3623119853D+00
 SP   3 1.00       0.000000000000
      0.7868272350D+01 -0.1193324198D+00  0.6899906659D-01
      0.1881288540D+01 -0.1608541517D+00  0.3164239610D+00
      0.5442492580D+00  0.1143456438D+01  0.7443082909D+00
 SP   1 1.00       0.000000000000
      0.1687144782D+00  0.1000000000D+01  0.1000000000D+01
 D   1 1.00       0.000000000000
      0.8000000000D+00  0.1000000000D+01
 ****
      9 0
 S   3 1.00       0.000000000000
      0.1873113696D+02  0.3349460434D-01
      0.2825394365D+01  0.2347269535D+00
      0.6401216923D+00  0.8137573261D+00
 S   1 1.00       0.000000000000
      0.1612777588D+00  0.1000000000D+01
 ****
     10 0
 S   3 1.00       0.000000000000
      0.1873113696D+02  0.3349460434D-01
      0.2825394365D+01  0.2347269535D+00
      0.6401216923D+00  0.8137573261D+00
 S   1 1.00       0.000000000000
      0.1612777588D+00  0.1000000000D+01
 ****
     11 0
 S   6 1.00       0.000000000000
      0.3047524880D+04  0.1834737132D-02
      0.4573695180D+03  0.1403732281D-01
      0.1039486850D+03  0.6884262226D-01
      0.2921015530D+02  0.2321844432D+00
      0.9286662960D+01  0.4679413484D+00
      0.3163926960D+01  0.3623119853D+00
 SP   3 1.00       0.000000000000
      0.7868272350D+01 -0.1193324198D+00  0.6899906659D-01
      0.1881288540D+01 -0.1608541517D+00  0.3164239610D+00
      0.5442492580D+00  0.1143456438D+01  0.7443082909D+00
 SP   1 1.00       0.000000000000
      0.1687144782D+00  0.1000000000D+01  0.1000000000D+01
 D   1 1.00       0.000000000000
      0.8000000000D+00  0.1000000000D+01
 ****
     12 0
 S   3 1.00       0.000000000000
      0.1873113696D+02  0.3349460434D-01
      0.2825394365D+01  0.2347269535D+00
      0.6401216923D+00  0.8137573261D+00
 S   1 1.00       0.000000000000
      0.1612777588D+00  0.1000000000D+01
 ****
     13 0
 S   3 1.00       0.000000000000
      0.1873113696D+02  0.3349460434D-01
      0.2825394365D+01  0.2347269535D+00
      0.6401216923D+00  0.8137573261D+00
 S   1 1.00       0.000000000000
      0.1612777588D+00  0.1000000000D+01
 ****
     14 0
 S   6 1.00       0.000000000000
      0.3047524880D+04  0.1834737132D-02
      0.4573695180D+03  0.1403732281D-01
      0.1039486850D+03  0.6884262226D-01
      0.2921015530D+02  0.2321844432D+00
      0.9286662960D+01  0.4679413484D+00
      0.3163926960D+01  0.3623119853D+00
 SP   3 1.00       0.000000000000
      0.7868272350D+01 -0.1193324198D+00  0.6899906659D-01
      0.1881288540D+01 -0.1608541517D+00  0.3164239610D+00
      0.5442492580D+00  0.1143456438D+01  0.7443082909D+00
 SP   1 1.00       0.000000000000
      0.1687144782D+00  0.1000000000D+01  0.1000000000D+01
 D   1 1.00       0.000000000000
      0.8000000000D+00  0.1000000000D+01
 ****
     15 0
 S   3 1.00       0.000000000000
      0.1873113696D+02  0.3349460434D-01
      0.2825394365D+01  0.2347269535D+00
      0.6401216923D+00  0.8137573261D+00
 S   1 1.00       0.000000000000
      0.1612777588D+00  0.1000000000D+01
 ****
     16 0
 S   6 1.00       0.000000000000
      0.3047524880D+04  0.1834737132D-02
      0.4573695180D+03  0.1403732281D-01
      0.1039486850D+03  0.6884262226D-01
      0.2921015530D+02  0.2321844432D+00
      0.9286662960D+01  0.4679413484D+00
      0.3163926960D+01  0.3623119853D+00
 SP   3 1.00       0.000000000000
      0.7868272350D+01 -0.1193324198D+00  0.6899906659D-01
      0.1881288540D+01 -0.1608541517D+00  0.3164239610D+00
      0.5442492580D+00  0.1143456438D+01  0.7443082909D+00
 SP   1 1.00       0.000000000000
      0.1687144782D+00  0.1000000000D+01  0.1000000000D+01
 D   1 1.00       0.000000000000
      0.8000000000D+00  0.1000000000D+01
 ****
     17 0
 S   3 1.00       0.000000000000
      0.1873113696D+02  0.3349460434D-01
      0.2825394365D+01  0.2347269535D+00
      0.6401216923D+00  0.8137573261D+00
 S   1 1.00       0.000000000000
      0.1612777588D+00  0.1000000000D+01
 ****
     18 0
 S   6 1.00       0.000000000000
      0.3047524880D+04  0.1834737132D-02
      0.4573695180D+03  0.1403732281D-01
      0.1039486850D+03  0.6884262226D-01
      0.2921015530D+02  0.2321844432D+00
      0.9286662960D+01  0.4679413484D+00
      0.3163926960D+01  0.3623119853D+00
 SP   3 1.00       0.000000000000
      0.7868272350D+01 -0.1193324198D+00  0.6899906659D-01
      0.1881288540D+01 -0.1608541517D+00  0.3164239610D+00
      0.5442492580D+00  0.1143456438D+01  0.7443082909D+00
 SP   1 1.00       0.000000000000
      0.1687144782D+00  0.1000000000D+01  0.1000000000D+01
 D   1 1.00       0.000000000000
      0.8000000000D+00  0.1000000000D+01
 ****
     19 0
 S   3 1.00       0.000000000000
      0.1873113696D+02  0.3349460434D-01
      0.2825394365D+01  0.2347269535D+00
      0.6401216923D+00  0.8137573261D+00
 S   1 1.00       0.000000000000
      0.1612777588D+00  0.1000000000D+01
 ****
     20 0
 S   6 1.00       0.000000000000
      0.3047524880D+04  0.1834737132D-02
      0.4573695180D+03  0.1403732281D-01
      0.1039486850D+03  0.6884262226D-01
      0.2921015530D+02  0.2321844432D+00
      0.9286662960D+01  0.4679413484D+00
      0.3163926960D+01  0.3623119853D+00
 SP   3 1.00       0.000000000000
      0.7868272350D+01 -0.1193324198D+00  0.6899906659D-01
      0.1881288540D+01 -0.1608541517D+00  0.3164239610D+00
      0.5442492580D+00  0.1143456438D+01  0.7443082909D+00
 SP   1 1.00       0.000000000000
      0.1687144782D+00  0.1000000000D+01  0.1000000000D+01
 D   1 1.00       0.000000000000
      0.8000000000D+00  0.1000000000D+01
 ****
     21 0
 S   3 1.00       0.000000000000
      0.1873113696D+02  0.3349460434D-01
      0.2825394365D+01  0.2347269535D+00
      0.6401216923D+00  0.8137573261D+00
 S   1 1.00       0.000000000000
      0.1612777588D+00  0.1000000000D+01
 ****
     22 0
 S   6 1.00       0.000000000000
      0.3047524880D+04  0.1834737132D-02
      0.4573695180D+03  0.1403732281D-01
      0.1039486850D+03  0.6884262226D-01
      0.2921015530D+02  0.2321844432D+00
      0.9286662960D+01  0.4679413484D+00
      0.3163926960D+01  0.3623119853D+00
 SP   3 1.00       0.000000000000
      0.7868272350D+01 -0.1193324198D+00  0.6899906659D-01
      0.1881288540D+01 -0.1608541517D+00  0.3164239610D+00
      0.5442492580D+00  0.1143456438D+01  0.7443082909D+00
 SP   1 1.00       0.000000000000
      0.1687144782D+00  0.1000000000D+01  0.1000000000D+01
 D   1 1.00       0.000000000000
      0.8000000000D+00  0.1000000000D+01
 ****
     23 0
 S   3 1.00       0.000000000000
      0.1873113696D+02  0.3349460434D-01
      0.2825394365D+01  0.2347269535D+00
      0.6401216923D+00  0.8137573261D+00
 S   1 1.00       0.000000000000
      0.1612777588D+00  0.1000000000D+01
 ****
     24 0
 S   3 1.00       0.000000000000
      0.1873113696D+02  0.3349460434D-01
      0.2825394365D+01  0.2347269535D+00
      0.6401216923D+00  0.8137573261D+00
 S   1 1.00       0.000000000000
      0.1612777588D+00  0.1000000000D+01
 ****
     25 0
 S   6 1.00       0.000000000000
      0.3047524880D+04  0.1834737132D-02
      0.4573695180D+03  0.1403732281D-01
      0.1039486850D+03  0.6884262226D-01
      0.2921015530D+02  0.2321844432D+00
      0.9286662960D+01  0.4679413484D+00
      0.3163926960D+01  0.3623119853D+00
 SP   3 1.00       0.000000000000
      0.7868272350D+01 -0.1193324198D+00  0.6899906659D-01
      0.1881288540D+01 -0.1608541517D+00  0.3164239610D+00
      0.5442492580D+00  0.1143456438D+01  0.7443082909D+00
 SP   1 1.00       0.000000000000
      0.1687144782D+00  0.1000000000D+01  0.1000000000D+01
 D   1 1.00       0.000000000000
      0.8000000000D+00  0.1000000000D+01
 ****
     26 0
 S   3 1.00       0.000000000000
      0.1873113696D+02  0.3349460434D-01
      0.2825394365D+01  0.2347269535D+00
      0.6401216923D+00  0.8137573261D+00
 S   1 1.00       0.000000000000
      0.1612777588D+00  0.1000000000D+01
 ****
     27 0
 S   3 1.00       0.000000000000
      0.1873113696D+02  0.3349460434D-01
      0.2825394365D+01  0.2347269535D+00
      0.6401216923D+00  0.8137573261D+00
 S   1 1.00       0.000000000000
      0.1612777588D+00  0.1000000000D+01
 ****
     28 0
 S   6 1.00       0.000000000000
      0.3047524880D+04  0.1834737132D-02
      0.4573695180D+03  0.1403732281D-01
      0.1039486850D+03  0.6884262226D-01
      0.2921015530D+02  0.2321844432D+00
      0.9286662960D+01  0.4679413484D+00
      0.3163926960D+01  0.3623119853D+00
 SP   3 1.00       0.000000000000
      0.7868272350D+01 -0.1193324198D+00  0.6899906659D-01
      0.1881288540D+01 -0.1608541517D+00  0.3164239610D+00
      0.5442492580D+00  0.1143456438D+01  0.7443082909D+00
 SP   1 1.00       0.000000000000
      0.1687144782D+00  0.1000000000D+01  0.1000000000D+01
 D   1 1.00       0.000000000000
      0.8000000000D+00  0.1000000000D+01
 ****
     29 0
 S   6 1.00       0.000000000000
      0.3047524880D+04  0.1834737132D-02
      0.4573695180D+03  0.1403732281D-01
      0.1039486850D+03  0.6884262226D-01
      0.2921015530D+02  0.2321844432D+00
      0.9286662960D+01  0.4679413484D+00
      0.3163926960D+01  0.3623119853D+00
 SP   3 1.00       0.000000000000
      0.7868272350D+01 -0.1193324198D+00  0.6899906659D-01
      0.1881288540D+01 -0.1608541517D+00  0.3164239610D+00
      0.5442492580D+00  0.1143456438D+01  0.7443082909D+00
 SP   1 1.00       0.000000000000
      0.1687144782D+00  0.1000000000D+01  0.1000000000D+01
 D   1 1.00       0.000000000000
      0.8000000000D+00  0.1000000000D+01
 ****
     30 0
 S   3 1.00       0.000000000000
      0.1873113696D+02  0.3349460434D-01
      0.2825394365D+01  0.2347269535D+00
      0.6401216923D+00  0.8137573261D+00
 S   1 1.00       0.000000000000
      0.1612777588D+00  0.1000000000D+01
 ****
     31 0
 S   6 1.00       0.000000000000
      0.3047524880D+04  0.1834737132D-02
      0.4573695180D+03  0.1403732281D-01
      0.1039486850D+03  0.6884262226D-01
      0.2921015530D+02  0.2321844432D+00
      0.9286662960D+01  0.4679413484D+00
      0.3163926960D+01  0.3623119853D+00
 SP   3 1.00       0.000000000000
      0.7868272350D+01 -0.1193324198D+00  0.6899906659D-01
      0.1881288540D+01 -0.1608541517D+00  0.3164239610D+00
      0.5442492580D+00  0.1143456438D+01  0.7443082909D+00
 SP   1 1.00       0.000000000000
      0.1687144782D+00  0.1000000000D+01  0.1000000000D+01
 D   1 1.00       0.000000000000
      0.8000000000D+00  0.1000000000D+01
 ****
     32 0
 S   3 1.00       0.000000000000
      0.1873113696D+02  0.3349460434D-01
      0.2825394365D+01  0.2347269535D+00
      0.6401216923D+00  0.8137573261D+00
 S   1 1.00       0.000000000000
      0.1612777588D+00  0.1000000000D+01
 ****
     33 0
 S   3 1.00       0.000000000000
      0.1873113696D+02  0.3349460434D-01
      0.2825394365D+01  0.2347269535D+00
      0.6401216923D+00  0.8137573261D+00
 S   1 1.00       0.000000000000
      0.1612777588D+00  0.1000000000D+01
 ****
     34 0
 S   6 1.00       0.000000000000
      0.3047524880D+04  0.1834737132D-02
      0.4573695180D+03  0.1403732281D-01
      0.1039486850D+03  0.6884262226D-01
      0.2921015530D+02  0.2321844432D+00
      0.9286662960D+01  0.4679413484D+00
      0.3163926960D+01  0.3623119853D+00
 SP   3 1.00       0.000000000000
      0.7868272350D+01 -0.1193324198D+00  0.6899906659D-01
      0.1881288540D+01 -0.1608541517D+00  0.3164239610D+00
      0.5442492580D+00  0.1143456438D+01  0.7443082909D+00
 SP   1 1.00       0.000000000000
      0.1687144782D+00  0.1000000000D+01  0.1000000000D+01
 D   1 1.00       0.000000000000
      0.8000000000D+00  0.1000000000D+01
 ****
     35 0
 S   3 1.00       0.000000000000
      0.1873113696D+02  0.3349460434D-01
      0.2825394365D+01  0.2347269535D+00
      0.6401216923D+00  0.8137573261D+00
 S   1 1.00       0.000000000000
      0.1612777588D+00  0.1000000000D+01
 ****
     36 0
 S   3 1.00       0.000000000000
      0.1873113696D+02  0.3349460434D-01
      0.2825394365D+01  0.2347269535D+00
      0.6401216923D+00  0.8137573261D+00
 S   1 1.00       0.000000000000
      0.1612777588D+00  0.1000000000D+01
 ****
     37 0
 S   6 1.00       0.000000000000
      0.3047524880D+04  0.1834737132D-02
      0.4573695180D+03  0.1403732281D-01
      0.1039486850D+03  0.6884262226D-01
      0.2921015530D+02  0.2321844432D+00
      0.9286662960D+01  0.4679413484D+00
      0.3163926960D+01  0.3623119853D+00
 SP   3 1.00       0.000000000000
      0.7868272350D+01 -0.1193324198D+00  0.6899906659D-01
      0.1881288540D+01 -0.1608541517D+00  0.3164239610D+00
      0.5442492580D+00  0.1143456438D+01  0.7443082909D+00
 SP   1 1.00       0.000000000000
      0.1687144782D+00  0.1000000000D+01  0.1000000000D+01
 D   1 1.00       0.000000000000
      0.8000000000D+00  0.1000000000D+01
 ****
     38 0
 S   3 1.00       0.000000000000
      0.1873113696D+02  0.3349460434D-01
      0.2825394365D+01  0.2347269535D+00
      0.6401216923D+00  0.8137573261D+00
 S   1 1.00       0.000000000000
      0.1612777588D+00  0.1000000000D+01
 ****
     39 0
 S   6 1.00       0.000000000000
      0.3047524880D+04  0.1834737132D-02
      0.4573695180D+03  0.1403732281D-01
      0.1039486850D+03  0.6884262226D-01
      0.2921015530D+02  0.2321844432D+00
      0.9286662960D+01  0.4679413484D+00
      0.3163926960D+01  0.3623119853D+00
 SP   3 1.00       0.000000000000
      0.7868272350D+01 -0.1193324198D+00  0.6899906659D-01
      0.1881288540D+01 -0.1608541517D+00  0.3164239610D+00
      0.5442492580D+00  0.1143456438D+01  0.7443082909D+00
 SP   1 1.00       0.000000000000
      0.1687144782D+00  0.1000000000D+01  0.1000000000D+01
 D   1 1.00       0.000000000000
      0.8000000000D+00  0.1000000000D+01
 ****
     40 0
 S   3 1.00       0.000000000000
      0.1873113696D+02  0.3349460434D-01
      0.2825394365D+01  0.2347269535D+00
      0.6401216923D+00  0.8137573261D+00
 S   1 1.00       0.000000000000
      0.1612777588D+00  0.1000000000D+01
 ****
     41 0
 S   3 1.00       0.000000000000
      0.1873113696D+02  0.3349460434D-01
      0.2825394365D+01  0.2347269535D+00
      0.6401216923D+00  0.8137573261D+00
 S   1 1.00       0.000000000000
      0.1612777588D+00  0.1000000000D+01
 ****
     42 0
 S   3 1.00       0.000000000000
      0.1873113696D+02  0.3349460434D-01
      0.2825394365D+01  0.2347269535D+00
      0.6401216923D+00  0.8137573261D+00
 S   1 1.00       0.000000000000
      0.1612777588D+00  0.1000000000D+01
 ****
     43 0
 S   6 1.00       0.000000000000
      0.3047524880D+04  0.1834737132D-02
      0.4573695180D+03  0.1403732281D-01
      0.1039486850D+03  0.6884262226D-01
      0.2921015530D+02  0.2321844432D+00
      0.9286662960D+01  0.4679413484D+00
      0.3163926960D+01  0.3623119853D+00
 SP   3 1.00       0.000000000000
      0.7868272350D+01 -0.1193324198D+00  0.6899906659D-01
      0.1881288540D+01 -0.1608541517D+00  0.3164239610D+00
      0.5442492580D+00  0.1143456438D+01  0.7443082909D+00
 SP   1 1.00       0.000000000000
      0.1687144782D+00  0.1000000000D+01  0.1000000000D+01
 D   1 1.00       0.000000000000
      0.8000000000D+00  0.1000000000D+01
 ****
     44 0
 S   3 1.00       0.000000000000
      0.1873113696D+02  0.3349460434D-01
      0.2825394365D+01  0.2347269535D+00
      0.6401216923D+00  0.8137573261D+00
 S   1 1.00       0.000000000000
      0.1612777588D+00  0.1000000000D+01
 ****
     45 0
 S   6 1.00       0.000000000000
      0.3047524880D+04  0.1834737132D-02
      0.4573695180D+03  0.1403732281D-01
      0.1039486850D+03  0.6884262226D-01
      0.2921015530D+02  0.2321844432D+00
      0.9286662960D+01  0.4679413484D+00
      0.3163926960D+01  0.3623119853D+00
 SP   3 1.00       0.000000000000
      0.7868272350D+01 -0.1193324198D+00  0.6899906659D-01
      0.1881288540D+01 -0.1608541517D+00  0.3164239610D+00
      0.5442492580D+00  0.1143456438D+01  0.7443082909D+00
 SP   1 1.00       0.000000000000
      0.1687144782D+00  0.1000000000D+01  0.1000000000D+01
 D   1 1.00       0.000000000000
      0.8000000000D+00  0.1000000000D+01
 ****
     46 0
 S   3 1.00       0.000000000000
      0.1873113696D+02  0.3349460434D-01
      0.2825394365D+01  0.2347269535D+00
      0.6401216923D+00  0.8137573261D+00
 S   1 1.00       0.000000000000
      0.1612777588D+00  0.1000000000D+01
 ****
     47 0
 S   3 1.00       0.000000000000
      0.1873113696D+02  0.3349460434D-01
      0.2825394365D+01  0.2347269535D+00
      0.6401216923D+00  0.8137573261D+00
 S   1 1.00       0.000000000000
      0.1612777588D+00  0.1000000000D+01
 ****
     48 0
 S   3 1.00       0.000000000000
      0.1873113696D+02  0.3349460434D-01
      0.2825394365D+01  0.2347269535D+00
      0.6401216923D+00  0.8137573261D+00
 S   1 1.00       0.000000000000
      0.1612777588D+00  0.1000000000D+01
 ****
     49 0
 S   6 1.00       0.000000000000
      0.3047524880D+04  0.1834737132D-02
      0.4573695180D+03  0.1403732281D-01
      0.1039486850D+03  0.6884262226D-01
      0.2921015530D+02  0.2321844432D+00
      0.9286662960D+01  0.4679413484D+00
      0.3163926960D+01  0.3623119853D+00
 SP   3 1.00       0.000000000000
      0.7868272350D+01 -0.1193324198D+00  0.6899906659D-01
      0.1881288540D+01 -0.1608541517D+00  0.3164239610D+00
      0.5442492580D+00  0.1143456438D+01  0.7443082909D+00
 SP   1 1.00       0.000000000000
      0.1687144782D+00  0.1000000000D+01  0.1000000000D+01
 D   1 1.00       0.000000000000
      0.8000000000D+00  0.1000000000D+01
 ****
     50 0
 S   3 1.00       0.000000000000
      0.1873113696D+02  0.3349460434D-01
      0.2825394365D+01  0.2347269535D+00
      0.6401216923D+00  0.8137573261D+00
 S   1 1.00       0.000000000000
      0.1612777588D+00  0.1000000000D+01
 ****
     51 0
 S   3 1.00       0.000000000000
      0.1873113696D+02  0.3349460434D-01
      0.2825394365D+01  0.2347269535D+00
      0.6401216923D+00  0.8137573261D+00
 S   1 1.00       0.000000000000
      0.1612777588D+00  0.1000000000D+01
 ****
     52 0
 S   3 1.00       0.000000000000
      0.1873113696D+02  0.3349460434D-01
      0.2825394365D+01  0.2347269535D+00
      0.6401216923D+00  0.8137573261D+00
 S   1 1.00       0.000000000000
      0.1612777588D+00  0.1000000000D+01
 ****
     53 0
 S   6 1.00       0.000000000000
      0.5484671660D+04  0.1831074430D-02
      0.8252349460D+03  0.1395017220D-01
      0.1880469580D+03  0.6844507810D-01
      0.5296450000D+02  0.2327143360D+00
      0.1689757040D+02  0.4701928980D+00
      0.5799635340D+01  0.3585208530D+00
 SP   3 1.00       0.000000000000
      0.1553961625D+02 -0.1107775495D+00  0.7087426823D-01
      0.3599933586D+01 -0.1480262627D+00  0.3397528391D+00
      0.1013761750D+01  0.1130767015D+01  0.7271585773D+00
 SP   1 1.00       0.000000000000
      0.2700058226D+00  0.1000000000D+01  0.1000000000D+01
 D   1 1.00       0.000000000000
      0.8000000000D+00  0.1000000000D+01
 ****
     54 0
 S   6 1.00       0.000000000000
      0.5484671660D+04  0.1831074430D-02
      0.8252349460D+03  0.1395017220D-01
      0.1880469580D+03  0.6844507810D-01
      0.5296450000D+02  0.2327143360D+00
      0.1689757040D+02  0.4701928980D+00
      0.5799635340D+01  0.3585208530D+00
 SP   3 1.00       0.000000000000
      0.1553961625D+02 -0.1107775495D+00  0.7087426823D-01
      0.3599933586D+01 -0.1480262627D+00  0.3397528391D+00
      0.1013761750D+01  0.1130767015D+01  0.7271585773D+00
 SP   1 1.00       0.000000000000
      0.2700058226D+00  0.1000000000D+01  0.1000000000D+01
 D   1 1.00       0.000000000000
      0.8000000000D+00  0.1000000000D+01
 ****
     55 0
 S   3 1.00       0.000000000000
      0.1873113696D+02  0.3349460434D-01
      0.2825394365D+01  0.2347269535D+00
      0.6401216923D+00  0.8137573261D+00
 S   1 1.00       0.000000000000
      0.1612777588D+00  0.1000000000D+01
 ****
     56 0
 S   6 1.00       0.000000000000
      0.5484671660D+04  0.1831074430D-02
      0.8252349460D+03  0.1395017220D-01
      0.1880469580D+03  0.6844507810D-01
      0.5296450000D+02  0.2327143360D+00
      0.1689757040D+02  0.4701928980D+00
      0.5799635340D+01  0.3585208530D+00
 SP   3 1.00       0.000000000000
      0.1553961625D+02 -0.1107775495D+00  0.7087426823D-01
      0.3599933586D+01 -0.1480262627D+00  0.3397528391D+00
      0.1013761750D+01  0.1130767015D+01  0.7271585773D+00
 SP   1 1.00       0.000000000000
      0.2700058226D+00  0.1000000000D+01  0.1000000000D+01
 D   1 1.00       0.000000000000
      0.8000000000D+00  0.1000000000D+01
 ****
     57 0
 S   3 1.00       0.000000000000
      0.1873113696D+02  0.3349460434D-01
      0.2825394365D+01  0.2347269535D+00
      0.6401216923D+00  0.8137573261D+00
 S   1 1.00       0.000000000000
      0.1612777588D+00  0.1000000000D+01
 ****
     58 0
 S   6 1.00       0.000000000000
      0.3047524880D+04  0.1834737132D-02
      0.4573695180D+03  0.1403732281D-01
      0.1039486850D+03  0.6884262226D-01
      0.2921015530D+02  0.2321844432D+00
      0.9286662960D+01  0.4679413484D+00
      0.3163926960D+01  0.3623119853D+00
 SP   3 1.00       0.000000000000
      0.7868272350D+01 -0.1193324198D+00  0.6899906659D-01
      0.1881288540D+01 -0.1608541517D+00  0.3164239610D+00
      0.5442492580D+00  0.1143456438D+01  0.7443082909D+00
 SP   1 1.00       0.000000000000
      0.1687144782D+00  0.1000000000D+01  0.1000000000D+01
 D   1 1.00       0.000000000000
      0.8000000000D+00  0.1000000000D+01
 ****
     59 0
 S   3 1.00       0.000000000000
      0.1873113696D+02  0.3349460434D-01
      0.2825394365D+01  0.2347269535D+00
      0.6401216923D+00  0.8137573261D+00
 S   1 1.00       0.000000000000
      0.1612777588D+00  0.1000000000D+01
 ****
     60 0
 S   3 1.00       0.000000000000
      0.1873113696D+02  0.3349460434D-01
      0.2825394365D+01  0.2347269535D+00
      0.6401216923D+00  0.8137573261D+00
 S   1 1.00       0.000000000000
      0.1612777588D+00  0.1000000000D+01
 ****
     61 0
 S   6 1.00       0.000000000000
      0.3047524880D+04  0.1834737132D-02
      0.4573695180D+03  0.1403732281D-01
      0.1039486850D+03  0.6884262226D-01
      0.2921015530D+02  0.2321844432D+00
      0.9286662960D+01  0.4679413484D+00
      0.3163926960D+01  0.3623119853D+00
 SP   3 1.00       0.000000000000
      0.7868272350D+01 -0.1193324198D+00  0.6899906659D-01
      0.1881288540D+01 -0.1608541517D+00  0.3164239610D+00
      0.5442492580D+00  0.1143456438D+01  0.7443082909D+00
 SP   1 1.00       0.000000000000
      0.1687144782D+00  0.1000000000D+01  0.1000000000D+01
 D   1 1.00       0.000000000000
      0.8000000000D+00  0.1000000000D+01
 ****
     62 0
 S   3 1.00       0.000000000000
      0.1873113696D+02  0.3349460434D-01
      0.2825394365D+01  0.2347269535D+00
      0.6401216923D+00  0.8137573261D+00
 S   1 1.00       0.000000000000
      0.1612777588D+00  0.1000000000D+01
 ****
     63 0
 S   3 1.00       0.000000000000
      0.1873113696D+02  0.3349460434D-01
      0.2825394365D+01  0.2347269535D+00
      0.6401216923D+00  0.8137573261D+00
 S   1 1.00       0.000000000000
      0.1612777588D+00  0.1000000000D+01
 ****
     64 0
 S   6 1.00       0.000000000000
      0.3047524880D+04  0.1834737132D-02
      0.4573695180D+03  0.1403732281D-01
      0.1039486850D+03  0.6884262226D-01
      0.2921015530D+02  0.2321844432D+00
      0.9286662960D+01  0.4679413484D+00
      0.3163926960D+01  0.3623119853D+00
 SP   3 1.00       0.000000000000
      0.7868272350D+01 -0.1193324198D+00  0.6899906659D-01
      0.1881288540D+01 -0.1608541517D+00  0.3164239610D+00
      0.5442492580D+00  0.1143456438D+01  0.7443082909D+00
 SP   1 1.00       0.000000000000
      0.1687144782D+00  0.1000000000D+01  0.1000000000D+01
 D   1 1.00       0.000000000000
      0.8000000000D+00  0.1000000000D+01
 ****
     65 0
 S   3 1.00       0.000000000000
      0.1873113696D+02  0.3349460434D-01
      0.2825394365D+01  0.2347269535D+00
      0.6401216923D+00  0.8137573261D+00
 S   1 1.00       0.000000000000
      0.1612777588D+00  0.1000000000D+01
 ****
     66 0
 S   3 1.00       0.000000000000
      0.1873113696D+02  0.3349460434D-01
      0.2825394365D+01  0.2347269535D+00
      0.6401216923D+00  0.8137573261D+00
 S   1 1.00       0.000000000000
      0.1612777588D+00  0.1000000000D+01
 ****
     67 0
 S   6 1.00       0.000000000000
      0.3047524880D+04  0.1834737132D-02
      0.4573695180D+03  0.1403732281D-01
      0.1039486850D+03  0.6884262226D-01
      0.2921015530D+02  0.2321844432D+00
      0.9286662960D+01  0.4679413484D+00
      0.3163926960D+01  0.3623119853D+00
 SP   3 1.00       0.000000000000
      0.7868272350D+01 -0.1193324198D+00  0.6899906659D-01
      0.1881288540D+01 -0.1608541517D+00  0.3164239610D+00
      0.5442492580D+00  0.1143456438D+01  0.7443082909D+00
 SP   1 1.00       0.000000000000
      0.1687144782D+00  0.1000000000D+01  0.1000000000D+01
 D   1 1.00       0.000000000000
      0.8000000000D+00  0.1000000000D+01
 ****
     68 0
 S   3 1.00       0.000000000000
      0.1873113696D+02  0.3349460434D-01
      0.2825394365D+01  0.2347269535D+00
      0.6401216923D+00  0.8137573261D+00
 S   1 1.00       0.000000000000
      0.1612777588D+00  0.1000000000D+01
 ****
     69 0
 S   6 1.00       0.000000000000
      0.3047524880D+04  0.1834737132D-02
      0.4573695180D+03  0.1403732281D-01
      0.1039486850D+03  0.6884262226D-01
      0.2921015530D+02  0.2321844432D+00
      0.9286662960D+01  0.4679413484D+00
      0.3163926960D+01  0.3623119853D+00
 SP   3 1.00       0.000000000000
      0.7868272350D+01 -0.1193324198D+00  0.6899906659D-01
      0.1881288540D+01 -0.1608541517D+00  0.3164239610D+00
      0.5442492580D+00  0.1143456438D+01  0.7443082909D+00
 SP   1 1.00       0.000000000000
      0.1687144782D+00  0.1000000000D+01  0.1000000000D+01
 D   1 1.00       0.000000000000
      0.8000000000D+00  0.1000000000D+01
 ****
     70 0
 S   3 1.00       0.000000000000
      0.1873113696D+02  0.3349460434D-01
      0.2825394365D+01  0.2347269535D+00
      0.6401216923D+00  0.8137573261D+00
 S   1 1.00       0.000000000000
      0.1612777588D+00  0.1000000000D+01
 ****
     71 0
 S   3 1.00       0.000000000000
      0.1873113696D+02  0.3349460434D-01
      0.2825394365D+01  0.2347269535D+00
      0.6401216923D+00  0.8137573261D+00
 S   1 1.00       0.000000000000
      0.1612777588D+00  0.1000000000D+01
 ****
     72 0
 S   3 1.00       0.000000000000
      0.1873113696D+02  0.3349460434D-01
      0.2825394365D+01  0.2347269535D+00
      0.6401216923D+00  0.8137573261D+00
 S   1 1.00       0.000000000000
      0.1612777588D+00  0.1000000000D+01
 ****
     73 0
 S   6 1.00       0.000000000000
      0.3047524880D+04  0.1834737132D-02
      0.4573695180D+03  0.1403732281D-01
      0.1039486850D+03  0.6884262226D-01
      0.2921015530D+02  0.2321844432D+00
      0.9286662960D+01  0.4679413484D+00
      0.3163926960D+01  0.3623119853D+00
 SP   3 1.00       0.000000000000
      0.7868272350D+01 -0.1193324198D+00  0.6899906659D-01
      0.1881288540D+01 -0.1608541517D+00  0.3164239610D+00
      0.5442492580D+00  0.1143456438D+01  0.7443082909D+00
 SP   1 1.00       0.000000000000
      0.1687144782D+00  0.1000000000D+01  0.1000000000D+01
 D   1 1.00       0.000000000000
      0.8000000000D+00  0.1000000000D+01
 ****
     74 0
 S   3 1.00       0.000000000000
      0.1873113696D+02  0.3349460434D-01
      0.2825394365D+01  0.2347269535D+00
      0.6401216923D+00  0.8137573261D+00
 S   1 1.00       0.000000000000
      0.1612777588D+00  0.1000000000D+01
 ****
     75 0
 S   3 1.00       0.000000000000
      0.1873113696D+02  0.3349460434D-01
      0.2825394365D+01  0.2347269535D+00
      0.6401216923D+00  0.8137573261D+00
 S   1 1.00       0.000000000000
      0.1612777588D+00  0.1000000000D+01
 ****
     76 0
 S   3 1.00       0.000000000000
      0.1873113696D+02  0.3349460434D-01
      0.2825394365D+01  0.2347269535D+00
      0.6401216923D+00  0.8137573261D+00
 S   1 1.00       0.000000000000
      0.1612777588D+00  0.1000000000D+01
 ****

 AO basis set (Overlap normalization):
 Atom C1       Shell     1 S   6     bf    1 -     1          3.318554373646         -2.352278461343          0.265750107369
      0.3047524880D+04  0.1834737132D-02
      0.4573695180D+03  0.1403732281D-01
      0.1039486850D+03  0.6884262226D-01
      0.2921015530D+02  0.2321844432D+00
      0.9286662960D+01  0.4679413484D+00
      0.3163926960D+01  0.3623119853D+00
 Atom C1       Shell     2 SP   3    bf    2 -     5          3.318554373646         -2.352278461343          0.265750107369
      0.7868272350D+01 -0.1193324198D+00  0.6899906659D-01
      0.1881288540D+01 -0.1608541517D+00  0.3164239610D+00
      0.5442492580D+00  0.1143456438D+01  0.7443082909D+00
 Atom C1       Shell     3 SP   1    bf    6 -     9          3.318554373646         -2.352278461343          0.265750107369
      0.1687144782D+00  0.1000000000D+01  0.1000000000D+01
 Atom C1       Shell     4 D   1     bf   10 -    15          3.318554373646         -2.352278461343          0.265750107369
      0.8000000000D+00  0.1000000000D+01
 Atom H2       Shell     5 S   3     bf   16 -    16          3.560695130882         -2.411156960822         -1.791517368116
      0.1873113696D+02  0.3349460434D-01
      0.2825394365D+01  0.2347269535D+00
      0.6401216923D+00  0.8137573261D+00
 Atom H2       Shell     6 S   1     bf   17 -    17          3.560695130882         -2.411156960822         -1.791517368116
      0.1612777588D+00  0.1000000000D+01
 Atom C3       Shell     7 S   6     bf   18 -    18          5.939985904486         -2.297841593065          1.517347982804
      0.3047524880D+04  0.1834737132D-02
      0.4573695180D+03  0.1403732281D-01
      0.1039486850D+03  0.6884262226D-01
      0.2921015530D+02  0.2321844432D+00
      0.9286662960D+01  0.4679413484D+00
      0.3163926960D+01  0.3623119853D+00
 Atom C3       Shell     8 SP   3    bf   19 -    22          5.939985904486         -2.297841593065          1.517347982804
      0.7868272350D+01 -0.1193324198D+00  0.6899906659D-01
      0.1881288540D+01 -0.1608541517D+00  0.3164239610D+00
      0.5442492580D+00  0.1143456438D+01  0.7443082909D+00
 Atom C3       Shell     9 SP   1    bf   23 -    26          5.939985904486         -2.297841593065          1.517347982804
      0.1687144782D+00  0.1000000000D+01  0.1000000000D+01
 Atom C3       Shell    10 D   1     bf   27 -    32          5.939985904486         -2.297841593065          1.517347982804
      0.8000000000D+00  0.1000000000D+01
 Atom H4       Shell    11 S   3     bf   33 -    33          7.035394494634         -3.943035973828          0.908739534118
      0.1873113696D+02  0.3349460434D-01
      0.2825394365D+01  0.2347269535D+00
      0.6401216923D+00  0.8137573261D+00
 Atom H4       Shell    12 S   1     bf   34 -    34          7.035394494634         -3.943035973828          0.908739534118
      0.1612777588D+00  0.1000000000D+01
 Atom H5       Shell    13 S   3     bf   35 -    35          5.664957714236         -2.488728291056          3.571438828660
      0.1873113696D+02  0.3349460434D-01
      0.2825394365D+01  0.2347269535D+00
      0.6401216923D+00  0.8137573261D+00
 Atom H5       Shell    14 S   1     bf   36 -    36          5.664957714236         -2.488728291056          3.571438828660
      0.1612777588D+00  0.1000000000D+01
 Atom C6       Shell    15 S   6     bf   37 -    37          7.369742888949          0.117721566592          0.939316247811
      0.3047524880D+04  0.1834737132D-02
      0.4573695180D+03  0.1403732281D-01
      0.1039486850D+03  0.6884262226D-01
      0.2921015530D+02  0.2321844432D+00
      0.9286662960D+01  0.4679413484D+00
      0.3163926960D+01  0.3623119853D+00
 Atom C6       Shell    16 SP   3    bf   38 -    41          7.369742888949          0.117721566592          0.939316247811
      0.7868272350D+01 -0.1193324198D+00  0.6899906659D-01
      0.1881288540D+01 -0.1608541517D+00  0.3164239610D+00
      0.5442492580D+00  0.1143456438D+01  0.7443082909D+00
 Atom C6       Shell    17 SP   1    bf   42 -    45          7.369742888949          0.117721566592          0.939316247811
      0.1687144782D+00  0.1000000000D+01  0.1000000000D+01
 Atom C6       Shell    18 D   1     bf   46 -    51          7.369742888949          0.117721566592          0.939316247811
      0.8000000000D+00  0.1000000000D+01
 Atom C7       Shell    19 S   6     bf   52 -    52          5.993907954674          2.611837977079          1.465051059296
      0.3047524880D+04  0.1834737132D-02
      0.4573695180D+03  0.1403732281D-01
      0.1039486850D+03  0.6884262226D-01
      0.2921015530D+02  0.2321844432D+00
      0.9286662960D+01  0.4679413484D+00
      0.3163926960D+01  0.3623119853D+00
 Atom C7       Shell    20 SP   3    bf   53 -    56          5.993907954674          2.611837977079          1.465051059296
      0.7868272350D+01 -0.1193324198D+00  0.6899906659D-01
      0.1881288540D+01 -0.1608541517D+00  0.3164239610D+00
      0.5442492580D+00  0.1143456438D+01  0.7443082909D+00
 Atom C7       Shell    21 SP   1    bf   57 -    60          5.993907954674          2.611837977079          1.465051059296
      0.1687144782D+00  0.1000000000D+01  0.1000000000D+01
 Atom C7       Shell    22 D   1     bf   61 -    66          5.993907954674          2.611837977079          1.465051059296
      0.8000000000D+00  0.1000000000D+01
 Atom C8       Shell    23 S   6     bf   67 -    67          3.294556590306          2.427287001688          0.293367755602
      0.3047524880D+04  0.1834737132D-02
      0.4573695180D+03  0.1403732281D-01
      0.1039486850D+03  0.6884262226D-01
      0.2921015530D+02  0.2321844432D+00
      0.9286662960D+01  0.4679413484D+00
      0.3163926960D+01  0.3623119853D+00
 Atom C8       Shell    24 SP   3    bf   68 -    71          3.294556590306          2.427287001688          0.293367755602
      0.7868272350D+01 -0.1193324198D+00  0.6899906659D-01
      0.1881288540D+01 -0.1608541517D+00  0.3164239610D+00
      0.5442492580D+00  0.1143456438D+01  0.7443082909D+00
 Atom C8       Shell    25 SP   1    bf   72 -    75          3.294556590306          2.427287001688          0.293367755602
      0.1687144782D+00  0.1000000000D+01  0.1000000000D+01
 Atom C8       Shell    26 D   1     bf   76 -    81          3.294556590306          2.427287001688          0.293367755602
      0.8000000000D+00  0.1000000000D+01
 Atom H9       Shell    27 S   3     bf   82 -    82          3.479182890181          2.519994735890         -1.771905450158
      0.1873113696D+02  0.3349460434D-01
      0.2825394365D+01  0.2347269535D+00
      0.6401216923D+00  0.8137573261D+00
 Atom H9       Shell    28 S   1     bf   83 -    83          3.479182890181          2.519994735890         -1.771905450158
      0.1612777588D+00  0.1000000000D+01
 Atom H10      Shell    29 S   3     bf   84 -    84          2.189113289831          4.082606516173          0.860451532320
      0.1873113696D+02  0.3349460434D-01
      0.2825394365D+01  0.2347269535D+00
      0.6401216923D+00  0.8137573261D+00
 Atom H10      Shell    30 S   1     bf   85 -    85          2.189113289831          4.082606516173          0.860451532320
      0.1612777588D+00  0.1000000000D+01
 Atom C11      Shell    31 S   6     bf   86 -    86          1.826229709656          0.016820527898          0.976419546444
      0.3047524880D+04  0.1834737132D-02
      0.4573695180D+03  0.1403732281D-01
      0.1039486850D+03  0.6884262226D-01
      0.2921015530D+02  0.2321844432D+00
      0.9286662960D+01  0.4679413484D+00
      0.3163926960D+01  0.3623119853D+00
 Atom C11      Shell    32 SP   3    bf   87 -    90          1.826229709656          0.016820527898          0.976419546444
      0.7868272350D+01 -0.1193324198D+00  0.6899906659D-01
      0.1881288540D+01 -0.1608541517D+00  0.3164239610D+00
      0.5442492580D+00  0.1143456438D+01  0.7443082909D+00
 Atom C11      Shell    33 SP   1    bf   91 -    94          1.826229709656          0.016820527898          0.976419546444
      0.1687144782D+00  0.1000000000D+01  0.1000000000D+01
 Atom C11      Shell    34 D   1     bf   95 -   100          1.826229709656          0.016820527898          0.976419546444
      0.8000000000D+00  0.1000000000D+01
 Atom H12      Shell    35 S   3     bf  101 -   101          1.411465833894         -0.029458997377          3.013159399379
      0.1873113696D+02  0.3349460434D-01
      0.2825394365D+01  0.2347269535D+00
      0.6401216923D+00  0.8137573261D+00
 Atom H12      Shell    36 S   1     bf  102 -   102          1.411465833894         -0.029458997377          3.013159399379
      0.1612777588D+00  0.1000000000D+01
 Atom H13      Shell    37 S   3     bf  103 -   103          0.000000000000          0.000000000000          0.000000000000
      0.1873113696D+02  0.3349460434D-01
      0.2825394365D+01  0.2347269535D+00
      0.6401216923D+00  0.8137573261D+00
 Atom H13      Shell    38 S   1     bf  104 -   104          0.000000000000          0.000000000000          0.000000000000
      0.1612777588D+00  0.1000000000D+01
 Atom C14      Shell    39 S   6     bf  105 -   105          9.721861592845          0.000000000000          0.000000000000
      0.3047524880D+04  0.1834737132D-02
      0.4573695180D+03  0.1403732281D-01
      0.1039486850D+03  0.6884262226D-01
      0.2921015530D+02  0.2321844432D+00
      0.9286662960D+01  0.4679413484D+00
      0.3163926960D+01  0.3623119853D+00
 Atom C14      Shell    40 SP   3    bf  106 -   109          9.721861592845          0.000000000000          0.000000000000
      0.7868272350D+01 -0.1193324198D+00  0.6899906659D-01
      0.1881288540D+01 -0.1608541517D+00  0.3164239610D+00
      0.5442492580D+00  0.1143456438D+01  0.7443082909D+00
 Atom C14      Shell    41 SP   1    bf  110 -   113          9.721861592845          0.000000000000          0.000000000000
      0.1687144782D+00  0.1000000000D+01  0.1000000000D+01
 Atom C14      Shell    42 D   1     bf  114 -   119          9.721861592845          0.000000000000          0.000000000000
      0.8000000000D+00  0.1000000000D+01
 Atom H15      Shell    43 S   3     bf  120 -   120         10.563723397867         -1.834571111985         -0.396291368177
      0.1873113696D+02  0.3349460434D-01
      0.2825394365D+01  0.2347269535D+00
      0.6401216923D+00  0.8137573261D+00
 Atom H15      Shell    44 S   1     bf  121 -   121         10.563723397867         -1.834571111985         -0.396291368177
      0.1612777588D+00  0.1000000000D+01
 Atom C16      Shell    45 S   6     bf  122 -   122         11.289508888560          2.261154487715         -0.682370450084
      0.3047524880D+04  0.1834737132D-02
      0.4573695180D+03  0.1403732281D-01
      0.1039486850D+03  0.6884262226D-01
      0.2921015530D+02  0.2321844432D+00
      0.9286662960D+01  0.4679413484D+00
      0.3163926960D+01  0.3623119853D+00
 Atom C16      Shell    46 SP   3    bf  123 -   126         11.289508888560          2.261154487715         -0.682370450084
      0.7868272350D+01 -0.1193324198D+00  0.6899906659D-01
      0.1881288540D+01 -0.1608541517D+00  0.3164239610D+00
      0.5442492580D+00  0.1143456438D+01  0.7443082909D+00
 Atom C16      Shell    47 SP   1    bf  127 -   130         11.289508888560          2.261154487715         -0.682370450084
      0.1687144782D+00  0.1000000000D+01  0.1000000000D+01
 Atom C16      Shell    48 D   1     bf  131 -   136         11.289508888560          2.261154487715         -0.682370450084
      0.8000000000D+00  0.1000000000D+01
 Atom H17      Shell    49 S   3     bf  137 -   137         13.282645181807          1.928616828981         -0.232114116039
      0.1873113696D+02  0.3349460434D-01
      0.2825394365D+01  0.2347269535D+00
      0.6401216923D+00  0.8137573261D+00
 Atom H17      Shell    50 S   1     bf  138 -   138         13.282645181807          1.928616828981         -0.232114116039
      0.1612777588D+00  0.1000000000D+01
 Atom C18      Shell    51 S   6     bf  139 -   139         10.332910055914          4.697792969247          0.592878330561
      0.3047524880D+04  0.1834737132D-02
      0.4573695180D+03  0.1403732281D-01
      0.1039486850D+03  0.6884262226D-01
      0.2921015530D+02  0.2321844432D+00
      0.9286662960D+01  0.4679413484D+00
      0.3163926960D+01  0.3623119853D+00
 Atom C18      Shell    52 SP   3    bf  140 -   143         10.332910055914          4.697792969247          0.592878330561
      0.7868272350D+01 -0.1193324198D+00  0.6899906659D-01
      0.1881288540D+01 -0.1608541517D+00  0.3164239610D+00
      0.5442492580D+00  0.1143456438D+01  0.7443082909D+00
 Atom C18      Shell    53 SP   1    bf  144 -   147         10.332910055914          4.697792969247          0.592878330561
      0.1687144782D+00  0.1000000000D+01  0.1000000000D+01
 Atom C18      Shell    54 D   1     bf  148 -   153         10.332910055914          4.697792969247          0.592878330561
      0.8000000000D+00  0.1000000000D+01
 Atom H19      Shell    55 S   3     bf  154 -   154         10.755190978774          4.465853331622          2.615031878805
      0.1873113696D+02  0.3349460434D-01
      0.2825394365D+01  0.2347269535D+00
      0.6401216923D+00  0.8137573261D+00
 Atom H19      Shell    56 S   1     bf  155 -   155         10.755190978774          4.465853331622          2.615031878805
      0.1612777588D+00  0.1000000000D+01
 Atom C20      Shell    57 S   6     bf  156 -   156          7.429089152337          4.878673964207          0.199681143263
      0.3047524880D+04  0.1834737132D-02
      0.4573695180D+03  0.1403732281D-01
      0.1039486850D+03  0.6884262226D-01
      0.2921015530D+02  0.2321844432D+00
      0.9286662960D+01  0.4679413484D+00
      0.3163926960D+01  0.3623119853D+00
 Atom C20      Shell    58 SP   3    bf  157 -   160          7.429089152337          4.878673964207          0.199681143263
      0.7868272350D+01 -0.1193324198D+00  0.6899906659D-01
      0.1881288540D+01 -0.1608541517D+00  0.3164239610D+00
      0.5442492580D+00  0.1143456438D+01  0.7443082909D+00
 Atom C20      Shell    59 SP   1    bf  161 -   164          7.429089152337          4.878673964207          0.199681143263
      0.1687144782D+00  0.1000000000D+01  0.1000000000D+01
 Atom C20      Shell    60 D   1     bf  165 -   170          7.429089152337          4.878673964207          0.199681143263
      0.8000000000D+00  0.1000000000D+01
 Atom H21      Shell    61 S   3     bf  171 -   171          7.147254376426          4.664499264012         -1.848530877976
      0.1873113696D+02  0.3349460434D-01
      0.2825394365D+01  0.2347269535D+00
      0.6401216923D+00  0.8137573261D+00
 Atom H21      Shell    62 S   1     bf  172 -   172          7.147254376426          4.664499264012         -1.848530877976
      0.1612777588D+00  0.1000000000D+01
 Atom C22      Shell    63 S   6     bf  173 -   173          6.325650719008          7.486192461984          0.924001699360
      0.3047524880D+04  0.1834737132D-02
      0.4573695180D+03  0.1403732281D-01
      0.1039486850D+03  0.6884262226D-01
      0.2921015530D+02  0.2321844432D+00
      0.9286662960D+01  0.4679413484D+00
      0.3163926960D+01  0.3623119853D+00
 Atom C22      Shell    64 SP   3    bf  174 -   177          6.325650719008          7.486192461984          0.924001699360
      0.7868272350D+01 -0.1193324198D+00  0.6899906659D-01
      0.1881288540D+01 -0.1608541517D+00  0.3164239610D+00
      0.5442492580D+00  0.1143456438D+01  0.7443082909D+00
 Atom C22      Shell    65 SP   1    bf  178 -   181          6.325650719008          7.486192461984          0.924001699360
      0.1687144782D+00  0.1000000000D+01  0.1000000000D+01
 Atom C22      Shell    66 D   1     bf  182 -   187          6.325650719008          7.486192461984          0.924001699360
      0.8000000000D+00  0.1000000000D+01
 Atom H23      Shell    67 S   3     bf  188 -   188          6.200958727500          7.667551387580          2.980784554578
      0.1873113696D+02  0.3349460434D-01
      0.2825394365D+01  0.2347269535D+00
      0.6401216923D+00  0.8137573261D+00
 Atom H23      Shell    68 S   1     bf  189 -   189          6.200958727500          7.667551387580          2.980784554578
      0.1612777588D+00  0.1000000000D+01
 Atom H24      Shell    69 S   3     bf  190 -   190          4.380733301377          7.622578248878          0.224475427270
      0.1873113696D+02  0.3349460434D-01
      0.2825394365D+01  0.2347269535D+00
      0.6401216923D+00  0.8137573261D+00
 Atom H24      Shell    70 S   1     bf  191 -   191          4.380733301377          7.622578248878          0.224475427270
      0.1612777588D+00  0.1000000000D+01
 Atom C25      Shell    71 S   6     bf  192 -   192          7.839232704397          9.752450230710         -0.102120649043
      0.3047524880D+04  0.1834737132D-02
      0.4573695180D+03  0.1403732281D-01
      0.1039486850D+03  0.6884262226D-01
      0.2921015530D+02  0.2321844432D+00
      0.9286662960D+01  0.4679413484D+00
      0.3163926960D+01  0.3623119853D+00
 Atom C25      Shell    72 SP   3    bf  193 -   196          7.839232704397          9.752450230710         -0.102120649043
      0.7868272350D+01 -0.1193324198D+00  0.6899906659D-01
      0.1881288540D+01 -0.1608541517D+00  0.3164239610D+00
      0.5442492580D+00  0.1143456438D+01  0.7443082909D+00
 Atom C25      Shell    73 SP   1    bf  197 -   200          7.839232704397          9.752450230710         -0.102120649043
      0.1687144782D+00  0.1000000000D+01  0.1000000000D+01
 Atom C25      Shell    74 D   1     bf  201 -   206          7.839232704397          9.752450230710         -0.102120649043
      0.8000000000D+00  0.1000000000D+01
 Atom H26      Shell    75 S   3     bf  207 -   207          7.737578401969          9.780944674075         -2.176882547662
      0.1873113696D+02  0.3349460434D-01
      0.2825394365D+01  0.2347269535D+00
      0.6401216923D+00  0.8137573261D+00
 Atom H26      Shell    76 S   1     bf  208 -   208          7.737578401969          9.780944674075         -2.176882547662
      0.1612777588D+00  0.1000000000D+01
 Atom H27      Shell    77 S   3     bf  209 -   209          6.937266629040         11.493090842301          0.558133504629
      0.1873113696D+02  0.3349460434D-01
      0.2825394365D+01  0.2347269535D+00
      0.6401216923D+00  0.8137573261D+00
 Atom H27      Shell    78 S   1     bf  210 -   210          6.937266629040         11.493090842301          0.558133504629
      0.1612777588D+00  0.1000000000D+01
 Atom C28      Shell    79 S   6     bf  211 -   211         10.635908819650          9.612231852451          0.693415993817
      0.3047524880D+04  0.1834737132D-02
      0.4573695180D+03  0.1403732281D-01
      0.1039486850D+03  0.6884262226D-01
      0.2921015530D+02  0.2321844432D+00
      0.9286662960D+01  0.4679413484D+00
      0.3163926960D+01  0.3623119853D+00
 Atom C28      Shell    80 SP   3    bf  212 -   215         10.635908819650          9.612231852451          0.693415993817
      0.7868272350D+01 -0.1193324198D+00  0.6899906659D-01
      0.1881288540D+01 -0.1608541517D+00  0.3164239610D+00
      0.5442492580D+00  0.1143456438D+01  0.7443082909D+00
 Atom C28      Shell    81 SP   1    bf  216 -   219         10.635908819650          9.612231852451          0.693415993817
      0.1687144782D+00  0.1000000000D+01  0.1000000000D+01
 Atom C28      Shell    82 D   1     bf  220 -   225         10.635908819650          9.612231852451          0.693415993817
      0.8000000000D+00  0.1000000000D+01
 Atom C29      Shell    83 S   6     bf  226 -   226         11.685326672470          7.077915165659         -0.370616944223
      0.3047524880D+04  0.1834737132D-02
      0.4573695180D+03  0.1403732281D-01
      0.1039486850D+03  0.6884262226D-01
      0.2921015530D+02  0.2321844432D+00
      0.9286662960D+01  0.4679413484D+00
      0.3163926960D+01  0.3623119853D+00
 Atom C29      Shell    84 SP   3    bf  227 -   230         11.685326672470          7.077915165659         -0.370616944223
      0.7868272350D+01 -0.1193324198D+00  0.6899906659D-01
      0.1881288540D+01 -0.1608541517D+00  0.3164239610D+00
      0.5442492580D+00  0.1143456438D+01  0.7443082909D+00
 Atom C29      Shell    85 SP   1    bf  231 -   234         11.685326672470          7.077915165659         -0.370616944223
      0.1687144782D+00  0.1000000000D+01  0.1000000000D+01
 Atom C29      Shell    86 D   1     bf  235 -   240         11.685326672470          7.077915165659         -0.370616944223
      0.8000000000D+00  0.1000000000D+01
 Atom H30      Shell    87 S   3     bf  241 -   241         11.339649710139          7.156436423425         -2.417482308826
      0.1873113696D+02  0.3349460434D-01
      0.2825394365D+01  0.2347269535D+00
      0.6401216923D+00  0.8137573261D+00
 Atom H30      Shell    88 S   1     bf  242 -   242         11.339649710139          7.156436423425         -2.417482308826
      0.1612777588D+00  0.1000000000D+01
 Atom C31      Shell    89 S   6     bf  243 -   243         14.558310212428          7.296844397907          0.000000000000
      0.3047524880D+04  0.1834737132D-02
      0.4573695180D+03  0.1403732281D-01
      0.1039486850D+03  0.6884262226D-01
      0.2921015530D+02  0.2321844432D+00
      0.9286662960D+01  0.4679413484D+00
      0.3163926960D+01  0.3623119853D+00
 Atom C31      Shell    90 SP   3    bf  244 -   247         14.558310212428          7.296844397907          0.000000000000
      0.7868272350D+01 -0.1193324198D+00  0.6899906659D-01
      0.1881288540D+01 -0.1608541517D+00  0.3164239610D+00
      0.5442492580D+00  0.1143456438D+01  0.7443082909D+00
 Atom C31      Shell    91 SP   1    bf  248 -   251         14.558310212428          7.296844397907          0.000000000000
      0.1687144782D+00  0.1000000000D+01  0.1000000000D+01
 Atom C31      Shell    92 D   1     bf  252 -   257         14.558310212428          7.296844397907          0.000000000000
      0.8000000000D+00  0.1000000000D+01
 Atom H32      Shell    93 S   3     bf  258 -   258         15.602533170315          6.086376789699         -1.303295547890
      0.1873113696D+02  0.3349460434D-01
      0.2825394365D+01  0.2347269535D+00
      0.6401216923D+00  0.8137573261D+00
 Atom H32      Shell    94 S   1     bf  259 -   259         15.602533170315          6.086376789699         -1.303295547890
      0.1612777588D+00  0.1000000000D+01
 Atom H33      Shell    95 S   3     bf  260 -   260         15.093570679814          6.735689636931          1.924200576803
      0.1873113696D+02  0.3349460434D-01
      0.2825394365D+01  0.2347269535D+00
      0.6401216923D+00  0.8137573261D+00
 Atom H33      Shell    96 S   1     bf  261 -   261         15.093570679814          6.735689636931          1.924200576803
      0.1612777588D+00  0.1000000000D+01
 Atom C34      Shell    97 S   6     bf  262 -   262         15.099622452166         10.147525673504         -0.448558282834
      0.3047524880D+04  0.1834737132D-02
      0.4573695180D+03  0.1403732281D-01
      0.1039486850D+03  0.6884262226D-01
      0.2921015530D+02  0.2321844432D+00
      0.9286662960D+01  0.4679413484D+00
      0.3163926960D+01  0.3623119853D+00
 Atom C34      Shell    98 SP   3    bf  263 -   266         15.099622452166         10.147525673504         -0.448558282834
      0.7868272350D+01 -0.1193324198D+00  0.6899906659D-01
      0.1881288540D+01 -0.1608541517D+00  0.3164239610D+00
      0.5442492580D+00  0.1143456438D+01  0.7443082909D+00
 Atom C34      Shell    99 SP   1    bf  267 -   270         15.099622452166         10.147525673504         -0.448558282834
      0.1687144782D+00  0.1000000000D+01  0.1000000000D+01
 Atom C34      Shell   100 D   1     bf  271 -   276         15.099622452166         10.147525673504         -0.448558282834
      0.8000000000D+00  0.1000000000D+01
 Atom H35      Shell   101 S   3     bf  277 -   277         16.219469490890         10.938563407565          1.105223355251
      0.1873113696D+02  0.3349460434D-01
      0.2825394365D+01  0.2347269535D+00
      0.6401216923D+00  0.8137573261D+00
 Atom H35      Shell   102 S   1     bf  278 -   278         16.219469490890         10.938563407565          1.105223355251
      0.1612777588D+00  0.1000000000D+01
 Atom H36      Shell   103 S   3     bf  279 -   279         16.206305129525         10.442492704332         -2.171048755220
      0.1873113696D+02  0.3349460434D-01
      0.2825394365D+01  0.2347269535D+00
      0.6401216923D+00  0.8137573261D+00
 Atom H36      Shell   104 S   1     bf  280 -   280         16.206305129525         10.442492704332         -2.171048755220
      0.1612777588D+00  0.1000000000D+01
 Atom C37      Shell   105 S   6     bf  281 -   281         12.483532647980         11.512402539468         -0.629343600960
      0.3047524880D+04  0.1834737132D-02
      0.4573695180D+03  0.1403732281D-01
      0.1039486850D+03  0.6884262226D-01
      0.2921015530D+02  0.2321844432D+00
      0.9286662960D+01  0.4679413484D+00
      0.3163926960D+01  0.3623119853D+00
 Atom C37      Shell   106 SP   3    bf  282 -   285         12.483532647980         11.512402539468         -0.629343600960
      0.7868272350D+01 -0.1193324198D+00  0.6899906659D-01
      0.1881288540D+01 -0.1608541517D+00  0.3164239610D+00
      0.5442492580D+00  0.1143456438D+01  0.7443082909D+00
[...]
 1623 Fit      -0.003204
 1624 Fit      -0.002530
 1625 Fit      -0.002888
 1626 Fit      -0.004117
 1627 Fit      -0.002528
 1628 Fit      -0.003669
 1629 Fit      -0.005042
 1630 Fit      -0.004029
 1631 Fit      -0.004577
 1632 Fit      -0.004954
 1633 Fit      -0.004726
 1634 Fit      -0.004180
 1635 Fit       0.001413
 1636 Fit      -0.003615
 1637 Fit      -0.001167
 1638 Fit       0.000661
 1639 Fit       0.000719
 1640 Fit      -0.003106
 1641 Fit      -0.000638
 1642 Fit       0.000595
 1643 Fit      -0.001321
 1644 Fit      -0.002458
 1645 Fit      -0.001070
 1646 Fit      -0.003777
 1647 Fit      -0.004096
 1648 Fit      -0.003383
 1649 Fit       0.000086
 1650 Fit      -0.001305
 1651 Fit      -0.002775
 1652 Fit      -0.003889
 1653 Fit      -0.000854
 1654 Fit       0.000860
 1655 Fit       0.001055
 1656 Fit      -0.000210
 1657 Fit      -0.001437
 1658 Fit      -0.001697
 1659 Fit       0.000311
 1660 Fit      -0.003211
 1661 Fit      -0.002051
 1662 Fit      -0.001325
 1663 Fit      -0.001686
 1664 Fit      -0.003271
 1665 Fit      -0.004584
 1666 Fit      -0.003445
 1667 Fit      -0.002647
 1668 Fit      -0.002974
 1669 Fit      -0.004219
 1670 Fit      -0.009219
 1671 Fit      -0.003006
 1672 Fit      -0.010247
 1673 Fit      -0.015462
 1674 Fit      -0.013915
 1675 Fit      -0.008257
 1676 Fit      -0.004969
 1677 Fit      -0.005128
 1678 Fit      -0.003828
 1679 Fit      -0.001233
 1680 Fit      -0.004022
 1681 Fit      -0.006779
 1682 Fit      -0.005208
 1683 Fit      -0.003443
 1684 Fit       0.001768
 1685 Fit       0.002725
 1686 Fit       0.002254
 1687 Fit       0.002920
 1688 Fit       0.001814
 1689 Fit       0.002052
 1690 Fit       0.003147
 1691 Fit      -0.008366
 1692 Fit      -0.000797
 1693 Fit       0.003078
 1694 Fit       0.005432
 1695 Fit      -0.012616
 1696 Fit      -0.002167
 1697 Fit       0.003154
 1698 Fit      -0.008769
 1699 Fit      -0.000505
 1700 Fit      -0.001893
 1701 Fit       0.012290
 1702 Fit       0.007800
 1703 Fit       0.017786
 1704 Fit       0.014529
 1705 Fit       0.009477
 1706 Fit       0.003543
 1707 Fit       0.011338
 1708 Fit       0.006660
 1709 Fit       0.004932
 1710 Fit       0.002310
 1711 Fit       0.002661
 1712 Fit      -0.000284
 1713 Fit       0.000630
 1714 Fit       0.001074
 1715 Fit       0.001202
 1716 Fit      -0.008709
 1717 Fit      -0.003870
 1718 Fit      -0.000675
 1719 Fit       0.000093
 1720 Fit      -0.000488
 1721 Fit      -0.004198
 1722 Fit      -0.002324
 1723 Fit       0.007211
 1724 Fit       0.006694
 1725 Fit       0.006259
 1726 Fit       0.005804
 1727 Fit       0.005132
 1728 Fit       0.005255
 1729 Fit       0.004590
 1730 Fit       0.004266
 1731 Fit       0.003385
 1732 Fit       0.002904
 1733 Fit       0.005290
 1734 Fit       0.004339
 1735 Fit       0.004513
 1736 Fit       0.004027
 1737 Fit      -0.003983
 1738 Fit       0.009613
 1739 Fit       0.011413
 1740 Fit       0.017127
 1741 Fit       0.007536
 1742 Fit       0.007652
 1743 Fit       0.009974
 1744 Fit       0.018243
 1745 Fit       0.004668
 1746 Fit       0.006418
 1747 Fit       0.004197
 1748 Fit       0.002860
 1749 Fit       0.001103
 1750 Fit      -0.002562
 1751 Fit       0.003421
 1752 Fit       0.002407
 1753 Fit       0.000342
 1754 Fit      -0.004300
 1755 Fit       0.002336
 1756 Fit       0.001067
 1757 Fit      -0.002373
 1758 Fit      -0.009794
 1759 Fit       0.001384
 1760 Fit      -0.000720
 1761 Fit      -0.004935
 1762 Fit      -0.000069
 1763 Fit       0.000499
 1764 Fit      -0.001094
 1765 Fit       0.003282
 1766 Fit       0.000347
 1767 Fit       0.001059
 1768 Fit       0.004848
 1769 Fit      -0.008615
 1770 Fit       0.004792
 1771 Fit       0.004911
 1772 Fit       0.006384
 1773 Fit       0.006896
 1774 Fit       0.007650
 1775 Fit       0.006014
 1776 Fit       0.007510
 1777 Fit       0.009067
 1778 Fit       0.002008
 1779 Fit       0.005266
 1780 Fit       0.008333
 1781 Fit      -0.004817
 1782 Fit       0.001520
 1783 Fit       0.005738
 1784 Fit       0.005321
 1785 Fit       0.004627
 1786 Fit       0.006292
 1787 Fit       0.006484
 1788 Fit       0.003216
 1789 Fit       0.008088
 1790 Fit       0.006484
 1791 Fit       0.001373
 1792 Fit       0.009640
 1793 Fit       0.006836
 1794 Fit       0.005682
 1795 Fit       0.003951
 1796 Fit       0.005419
 1797 Fit      -0.002284
 1798 Fit      -0.015345
 1799 Fit      -0.007240
 1800 Fit      -0.006073
 1801 Fit      -0.013148
 1802 Fit      -0.016276
 1803 Fit       0.002841
 1804 Fit       0.005149
 1805 Fit      -0.001566
 1806 Fit       0.004493
 1807 Fit       0.002960
 1808 Fit       0.003890
 1809 Fit       0.005981
 1810 Fit       0.005083
 1811 Fit       0.002236
 1812 Fit       0.004041
 1813 Fit       0.001575
 1814 Fit       0.003349
 1815 Fit       0.000785
 1816 Fit       0.002375
 1817 Fit      -0.000630
 1818 Fit       0.000609
 1819 Fit      -0.001950
 1820 Fit      -0.000667
 1821 Fit      -0.001845
 1822 Fit      -0.001657
 1823 Fit      -0.001747
 1824 Fit      -0.005197
 1825 Fit      -0.002204
 1826 Fit      -0.001962
 1827 Fit      -0.002553
 1828 Fit      -0.005504
 1829 Fit      -0.009309
 1830 Fit      -0.003927
 1831 Fit       0.003379
 1832 Fit       0.002671
 1833 Fit       0.001748
 1834 Fit      -0.000745
 1835 Fit       0.000198
 1836 Fit      -0.002004
 1837 Fit      -0.011922
 1838 Fit      -0.009315
 1839 Fit      -0.015641
 1840 Fit      -0.003591
 1841 Fit      -0.000911
 1842 Fit      -0.002719
 1843 Fit      -0.004178
 1844 Fit       0.000445
 1845 Fit      -0.001718
 1846 Fit      -0.003014
 1847 Fit      -0.000465
 1848 Fit      -0.001459
 1849 Fit      -0.003729
 1850 Fit       0.002356
 1851 Fit       0.004193
 1852 Fit       0.003169
 1853 Fit       0.000712
 1854 Fit       0.001171
 1855 Fit       0.005183
 1856 Fit       0.003196
 1857 Fit       0.001553
 1858 Fit      -0.001710
 1859 Fit       0.001365
 1860 Fit      -0.000686
 1861 Fit      -0.003011
 1862 Fit      -0.003855
 1863 Fit      -0.003259
 1864 Fit      -0.004070
 1865 Fit       0.001727
 1866 Fit       0.001705
 1867 Fit       0.000380
 1868 Fit       0.000634
 1869 Fit       0.000177
 1870 Fit      -0.000129
 1871 Fit      -0.001188
 1872 Fit      -0.000465
 1873 Fit      -0.002240
 1874 Fit      -0.001970
 1875 Fit      -0.001053
 1876 Fit      -0.003083
 1877 Fit      -0.001445
 1878 Fit      -0.000774
 1879 Fit      -0.003100
 1880 Fit      -0.002412
 1881 Fit      -0.010536
 1882 Fit      -0.005739
 1883 Fit      -0.003953
 1884 Fit      -0.002509
 1885 Fit      -0.006304
 1886 Fit      -0.007063
 1887 Fit      -0.000101
 1888 Fit      -0.000134
 1889 Fit      -0.000669
 1890 Fit      -0.000146
 1891 Fit       0.000697
 1892 Fit       0.000833
 1893 Fit      -0.000550
 1894 Fit       0.001681
 1895 Fit       0.002972
 1896 Fit       0.004607
 1897 Fit       0.003459
 1898 Fit       0.003379
 1899 Fit       0.006326
 1900 Fit       0.001231
 1901 Fit       0.000060
 1902 Fit       0.001106
 1903 Fit       0.002315
 1904 Fit       0.001636
 1905 Fit       0.000360
 1906 Fit       0.002385
 1907 Fit       0.002469
 1908 Fit       0.000052
 1909 Fit       0.001213
 1910 Fit       0.001065
 1911 Fit       0.000446
 1912 Fit       0.001565
 1913 Fit       0.002527
 1914 Fit       0.002501
 1915 Fit       0.003814
 1916 Fit       0.003042
 1917 Fit       0.000083
 1918 Fit       0.000735
 1919 Fit       0.000268
 1920 Fit       0.000166
 1921 Fit       0.000610
 1922 Fit      -0.000418
 1923 Fit      -0.000486
 1924 Fit      -0.000587
 1925 Fit      -0.000774
 1926 Fit      -0.000554
 1927 Fit      -0.001157
 1928 Fit      -0.001510
 1929 Fit      -0.002131
 1930 Fit      -0.002266
 1931 Fit      -0.002538
 1932 Fit      -0.002024
 1933 Fit      -0.002084
 1934 Fit      -0.002165
 1935 Fit      -0.001723
 1936 Fit      -0.001565
 1937 Fit      -0.000676
 1938 Fit      -0.000602
 1939 Fit      -0.001042
 1940 Fit      -0.000230
 1941 Fit      -0.000912
 1942 Fit      -0.000343
 1943 Fit      -0.000811
 1944 Fit       0.000781
 1945 Fit       0.000395
 1946 Fit      -0.000699
 1947 Fit       0.001212
 1948 Fit       0.000560
 1949 Fit      -0.000635
 1950 Fit       0.000787
 1951 Fit       0.000106
 1952 Fit      -0.001140
 1953 Fit      -0.000695
 1954 Fit      -0.001923
 1955 Fit       0.000850
 1956 Fit       0.003112
 1957 Fit      -0.000158
 1958 Fit       0.001925
 1959 Fit       0.003813
 1960 Fit       0.000027
 1961 Fit       0.002182
 1962 Fit       0.004232
 1963 Fit       0.003840
 1964 Fit       0.004038
 1965 Fit       0.005085
 1966 Fit       0.005014
 1967 Fit       0.004278
 1968 Fit       0.009204
 1969 Fit       0.003790
 1970 Fit       0.005106
 1971 Fit       0.005396
 1972 Fit       0.005032
 1973 Fit       0.005694
 1974 Fit       0.006207
 1975 Fit       0.006428
 1976 Fit       0.006809
 1977 Fit       0.006561
 1978 Fit       0.007137
 1979 Fit       0.007335
 1980 Fit       0.006180
 1981 Fit       0.007798
 1982 Fit       0.009867
 1983 Fit       0.007711
 1984 Fit       0.011834
 1985 Fit       0.015372
 1986 Fit       0.014598
 1987 Fit       0.010084
 1988 Fit       0.004248
 1989 Fit       0.005181
 1990 Fit       0.004768
 1991 Fit       0.004638
 1992 Fit       0.006161
 1993 Fit       0.006171
 1994 Fit       0.004295
 1995 Fit       0.004901
 1996 Fit       0.001510
 1997 Fit       0.004610
 1998 Fit      -0.015025
 1999 Fit      -0.016342
 2000 Fit      -0.013932
 2001 Fit      -0.005865
 2002 Fit      -0.021725
 2003 Fit      -0.019356
 2004 Fit      -0.018058
 2005 Fit      -0.016414
 2006 Fit      -0.011668
 2007 Fit      -0.000224
 2008 Fit      -0.015482
 2009 Fit      -0.007411
 2010 Fit       0.009639
 2011 Fit       0.003230
 2012 Fit       0.001095
 2013 Fit       0.008651
 2014 Fit       0.006293
 2015 Fit      -0.002785
 2016 Fit      -0.009737
 2017 Fit      -0.014379
 2018 Fit      -0.001579
 2019 Fit      -0.009935
 2020 Fit      -0.015157
 2021 Fit      -0.017885
 2022 Fit      -0.019191
 2023 Fit      -0.004889
 2024 Fit      -0.010872
 2025 Fit      -0.007310
 2026 Fit       0.013039
 2027 Fit       0.015533
 2028 Fit       0.016454
 2029 Fit       0.013411
 2030 Fit       0.012200
 2031 Fit       0.011443
 2032 Fit       0.017692
 2033 Fit       0.019133
 2034 Fit       0.017108
 2035 Fit       0.014293
 2036 Fit       0.005868
 2037 Fit       0.014746
 2038 Fit       0.018859
 2039 Fit       0.018481
 2040 Fit       0.013383
 2041 Fit       0.004699
 2042 Fit       0.002232
 2043 Fit       0.011168
 2044 Fit       0.016110
 2045 Fit       0.009494
 2046 Fit       0.000333
 2047 Fit      -0.002096
 2048 Fit      -0.004015
 2049 Fit      -0.006062
 2050 Fit      -0.008139
 2051 Fit      -0.009099
 2052 Fit      -0.007285
 2053 Fit      -0.010662
 2054 Fit      -0.014063
 2055 Fit      -0.015947
 2056 Fit      -0.017292
 2057 Fit      -0.018467
 2058 Fit      -0.019008
 2059 Fit      -0.017712
 2060 Fit      -0.015947
 2061 Fit      -0.021028
 2062 Fit      -0.023399
 2063 Fit      -0.024516
 2064 Fit      -0.024714
 2065 Fit      -0.023166
 2066 Fit      -0.018209
 2067 Fit      -0.020523
 2068 Fit      -0.024635
 2069 Fit      -0.026004
 2070 Fit      -0.025163
 2071 Fit      -0.021361
 2072 Fit      -0.018150
 2073 Fit      -0.022078
 2074 Fit      -0.018265
 2075 Fit       0.021516
 2076 Fit       0.022528
 2077 Fit       0.019179
 2078 Fit       0.017244
 2079 Fit       0.017263
 2080 Fit       0.014794
 2081 Fit       0.012622
 2082 Fit       0.010964
 2083 Fit       0.009611
 2084 Fit       0.009202
 2085 Fit       0.011090
 2086 Fit       0.006464
 2087 Fit       0.004052
 2088 Fit       0.002184
 2089 Fit       0.000481
 2090 Fit      -0.001428
 2091 Fit      -0.002473
 2092 Fit      -0.003267
 2093 Fit      -0.001813
 2094 Fit      -0.000596
 2095 Fit      -0.000008
 2096 Fit      -0.001647
 2097 Fit      -0.000113
 2098 Fit       0.000781
 2099 Fit      -0.002900
 2100 Fit      -0.000859
 2101 Fit       0.000538
 2102 Fit       0.001102
 2103 Fit       0.000801
 2104 Fit      -0.000933
 2105 Fit      -0.000997
 2106 Fit      -0.002516
 2107 Fit      -0.001043
 2108 Fit      -0.002456
 2109 Fit      -0.001165
 2110 Fit      -0.001132
 2111 Fit      -0.000392
 2112 Fit      -0.000858
 2113 Fit       0.000053
 2114 Fit      -0.000009
 2115 Fit      -0.000237
 2116 Fit      -0.001010
 2117 Fit      -0.003971
 2118 Fit      -0.003729
 2119 Fit      -0.003544
 2120 Fit      -0.001640
 2121 Fit      -0.003290
 2122 Fit      -0.000715
 2123 Fit      -0.000708
 2124 Fit      -0.002275
 2125 Fit      -0.000252
 2126 Fit      -0.000048
 2127 Fit       0.000287
 2128 Fit       0.000214
 2129 Fit       0.000580
 2130 Fit      -0.001922
 2131 Fit      -0.000149
 2132 Fit       0.000747
 2133 Fit       0.000861
 2134 Fit      -0.002952
 2135 Fit      -0.000808
 2136 Fit       0.000725
 2137 Fit       0.000919
 2138 Fit       0.000429
 2139 Fit      -0.000313
 2140 Fit      -0.000039
 2141 Fit      -0.000205
 2142 Fit      -0.000653
 2143 Fit      -0.000126
 2144 Fit       0.000171
 2145 Fit      -0.001338
 2146 Fit      -0.000340
 2147 Fit      -0.000068
 2148 Fit      -0.000478
 2149 Fit      -0.001570
 2150 Fit      -0.000682
 2151 Fit      -0.000686
 2152 Fit      -0.001714
 2153 Fit      -0.000799
 2154 Fit      -0.001329
 2155 Fit      -0.003529
 2156 Fit      -0.003078
 2157 Fit      -0.003133
 2158 Fit      -0.003467
 2159 Fit      -0.003022
 2160 Fit      -0.002097
 2161 Fit      -0.003313
 2162 Fit      -0.003267
 2163 Fit      -0.002855
 2164 Fit      -0.002897
 2165 Fit      -0.003114
 2166 Fit      -0.002930
 2167 Fit      -0.001138
 2168 Fit      -0.002573
 2169 Fit      -0.000125
 2170 Fit      -0.000474
 2171 Fit      -0.001830
 2172 Fit       0.000875
 2173 Fit       0.000366
 2174 Fit      -0.000751
 2175 Fit      -0.002047
 2176 Fit       0.000207
 2177 Fit      -0.000049
 2178 Fit      -0.001823
 2179 Fit      -0.001417
 2180 Fit      -0.002550
 2181 Fit      -0.002093
 2182 Fit      -0.001710
 2183 Fit      -0.001271
 2184 Fit      -0.002350
 2185 Fit      -0.001815
 2186 Fit      -0.001194
 2187 Fit      -0.000665
 2188 Fit      -0.000270
 2189 Fit       0.000043
 2190 Fit      -0.002705
 2191 Fit      -0.000676
 2192 Fit      -0.000079
 2193 Fit       0.000503
 2194 Fit       0.000906
 2195 Fit      -0.000488
 2196 Fit       0.000528
 2197 Fit      -0.000104
 2198 Fit      -0.001548
 2199 Fit       0.000028
 2200 Fit       0.000853
 2201 Fit       0.000905
 2202 Fit      -0.002714
 2203 Fit      -0.001221
 2204 Fit      -0.000150
 2205 Fit       0.000264
 2206 Fit       0.000076
 2207 Fit      -0.000417
 2208 Fit      -0.002397
 2209 Fit      -0.001420
 2210 Fit      -0.001079
 2211 Fit      -0.001304
 2212 Fit      -0.002821
 2213 Fit      -0.004677
 2214 Fit      -0.002384
 2215 Fit      -0.004603
 2216 Fit      -0.001475
 2217 Fit      -0.002575
 2218 Fit      -0.003287
 2219 Fit      -0.004508
 2220 Fit      -0.004027
 2221 Fit      -0.003003
 2222 Fit      -0.003601
 2223 Fit      -0.003911
 2224 Fit      -0.003711
 2225 Fit      -0.003301
 2226 Fit      -0.001210
 2227 Fit       0.000244
 2228 Fit       0.000809
 2229 Fit      -0.002366
 2230 Fit      -0.000512
 2231 Fit       0.000456
 2232 Fit      -0.000258
 2233 Fit      -0.002632
 2234 Fit      -0.000965
 2235 Fit      -0.000208
 2236 Fit      -0.001906
 2237 Fit      -0.002690
 2238 Fit      -0.001695
 2239 Fit      -0.000732
 2240 Fit      -0.001688
 2241 Fit      -0.002357
 2242 Fit       0.000106
 2243 Fit      -0.000941
 2244 Fit      -0.002039
 2245 Fit      -0.002911
 2246 Fit      -0.003360
 2247 Fit      -0.003314
 2248 Fit      -0.002922
 2249 Fit      -0.000807
 2250 Fit       0.000392
 2251 Fit       0.000528
 2252 Fit      -0.000405
 2253 Fit      -0.001302
 2254 Fit      -0.001456
 2255 Fit      -0.000113
 2256 Fit      -0.001755
 2257 Fit      -0.001590
 2258 Fit      -0.002793
 2259 Fit      -0.004649
 2260 Fit      -0.004816
 2261 Fit      -0.002118
 2262 Fit      -0.002194
 2263 Fit      -0.003167
 2264 Fit      -0.004326
 2265 Fit      -0.004823
 2266 Fit      -0.003048
 2267 Fit      -0.003425
 2268 Fit      -0.004265
 -----------------------------------------------------------------
 Leave Link  602 at Wed Apr 26 14:14:17 2017, MaxMem=    33554432 cpu:         4.1
 (Enter /home/michal/g09/l9999.exe)

 Test job not archived.
 1\1\GINC-LINUX\SP\RHF\6-31G(d)\C27H46O3\MICHAL\26-Apr-2017\0\\#P HF/6-
 31G* SCF(Conver=6) NoSymm Test Pop=mk IOp(6/33=2) GFInput GFPrint\\MEP
  - Input generated by R.E.D.-III.x MOLECULE\\0,1\C,0,1.75610334,-1.244
 77215,0.1406289\H,0,1.88423871,-1.27592931,-0.94803016\C,0,3.14330516,
 -1.2159654,0.80294597\H,0,3.72297042,-2.08656477,0.48088425\H,0,2.9977
 6651,-1.31697829,1.88992403\C,0,3.89989997,0.06229557,0.49706475\C,0,3
 .17183948,1.38212513,0.77527163\C,0,1.74340426,1.28446496,0.15524353\H
 ,0,1.84110429,1.33352378,-0.93765198\H,0,1.15842886,2.16042232,0.45533
 134\C,0,0.96639914,0.00890104,0.51669897\H,0,0.74691555,-0.01558903,1.
 59449528\H,0,0.,0.,0.\C,0,5.14458758,0.,0.\H,0,5.59008166,-0.97081322,
 -0.20970836\C,0,5.9741508,1.19655142,-0.36109489\H,0,7.0288731,1.02058
 007,-0.1228295\C,0,5.4679405,2.48596497,0.3137377\H,0,5.69140194,2.363
 2278,1.38381527\C,0,3.93130466,2.58168307,0.10566671\H,0,3.78216412,2.
 4683467,-0.97820041\C,0,3.34739019,3.96152243,0.48896064\H,0,3.2814060
 3,4.05749344,1.57736325\H,0,2.31818422,4.03369468,0.11878728\C,0,4.148
 34328,5.16077439,-0.05403992\H,0,4.09455014,5.175853,-1.15195663\H,0,3
 .67104339,6.08188173,0.29535153\C,0,5.62828054,5.08657402,0.36693994\C
 ,0,6.18360855,3.74547139,-0.19612204\H,0,6.00068418,3.78702305,-1.2792
 7654\C,0,7.70392596,3.86132375,0.\H,0,8.25650495,3.22077188,-0.6896743
 \H,0,7.9871736,3.56437344,1.01824309\C,0,7.99037606,5.36983931,-0.2373
 6682\H,0,8.58297359,5.78843845,0.58485901\H,0,8.57600731,5.52592914,-1
 .14886952\C,0,6.60600096,6.09210104,-0.33303429\H,0,6.30429495,6.11043
 361,-1.39045783\C,0,5.76412316,5.19157315,1.90381818\H,0,5.29185385,4.
 35417173,2.42375876\H,0,6.81051954,5.2182341,2.22181744\H,0,5.28901066
 ,6.10767391,2.27148527\C,0,6.67019048,7.5610386,0.15512882\H,0,6.98265
 11,7.54215089,1.20952147\C,0,5.31948333,8.2988368,0.09338256\H,0,4.851
 97494,8.21529348,-0.89407855\H,0,5.45628514,9.36581575,0.3064448\H,0,4
 .6082162,7.91105021,0.82699989\C,0,3.06036621,1.56118077,2.31436199\H,
 0,2.386682,2.3841129,2.57052304\H,0,2.66812649,0.66359134,2.79854692\H
 ,0,4.03741806,1.76714339,2.76202185\O,0,5.87559403,1.23854392,-1.81655
 081\O,0,7.11091508,1.7941217,-2.3762798\H,0,7.37928062,1.05230854,-2.9
 4196179\O,0,1.05016908,-2.45059923,0.44486278\H,0,0.86991551,-2.472805
 44,1.39521922\C,0,7.76405328,8.37695088,-0.58520242\H,0,7.81262988,9.3
 6942766,-0.11445055\H,0,8.7439508,7.91621911,-0.40818941\C,0,7.5765963
 8,8.56508403,-2.09966712\H,0,7.54623655,7.58573166,-2.59165821\H,0,6.6
 0782574,9.04225184,-2.30117674\C,0,8.6894613,9.42171618,-2.7228256\H,0
 ,9.65992983,8.92375592,-2.57320457\H,0,8.74891032,10.37134218,-2.17165
 558\C,0,8.52047843,9.74032504,-4.22238105\H,0,7.5300756,10.20340919,-4
 .35352943\C,0,9.57681102,10.75898721,-4.67947325\H,0,10.58878455,10.34
 875797,-4.56781074\H,0,9.44225148,11.02648951,-5.73380809\H,0,9.524949
 17,11.68133254,-4.08956739\C,0,8.57204618,8.4815731,-5.10355701\H,0,9.
 53415083,7.96556309,-4.98729894\H,0,8.46119322,8.74065429,-6.16275059\
 H,0,7.77908512,7.76958751,-4.85423765\\Version=EM64L-G09RevD.01\HF=-12
 73.6809215\RMSD=5.577e-07\Dipole=0.2042206,0.0094407,0.6978834\Quadrup
 ole=4.0660894,-6.9053729,2.8392835,-7.883414,0.9724935,1.118607\PG=C01
  [X(C27H46O3)]\\@


 TWO ROADS DIVERGED IN A WOOD, AND I--
 I TOOK THE ONE LESS TRAVELED BY,
 AND THAT HAS MADE ALL THE DIFFERENCE.

                       -- ROBERT FROST
 Job cpu time:       0 days  0 hours 12 minutes 52.1 seconds.
 File lengths (MBytes):  RWF=    159 Int=      0 D2E=      0 Chk=     11 Scr=      1
 Normal termination of Gaussian 09 at Wed Apr 26 14:14:17 2017.
